
     Program PWSCF v.7.0 starts on 29Mar2023 at 11:45:51 

     This program is part of the open-source Quantum ESPRESSO suite
     for quantum simulation of materials; please cite
         "P. Giannozzi et al., J. Phys.:Condens. Matter 21 395502 (2009);
         "P. Giannozzi et al., J. Phys.:Condens. Matter 29 465901 (2017);
         "P. Giannozzi et al., J. Chem. Phys. 152 154105 (2020);
          URL http://www.quantum-espresso.org", 
     in publications or presentations arising from this work. More details at
     http://www.quantum-espresso.org/quote

     Parallel version (MPI), running on     1 processors

     MPI processes distributed on     1 nodes
     23345 MiB available memory on the printing compute node when the environment starts
 
     Waiting for input...
     Reading input from standard input
Warning: card &CELL ignored
Warning: card / ignored

     Current dimensions of program PWSCF are:
     Max number of different atomic species (ntypx) = 10
     Max number of k-points (npk) =  40000
     Max angular momentum in pseudopotentials (lmaxx) =  4
     file Ge.SCAN.UPF2: wavefunction(s)  0D renormalized

     WARNING: the MGGA functional with ID    5 has been 
     read together with other dft terms, but it should 
     stand alone in order to work properly. The other 
     terms will be ignored.

     Subspace diagonalization in iterative solution of the eigenvalue problem:
     a serial algorithm will be used

 
     G-vector sticks info
     --------------------
     sticks:   dense  smooth     PW     G-vecs:    dense   smooth      PW
     Sum         979     979    301                20395    20395    3383
 
     Using Slab Decomposition
 


     bravais-lattice index     =            2
     lattice parameter (alat)  =      11.9812  a.u.
     unit-cell volume          =     429.9675 (a.u.)^3
     number of atoms/cell      =            2
     number of atomic types    =            1
     number of electrons       =         8.00
     number of Kohn-Sham states=            4
     kinetic-energy cutoff     =      50.0000  Ry
     charge density cutoff     =     200.0000  Ry
     scf convergence threshold =      1.0E-06
     mixing beta               =       0.0100
     number of iterations used =            8  local-TF  mixing
     Exchange-correlation= SLA  PW  SCAN SCAN
                           (   0   0   0   0   0 263 267)

     celldm(1)=  11.981151  celldm(2)=   0.000000  celldm(3)=   0.000000
     celldm(4)=   0.000000  celldm(5)=   0.000000  celldm(6)=   0.000000

     crystal axes: (cart. coord. in units of alat)
               a(1) = (  -0.500000   0.000000   0.500000 )  
               a(2) = (   0.000000   0.500000   0.500000 )  
               a(3) = (  -0.500000   0.500000   0.000000 )  

     reciprocal axes: (cart. coord. in units 2 pi/alat)
               b(1) = ( -1.000000 -1.000000  1.000000 )  
               b(2) = (  1.000000  1.000000  1.000000 )  
               b(3) = ( -1.000000  1.000000 -1.000000 )  


     PseudoPot. # 1 for Ge read from file:
     ~/Documents/TA/PWDFT.jl/pseudopotentials/scan_upf/Ge.SCAN.UPF2
     MD5 check sum: Not computed, couldn't open file
     Pseudo is Norm-conserving, Zval =  4.0
     Generated by new atomic code, or converted to UPF format
     Using radial grid of 1557 points,  2 beta functions with: 
                l(1) =   0
                l(2) =   1

     atomic species   valence    mass     pseudopotential
        Ge             4.00    72.64000     Ge( 1.00)

     48 Sym. Ops., with inversion, found (24 have fractional translation)



   Cartesian axes

     site n.     atom                  positions (alat units)
         1           Ge  tau(   1) = (   0.0000000   0.0000000   0.0000000  )
         2           Ge  tau(   2) = (   0.2500000   0.2500000   0.2500000  )

     number of k points=    47
                       cart. coord. in units 2pi/alat
        k(    1) = (   0.0000000   0.0000000   0.0000000), wk =   0.0020000
        k(    2) = (  -0.1000000   0.1000000  -0.1000000), wk =   0.0160000
        k(    3) = (  -0.2000000   0.2000000  -0.2000000), wk =   0.0160000
        k(    4) = (  -0.3000000   0.3000000  -0.3000000), wk =   0.0160000
        k(    5) = (  -0.4000000   0.4000000  -0.4000000), wk =   0.0160000
        k(    6) = (   0.5000000  -0.5000000   0.5000000), wk =   0.0080000
        k(    7) = (   0.0000000   0.2000000   0.0000000), wk =   0.0120000
        k(    8) = (  -0.1000000   0.3000000  -0.1000000), wk =   0.0480000
        k(    9) = (  -0.2000000   0.4000000  -0.2000000), wk =   0.0480000
        k(   10) = (  -0.3000000   0.5000000  -0.3000000), wk =   0.0480000
        k(   11) = (   0.6000000  -0.4000000   0.6000000), wk =   0.0480000
        k(   12) = (   0.5000000  -0.3000000   0.5000000), wk =   0.0480000
        k(   13) = (   0.4000000  -0.2000000   0.4000000), wk =   0.0480000
        k(   14) = (   0.3000000  -0.1000000   0.3000000), wk =   0.0480000
        k(   15) = (   0.2000000   0.0000000   0.2000000), wk =   0.0240000
        k(   16) = (   0.0000000   0.4000000   0.0000000), wk =   0.0120000
        k(   17) = (  -0.1000000   0.5000000  -0.1000000), wk =   0.0480000
        k(   18) = (  -0.2000000   0.6000000  -0.2000000), wk =   0.0480000
        k(   19) = (   0.7000000  -0.3000000   0.7000000), wk =   0.0480000
        k(   20) = (   0.6000000  -0.2000000   0.6000000), wk =   0.0480000
        k(   21) = (   0.5000000  -0.1000000   0.5000000), wk =   0.0480000
        k(   22) = (   0.4000000   0.0000000   0.4000000), wk =   0.0240000
        k(   23) = (   0.0000000   0.6000000   0.0000000), wk =   0.0120000
        k(   24) = (  -0.1000000   0.7000000  -0.1000000), wk =   0.0480000
        k(   25) = (   0.8000000  -0.2000000   0.8000000), wk =   0.0480000
        k(   26) = (   0.7000000  -0.1000000   0.7000000), wk =   0.0480000
        k(   27) = (   0.6000000  -0.0000000   0.6000000), wk =   0.0240000
        k(   28) = (   0.0000000   0.8000000   0.0000000), wk =   0.0120000
        k(   29) = (   0.9000000  -0.1000000   0.9000000), wk =   0.0480000
        k(   30) = (   0.8000000   0.0000000   0.8000000), wk =   0.0240000
        k(   31) = (   0.0000000  -1.0000000   0.0000000), wk =   0.0060000
        k(   32) = (  -0.2000000   0.4000000   0.0000000), wk =   0.0480000
        k(   33) = (  -0.3000000   0.5000000  -0.1000000), wk =   0.0960000
        k(   34) = (   0.6000000  -0.4000000   0.8000000), wk =   0.0960000
        k(   35) = (   0.5000000  -0.3000000   0.7000000), wk =   0.0480000
        k(   36) = (  -0.2000000   0.6000000   0.0000000), wk =   0.0480000
        k(   37) = (   0.7000000  -0.3000000   0.9000000), wk =   0.0960000
        k(   38) = (   0.6000000  -0.2000000   0.8000000), wk =   0.0960000
        k(   39) = (   0.5000000  -0.1000000   0.7000000), wk =   0.0960000
        k(   40) = (   0.4000000   0.0000000   0.6000000), wk =   0.0480000
        k(   41) = (   0.8000000  -0.2000000   1.0000000), wk =   0.0480000
        k(   42) = (   0.7000000  -0.1000000   0.9000000), wk =   0.0960000
        k(   43) = (   0.6000000   0.0000000   0.8000000), wk =   0.0480000
        k(   44) = (  -0.2000000  -1.0000000   0.0000000), wk =   0.0240000
        k(   45) = (   0.6000000  -0.2000000   1.0000000), wk =   0.0480000
        k(   46) = (   0.5000000  -0.1000000   0.9000000), wk =   0.0480000
        k(   47) = (  -0.4000000  -1.0000000   0.0000000), wk =   0.0240000

     Dense  grid:    20395 G-vectors     FFT dimensions: (  40,  40,  40)

     Estimated max dynamical RAM per process >      38.36 MB

     WARNING: libxc functional with ID  263 depends
      on external parameters: check the user_guide of
      QE if you need to modify them or to check their
      default values.

     Initial potential from superposition of free atoms

     starting charge       7.9987, renormalised to       8.0000
     Starting wfcs are   18 randomized atomic wfcs

     total cpu time spent up to now is       12.2 secs

     Self-consistent Calculation

     iteration #  1     ecut=    50.00 Ry     beta= 0.01
     Davidson diagonalization with overlap
     ethr =  1.00E-02,  avg # of iterations =  1.6

     Threshold (ethr) on eigenvalues was too large:
     Diagonalizing with lowered threshold

     Davidson diagonalization with overlap
     ethr =  2.35E-04,  avg # of iterations =  6.2

     total cpu time spent up to now is       38.2 secs

     total energy              =     -15.72095198 Ry
     estimated scf accuracy    <       0.02470520 Ry

     iteration #  2     ecut=    50.00 Ry     beta= 0.01
     Davidson diagonalization with overlap
     ethr =  3.09E-04,  avg # of iterations =  1.0

     total cpu time spent up to now is       45.9 secs

     total energy              =     -15.72303441 Ry
     estimated scf accuracy    <       0.02477809 Ry

     iteration #  3     ecut=    50.00 Ry     beta= 0.01
     Davidson diagonalization with overlap
     ethr =  3.09E-04,  avg # of iterations =  1.0

     total cpu time spent up to now is       52.8 secs

     total energy              =     -15.76386049 Ry
     estimated scf accuracy    <       0.02844089 Ry

     iteration #  4     ecut=    50.00 Ry     beta= 0.01
     Davidson diagonalization with overlap
     ethr =  3.09E-04,  avg # of iterations =  1.7

     total cpu time spent up to now is       61.3 secs

     total energy              =     -15.76564265 Ry
     estimated scf accuracy    <       0.00216822 Ry

     iteration #  5     ecut=    50.00 Ry     beta= 0.01
     Davidson diagonalization with overlap
     ethr =  2.71E-05,  avg # of iterations =  5.6

     total cpu time spent up to now is       75.9 secs

     total energy              =     -15.76701999 Ry
     estimated scf accuracy    <       0.00286099 Ry

     iteration #  6     ecut=    50.00 Ry     beta= 0.01
     Davidson diagonalization with overlap
     ethr =  2.71E-05,  avg # of iterations =  1.2

     total cpu time spent up to now is       82.6 secs

     total energy              =     -15.76664611 Ry
     estimated scf accuracy    <       0.00292287 Ry

     iteration #  7     ecut=    50.00 Ry     beta= 0.01
     Davidson diagonalization with overlap
     ethr =  2.71E-05,  avg # of iterations =  1.2

     total cpu time spent up to now is       89.4 secs

     total energy              =     -15.76676622 Ry
     estimated scf accuracy    <       0.00022786 Ry

     iteration #  8     ecut=    50.00 Ry     beta= 0.01
     Davidson diagonalization with overlap
     ethr =  2.85E-06,  avg # of iterations =  8.2

     total cpu time spent up to now is      106.9 secs

     total energy              =     -15.76707068 Ry
     estimated scf accuracy    <       0.00022203 Ry

     iteration #  9     ecut=    50.00 Ry     beta= 0.01
     Davidson diagonalization with overlap
     ethr =  2.78E-06,  avg # of iterations =  2.2

     total cpu time spent up to now is      115.3 secs

     total energy              =     -15.76706882 Ry
     estimated scf accuracy    <       0.00012479 Ry

     iteration # 10     ecut=    50.00 Ry     beta= 0.01
     Davidson diagonalization with overlap
     ethr =  1.56E-06,  avg # of iterations =  4.1

     total cpu time spent up to now is      125.4 secs

     total energy              =     -15.76709897 Ry
     estimated scf accuracy    <       0.00001815 Ry

     iteration # 11     ecut=    50.00 Ry     beta= 0.01
     Davidson diagonalization with overlap
     ethr =  2.27E-07,  avg # of iterations =  9.8

     total cpu time spent up to now is      145.9 secs

     total energy              =     -15.76714373 Ry
     estimated scf accuracy    <       0.00002366 Ry

     iteration # 12     ecut=    50.00 Ry     beta= 0.01
     Davidson diagonalization with overlap
     ethr =  2.27E-07,  avg # of iterations =  1.6

     total cpu time spent up to now is      151.5 secs

     total energy              =     -15.76715015 Ry
     estimated scf accuracy    <       0.00002480 Ry

     iteration # 13     ecut=    50.00 Ry     beta= 0.01
     Davidson diagonalization with overlap
     ethr =  2.27E-07,  avg # of iterations =  1.0

     total cpu time spent up to now is      156.0 secs

     total energy              =     -15.76714244 Ry
     estimated scf accuracy    <       0.00000903 Ry

     iteration # 14     ecut=    50.00 Ry     beta= 0.01
     Davidson diagonalization with overlap
     ethr =  1.13E-07,  avg # of iterations =  3.1

     total cpu time spent up to now is      163.8 secs

     End of self-consistent calculation

          k = 0.0000 0.0000 0.0000 (  2637 PWs)   bands (ev):

    -8.3657   0.1217   2.5850   2.5850

          k =-0.1000 0.1000-0.1000 (  2604 PWs)   bands (ev):

    -8.2762  -0.4649   2.4398   2.4398

          k =-0.2000 0.2000-0.2000 (  2577 PWs)   bands (ev):

    -8.0153  -1.6082   2.1390   2.1390

          k =-0.3000 0.3000-0.3000 (  2569 PWs)   bands (ev):

    -7.6140  -2.7765   1.8552   1.8552

          k =-0.4000 0.4000-0.4000 (  2560 PWs)   bands (ev):

    -7.1667  -3.7199   1.6669   1.6669

          k = 0.5000-0.5000 0.5000 (  2536 PWs)   bands (ev):

    -6.9349  -4.1219   1.6019   1.6019

          k = 0.0000 0.2000 0.0000 (  2593 PWs)   bands (ev):

    -8.2459  -0.5957   2.1966   2.1966

          k =-0.1000 0.3000-0.1000 (  2594 PWs)   bands (ev):

    -8.0403  -1.4510   1.8283   1.8673

          k =-0.2000 0.4000-0.2000 (  2573 PWs)   bands (ev):

    -7.6799  -2.5325   1.3908   1.5992

          k =-0.3000 0.5000-0.3000 (  2560 PWs)   bands (ev):

    -7.2284  -3.5237   1.0272   1.4537

          k = 0.6000-0.4000 0.6000 (  2553 PWs)   bands (ev):

    -6.8802  -4.1315   0.8089   1.4492

          k = 0.5000-0.3000 0.5000 (  2566 PWs)   bands (ev):

    -6.9651  -3.9927   0.7619   1.5825

          k = 0.4000-0.2000 0.4000 (  2568 PWs)   bands (ev):

    -7.3842  -3.2145   0.9011   1.8321

          k = 0.3000-0.1000 0.3000 (  2589 PWs)   bands (ev):

    -7.8170  -2.1723   1.2416   2.1467

          k = 0.2000 0.0000 0.2000 (  2597 PWs)   bands (ev):

    -8.1289  -1.1402   1.7947   2.4111

          k = 0.0000 0.4000 0.0000 (  2593 PWs)   bands (ev):

    -7.8898  -1.8637   1.5216   1.5216

          k =-0.1000 0.5000-0.1000 (  2573 PWs)   bands (ev):

    -7.5759  -2.6576   1.0785   1.2452

          k =-0.2000 0.6000-0.2000 (  2561 PWs)   bands (ev):

    -7.1395  -3.5349   0.5503   1.1015

          k = 0.7000-0.3000 0.7000 (  2562 PWs)   bands (ev):

    -6.7136  -4.2252   0.1524   1.1111

          k = 0.6000-0.2000 0.6000 (  2572 PWs)   bands (ev):

    -6.6413  -4.3297  -0.0268   1.2704

          k = 0.5000-0.1000 0.5000 (  2570 PWs)   bands (ev):

    -7.0112  -3.7633   0.0617   1.5521

          k = 0.4000 0.0000 0.4000 (  2565 PWs)   bands (ev):

    -7.4636  -2.9480   0.4725   1.8903

          k = 0.0000 0.6000 0.0000 (  2562 PWs)   bands (ev):

    -7.3072  -3.1709   0.9480   0.9480

          k =-0.1000 0.7000-0.1000 (  2574 PWs)   bands (ev):

    -6.8982  -3.8643   0.5301   0.7814

          k = 0.8000-0.2000 0.8000 (  2564 PWs)   bands (ev):

    -6.4307  -4.5193  -0.0030   0.7723

          k = 0.7000-0.1000 0.7000 (  2573 PWs)   bands (ev):

    -6.2207  -4.7759  -0.3473   0.9209

          k = 0.6000-0.0000 0.6000 (  2570 PWs)   bands (ev):

    -6.5522  -4.3675  -0.3542   1.2025

          k = 0.0000 0.8000 0.0000 (  2554 PWs)   bands (ev):

    -6.5155  -4.4121   0.5822   0.5822

          k = 0.9000-0.1000 0.9000 (  2551 PWs)   bands (ev):

    -6.0334  -5.0004   0.2462   0.5392

          k = 0.8000 0.0000 0.8000 (  2562 PWs)   bands (ev):

    -5.7967  -5.2444  -0.1946   0.6584

          k = 0.0000-1.0000 0.0000 (  2538 PWs)   bands (ev):

    -5.5396  -5.5396   0.4575   0.4575

          k =-0.2000 0.4000 0.0000 (  2576 PWs)   bands (ev):

    -7.7817  -2.2025   1.1203   1.7736

          k =-0.3000 0.5000-0.1000 (  2569 PWs)   bands (ev):

    -7.3813  -3.1153   0.5931   1.5229

          k = 0.6000-0.4000 0.8000 (  2559 PWs)   bands (ev):

    -6.9273  -3.9358   0.2922   1.3015

          k = 0.5000-0.3000 0.7000 (  2560 PWs)   bands (ev):

    -6.6848  -4.3096   0.1959   1.2181

          k =-0.2000 0.6000 0.0000 (  2566 PWs)   bands (ev):

    -7.2166  -3.3528   0.5804   1.0468

          k = 0.7000-0.3000 0.9000 (  2569 PWs)   bands (ev):

    -6.7575  -4.0861   0.1217   0.8482

          k = 0.6000-0.2000 0.8000 (  2572 PWs)   bands (ev):

    -6.3892  -4.5870  -0.1798   0.8127

          k = 0.5000-0.1000 0.7000 (  2565 PWs)   bands (ev):

    -6.5091  -4.4309  -0.2417   0.9651

          k = 0.4000 0.0000 0.6000 (  2565 PWs)   bands (ev):

    -6.9548  -3.8048   0.0035   1.2492

          k = 0.8000-0.2000 1.0000 (  2562 PWs)   bands (ev):

    -6.4550  -4.4794   0.2826   0.5215

          k = 0.7000-0.1000 0.9000 (  2571 PWs)   bands (ev):

    -6.0006  -5.0129  -0.1154   0.4594

          k = 0.6000 0.0000 0.8000 (  2568 PWs)   bands (ev):

    -6.0553  -4.9458  -0.3633   0.6400

          k =-0.2000-1.0000 0.0000 (  2566 PWs)   bands (ev):

    -5.5289  -5.5289   0.2608   0.2608

          k = 0.6000-0.2000 1.0000 (  2563 PWs)   bands (ev):

    -6.2886  -4.6710  -0.1680   0.5046

          k = 0.5000-0.1000 0.9000 (  2556 PWs)   bands (ev):

    -5.9793  -5.0219  -0.2541   0.3474

          k =-0.4000-1.0000 0.0000 (  2560 PWs)   bands (ev):

    -5.5112  -5.5112   0.0008   0.0008

     highest occupied level (ev):     2.5850

!    total energy              =     -15.76714439 Ry
     estimated scf accuracy    <       0.00000088 Ry

     The total energy is the sum of the following terms:
     one-electron contribution =       1.44251428 Ry
     hartree contribution      =       1.54699127 Ry
     xc contribution           =      -4.36925596 Ry
     ewald contribution        =     -14.38739398 Ry

     convergence has been achieved in  14 iterations
     Writing meta-gga kinetic term

     Writing all to output data dir ./input_pw/Ge/9/pwscf.save/
     Writing meta-gga kinetic term
 
     init_run     :      6.07s CPU     12.18s WALL (       1 calls)
     electrons    :     86.77s CPU    151.52s WALL (       1 calls)

     Called by init_run:
     wfcinit      :      5.92s CPU     11.92s WALL (       1 calls)
     potinit      :      0.05s CPU      0.14s WALL (       1 calls)
     hinit0       :      0.07s CPU      0.09s WALL (       1 calls)

     Called by electrons:
     c_bands      :     73.21s CPU    127.85s WALL (      15 calls)
     sum_band     :     12.19s CPU     21.17s WALL (      15 calls)
     v_of_rho     :      0.72s CPU      1.37s WALL (      15 calls)
     mix_rho      :      0.67s CPU      1.18s WALL (      15 calls)

     Called by c_bands:
     init_us_2    :      0.51s CPU      0.85s WALL (    1457 calls)
     init_us_2:cp :      0.50s CPU      0.84s WALL (    1457 calls)
     cegterg      :     72.59s CPU    126.88s WALL (     705 calls)

     Called by *egterg:
     cdiaghg      :      0.27s CPU      0.52s WALL (    2986 calls)
     h_psi        :     76.71s CPU    135.54s WALL (    3080 calls)
     g_psi        :      0.07s CPU      0.18s WALL (    2328 calls)

     Called by h_psi:
     h_psi:calbec :      0.40s CPU      0.69s WALL (    3080 calls)
     vloc_psi     :     19.02s CPU     33.42s WALL (    3080 calls)
     add_vuspsi   :      0.29s CPU      0.48s WALL (    3080 calls)
     h_psi_meta   :     56.87s CPU    100.78s WALL (    3080 calls)

     General routines
     calbec       :      0.39s CPU      0.68s WALL (    3080 calls)
     fft          :      0.14s CPU      0.27s WALL (     179 calls)
     ffts         :      0.21s CPU      0.43s WALL (     263 calls)
     fftw         :     70.35s CPU    124.83s WALL (   94816 calls)
     interpolate  :      0.00s CPU      0.00s WALL (      15 calls)
 
     Parallel routines
 
     PWSCF        :   1m32.90s CPU   2m43.81s WALL

 
   This run was terminated on:  11:48:34  29Mar2023            

=------------------------------------------------------------------------------=
   JOB DONE.
=------------------------------------------------------------------------------=
