
     Program PWSCF v.7.0 starts on 14Mar2023 at 11:36:59 

     This program is part of the open-source Quantum ESPRESSO suite
     for quantum simulation of materials; please cite
         "P. Giannozzi et al., J. Phys.:Condens. Matter 21 395502 (2009);
         "P. Giannozzi et al., J. Phys.:Condens. Matter 29 465901 (2017);
         "P. Giannozzi et al., J. Chem. Phys. 152 154105 (2020);
          URL http://www.quantum-espresso.org", 
     in publications or presentations arising from this work. More details at
     http://www.quantum-espresso.org/quote

     Parallel version (MPI), running on     1 processors

     MPI processes distributed on     1 nodes
     27534 MiB available memory on the printing compute node when the environment starts
 
     Waiting for input...
     Reading input from standard input
Warning: card &CELL ignored
Warning: card / ignored

     Current dimensions of program PWSCF are:
     Max number of different atomic species (ntypx) = 10
     Max number of k-points (npk) =  40000
     Max angular momentum in pseudopotentials (lmaxx) =  4
     file Ge.SCAN.UPF2: wavefunction(s)  0D renormalized

     WARNING: the MGGA functional with ID    5 has been 
     read together with other dft terms, but it should 
     stand alone in order to work properly. The other 
     terms will be ignored.

     Subspace diagonalization in iterative solution of the eigenvalue problem:
     a serial algorithm will be used

 
     G-vector sticks info
     --------------------
     sticks:   dense  smooth     PW     G-vecs:    dense   smooth      PW
     Sum        1027    1027    313                21595    21595    3527
 
     Using Slab Decomposition
 


     bravais-lattice index     =            2
     lattice parameter (alat)  =      12.1804  a.u.
     unit-cell volume          =     451.7776 (a.u.)^3
     number of atoms/cell      =            2
     number of atomic types    =            1
     number of electrons       =         8.00
     number of Kohn-Sham states=            4
     kinetic-energy cutoff     =      50.0000  Ry
     charge density cutoff     =     200.0000  Ry
     scf convergence threshold =      1.0E-06
     mixing beta               =       0.0100
     number of iterations used =            8  local-TF  mixing
     Exchange-correlation= SLA  PW  SCAN SCAN
                           (   0   0   0   0   0 263 267)

     celldm(1)=  12.180400  celldm(2)=   0.000000  celldm(3)=   0.000000
     celldm(4)=   0.000000  celldm(5)=   0.000000  celldm(6)=   0.000000

     crystal axes: (cart. coord. in units of alat)
               a(1) = (  -0.500000   0.000000   0.500000 )  
               a(2) = (   0.000000   0.500000   0.500000 )  
               a(3) = (  -0.500000   0.500000   0.000000 )  

     reciprocal axes: (cart. coord. in units 2 pi/alat)
               b(1) = ( -1.000000 -1.000000  1.000000 )  
               b(2) = (  1.000000  1.000000  1.000000 )  
               b(3) = ( -1.000000  1.000000 -1.000000 )  


     PseudoPot. # 1 for Ge read from file:
     ~/Documents/TA/PWDFT.jl/pseudopotentials/scan_upf/Ge.SCAN.UPF2
     MD5 check sum: Not computed, couldn't open file
     Pseudo is Norm-conserving, Zval =  4.0
     Generated by new atomic code, or converted to UPF format
     Using radial grid of 1557 points,  2 beta functions with: 
                l(1) =   0
                l(2) =   1

     atomic species   valence    mass     pseudopotential
        Ge             4.00    72.64000     Ge( 1.00)

     48 Sym. Ops., with inversion, found (24 have fractional translation)



   Cartesian axes

     site n.     atom                  positions (alat units)
         1           Ge  tau(   1) = (   0.0000000   0.0000000   0.0000000  )
         2           Ge  tau(   2) = (   0.2500000   0.2500000   0.2500000  )

     number of k points=    47
                       cart. coord. in units 2pi/alat
        k(    1) = (   0.0000000   0.0000000   0.0000000), wk =   0.0020000
        k(    2) = (  -0.1000000   0.1000000  -0.1000000), wk =   0.0160000
        k(    3) = (  -0.2000000   0.2000000  -0.2000000), wk =   0.0160000
        k(    4) = (  -0.3000000   0.3000000  -0.3000000), wk =   0.0160000
        k(    5) = (  -0.4000000   0.4000000  -0.4000000), wk =   0.0160000
        k(    6) = (   0.5000000  -0.5000000   0.5000000), wk =   0.0080000
        k(    7) = (   0.0000000   0.2000000   0.0000000), wk =   0.0120000
        k(    8) = (  -0.1000000   0.3000000  -0.1000000), wk =   0.0480000
        k(    9) = (  -0.2000000   0.4000000  -0.2000000), wk =   0.0480000
        k(   10) = (  -0.3000000   0.5000000  -0.3000000), wk =   0.0480000
        k(   11) = (   0.6000000  -0.4000000   0.6000000), wk =   0.0480000
        k(   12) = (   0.5000000  -0.3000000   0.5000000), wk =   0.0480000
        k(   13) = (   0.4000000  -0.2000000   0.4000000), wk =   0.0480000
        k(   14) = (   0.3000000  -0.1000000   0.3000000), wk =   0.0480000
        k(   15) = (   0.2000000   0.0000000   0.2000000), wk =   0.0240000
        k(   16) = (   0.0000000   0.4000000   0.0000000), wk =   0.0120000
        k(   17) = (  -0.1000000   0.5000000  -0.1000000), wk =   0.0480000
        k(   18) = (  -0.2000000   0.6000000  -0.2000000), wk =   0.0480000
        k(   19) = (   0.7000000  -0.3000000   0.7000000), wk =   0.0480000
        k(   20) = (   0.6000000  -0.2000000   0.6000000), wk =   0.0480000
        k(   21) = (   0.5000000  -0.1000000   0.5000000), wk =   0.0480000
        k(   22) = (   0.4000000   0.0000000   0.4000000), wk =   0.0240000
        k(   23) = (   0.0000000   0.6000000   0.0000000), wk =   0.0120000
        k(   24) = (  -0.1000000   0.7000000  -0.1000000), wk =   0.0480000
        k(   25) = (   0.8000000  -0.2000000   0.8000000), wk =   0.0480000
        k(   26) = (   0.7000000  -0.1000000   0.7000000), wk =   0.0480000
        k(   27) = (   0.6000000  -0.0000000   0.6000000), wk =   0.0240000
        k(   28) = (   0.0000000   0.8000000   0.0000000), wk =   0.0120000
        k(   29) = (   0.9000000  -0.1000000   0.9000000), wk =   0.0480000
        k(   30) = (   0.8000000   0.0000000   0.8000000), wk =   0.0240000
        k(   31) = (   0.0000000  -1.0000000   0.0000000), wk =   0.0060000
        k(   32) = (  -0.2000000   0.4000000   0.0000000), wk =   0.0480000
        k(   33) = (  -0.3000000   0.5000000  -0.1000000), wk =   0.0960000
        k(   34) = (   0.6000000  -0.4000000   0.8000000), wk =   0.0960000
        k(   35) = (   0.5000000  -0.3000000   0.7000000), wk =   0.0480000
        k(   36) = (  -0.2000000   0.6000000   0.0000000), wk =   0.0480000
        k(   37) = (   0.7000000  -0.3000000   0.9000000), wk =   0.0960000
        k(   38) = (   0.6000000  -0.2000000   0.8000000), wk =   0.0960000
        k(   39) = (   0.5000000  -0.1000000   0.7000000), wk =   0.0960000
        k(   40) = (   0.4000000   0.0000000   0.6000000), wk =   0.0480000
        k(   41) = (   0.8000000  -0.2000000   1.0000000), wk =   0.0480000
        k(   42) = (   0.7000000  -0.1000000   0.9000000), wk =   0.0960000
        k(   43) = (   0.6000000   0.0000000   0.8000000), wk =   0.0480000
        k(   44) = (  -0.2000000  -1.0000000   0.0000000), wk =   0.0240000
        k(   45) = (   0.6000000  -0.2000000   1.0000000), wk =   0.0480000
        k(   46) = (   0.5000000  -0.1000000   0.9000000), wk =   0.0480000
        k(   47) = (  -0.4000000  -1.0000000   0.0000000), wk =   0.0240000

     Dense  grid:    21595 G-vectors     FFT dimensions: (  40,  40,  40)

     Estimated max dynamical RAM per process >      40.12 MB

     WARNING: libxc functional with ID  263 depends
      on external parameters: check the user_guide of
      QE if you need to modify them or to check their
      default values.

     Initial potential from superposition of free atoms

     starting charge       7.9987, renormalised to       8.0000
     Starting wfcs are   18 randomized atomic wfcs

     total cpu time spent up to now is       11.2 secs

     Self-consistent Calculation

     iteration #  1     ecut=    50.00 Ry     beta= 0.01
     Davidson diagonalization with overlap
     ethr =  1.00E-02,  avg # of iterations =  1.5

     Threshold (ethr) on eigenvalues was too large:
     Diagonalizing with lowered threshold

     Davidson diagonalization with overlap
     ethr =  2.23E-04,  avg # of iterations =  6.4

     total cpu time spent up to now is       34.9 secs

     total energy              =     -15.70908248 Ry
     estimated scf accuracy    <       0.02352158 Ry

     iteration #  2     ecut=    50.00 Ry     beta= 0.01
     Davidson diagonalization with overlap
     ethr =  2.94E-04,  avg # of iterations =  1.0

     total cpu time spent up to now is       40.6 secs

     total energy              =     -15.70980252 Ry
     estimated scf accuracy    <       0.02357206 Ry

     iteration #  3     ecut=    50.00 Ry     beta= 0.01
     Davidson diagonalization with overlap
     ethr =  2.94E-04,  avg # of iterations =  1.0

     total cpu time spent up to now is       47.3 secs

     total energy              =     -15.74823191 Ry
     estimated scf accuracy    <       0.02648214 Ry

     iteration #  4     ecut=    50.00 Ry     beta= 0.01
     Davidson diagonalization with overlap
     ethr =  2.94E-04,  avg # of iterations =  1.6

     total cpu time spent up to now is       53.8 secs

     total energy              =     -15.74977471 Ry
     estimated scf accuracy    <       0.00185485 Ry

     iteration #  5     ecut=    50.00 Ry     beta= 0.01
     Davidson diagonalization with overlap
     ethr =  2.32E-05,  avg # of iterations =  5.9

     total cpu time spent up to now is       66.0 secs

     total energy              =     -15.75121280 Ry
     estimated scf accuracy    <       0.00269578 Ry

     iteration #  6     ecut=    50.00 Ry     beta= 0.01
     Davidson diagonalization with overlap
     ethr =  2.32E-05,  avg # of iterations =  1.2

     total cpu time spent up to now is       71.6 secs

     total energy              =     -15.75093300 Ry
     estimated scf accuracy    <       0.00275735 Ry

     iteration #  7     ecut=    50.00 Ry     beta= 0.01
     Davidson diagonalization with overlap
     ethr =  2.32E-05,  avg # of iterations =  1.6

     total cpu time spent up to now is       77.9 secs

     total energy              =     -15.75108552 Ry
     estimated scf accuracy    <       0.00016523 Ry

     iteration #  8     ecut=    50.00 Ry     beta= 0.01
     Davidson diagonalization with overlap
     ethr =  2.07E-06,  avg # of iterations =  9.0

     total cpu time spent up to now is       94.4 secs

     total energy              =     -15.75136638 Ry
     estimated scf accuracy    <       0.00014140 Ry

     iteration #  9     ecut=    50.00 Ry     beta= 0.01
     Davidson diagonalization with overlap
     ethr =  1.77E-06,  avg # of iterations =  2.3

     total cpu time spent up to now is      100.3 secs

     total energy              =     -15.75138980 Ry
     estimated scf accuracy    <       0.00012564 Ry

     iteration # 10     ecut=    50.00 Ry     beta= 0.01
     Davidson diagonalization with overlap
     ethr =  1.57E-06,  avg # of iterations =  1.7

     total cpu time spent up to now is      105.9 secs

     total energy              =     -15.75127389 Ry
     estimated scf accuracy    <       0.00007940 Ry

     iteration # 11     ecut=    50.00 Ry     beta= 0.01
     Davidson diagonalization with overlap
     ethr =  9.92E-07,  avg # of iterations =  6.9

     total cpu time spent up to now is      117.3 secs

     total energy              =     -15.75137590 Ry
     estimated scf accuracy    <       0.00004708 Ry

     iteration # 12     ecut=    50.00 Ry     beta= 0.01
     Davidson diagonalization with overlap
     ethr =  5.88E-07,  avg # of iterations =  3.3

     total cpu time spent up to now is      123.5 secs

     total energy              =     -15.75139141 Ry
     estimated scf accuracy    <       0.00005524 Ry

     iteration # 13     ecut=    50.00 Ry     beta= 0.01
     Davidson diagonalization with overlap
     ethr =  5.88E-07,  avg # of iterations =  1.1

     total cpu time spent up to now is      127.8 secs

     total energy              =     -15.75140383 Ry
     estimated scf accuracy    <       0.00004630 Ry

     iteration # 14     ecut=    50.00 Ry     beta= 0.01
     Davidson diagonalization with overlap
     ethr =  5.79E-07,  avg # of iterations =  2.4

     total cpu time spent up to now is      132.8 secs

     total energy              =     -15.75141197 Ry
     estimated scf accuracy    <       0.00000111 Ry

     iteration # 15     ecut=    50.00 Ry     beta= 0.01
     Davidson diagonalization with overlap
     c_bands:  1 eigenvalues not converged
     c_bands:  1 eigenvalues not converged
     c_bands:  1 eigenvalues not converged
     c_bands:  1 eigenvalues not converged
     ethr =  1.39E-08,  avg # of iterations = 13.1

     total cpu time spent up to now is      143.3 secs

     total energy              =     -15.75142211 Ry
     estimated scf accuracy    <       0.00000210 Ry

     iteration # 16     ecut=    50.00 Ry     beta= 0.01
     Davidson diagonalization with overlap
     c_bands:  1 eigenvalues not converged
     ethr =  1.39E-08,  avg # of iterations =  7.1

     total cpu time spent up to now is      147.6 secs

     End of self-consistent calculation

          k = 0.0000 0.0000 0.0000 (  2733 PWs)   bands (ev):

    -8.4776  -0.5932   2.2382   2.2382

          k =-0.1000 0.1000-0.1000 (  2704 PWs)   bands (ev):

    -8.3927  -1.0799   2.1021   2.1021

          k =-0.2000 0.2000-0.2000 (  2707 PWs)   bands (ev):

    -8.1454  -2.0925   1.8179   1.8179

          k =-0.3000 0.3000-0.3000 (  2692 PWs)   bands (ev):

    -7.7662  -3.1626   1.5481   1.5481

          k =-0.4000 0.4000-0.4000 (  2701 PWs)   bands (ev):

    -7.3463  -4.0362   1.3684   1.3684

          k = 0.5000-0.5000 0.5000 (  2692 PWs)   bands (ev):

    -7.1306  -4.4085   1.3062   1.3062

          k = 0.0000 0.2000 0.0000 (  2701 PWs)   bands (ev):

    -8.3639  -1.1993   1.8756   1.8756

          k =-0.1000 0.3000-0.1000 (  2708 PWs)   bands (ev):

    -8.1689  -1.9616   1.5204   1.5646

          k =-0.2000 0.4000-0.2000 (  2699 PWs)   bands (ev):

    -7.8279  -2.9487   1.0947   1.3092

          k =-0.3000 0.5000-0.3000 (  2695 PWs)   bands (ev):

    -7.4028  -3.8647   0.7419   1.1692

          k = 0.6000-0.4000 0.6000 (  2706 PWs)   bands (ev):

    -7.0779  -4.4275   0.5327   1.1633

          k = 0.5000-0.3000 0.5000 (  2700 PWs)   bands (ev):

    -7.1569  -4.2991   0.4923   1.2886

          k = 0.4000-0.2000 0.4000 (  2707 PWs)   bands (ev):

    -7.5493  -3.5781   0.6341   1.5246

          k = 0.3000-0.1000 0.3000 (  2700 PWs)   bands (ev):

    -7.9576  -2.6168   0.9693   1.8223

          k = 0.2000 0.0000 0.2000 (  2711 PWs)   bands (ev):

    -8.2529  -1.6777   1.4988   2.0725

          k = 0.0000 0.4000 0.0000 (  2694 PWs)   bands (ev):

    -8.0260  -2.3499   1.2382   1.2382

          k =-0.1000 0.5000-0.1000 (  2700 PWs)   bands (ev):

    -7.7286  -3.0839   0.8158   0.9753

          k =-0.2000 0.6000-0.2000 (  2716 PWs)   bands (ev):

    -7.3167  -3.8979   0.3108   0.8374

          k = 0.7000-0.3000 0.7000 (  2702 PWs)   bands (ev):

    -6.9175  -4.5390  -0.0690   0.8451

          k = 0.6000-0.2000 0.6000 (  2688 PWs)   bands (ev):

    -6.8507  -4.6351  -0.2366   0.9949

          k = 0.5000-0.1000 0.5000 (  2692 PWs)   bands (ev):

    -7.1970  -4.1081  -0.1462   1.2609

          k = 0.4000 0.0000 0.4000 (  2696 PWs)   bands (ev):

    -7.6233  -3.3458   0.2476   1.5801

          k = 0.0000 0.6000 0.0000 (  2702 PWs)   bands (ev):

    -7.4736  -3.5691   0.6932   0.6932

          k =-0.1000 0.7000-0.1000 (  2700 PWs)   bands (ev):

    -7.0867  -4.2194   0.2988   0.5342

          k = 0.8000-0.2000 0.8000 (  2690 PWs)   bands (ev):

    -6.6467  -4.8336  -0.2032   0.5246

          k = 0.7000-0.1000 0.7000 (  2695 PWs)   bands (ev):

    -6.4519  -5.0720  -0.5266   0.6648

          k = 0.6000-0.0000 0.6000 (  2690 PWs)   bands (ev):

    -6.7641  -4.6856  -0.5327   0.9310

          k = 0.0000 0.8000 0.0000 (  2714 PWs)   bands (ev):

    -6.7238  -4.7367   0.3447   0.3447

          k = 0.9000-0.1000 0.9000 (  2700 PWs)   bands (ev):

    -6.2685  -5.2917   0.0306   0.3035

          k = 0.8000 0.0000 0.8000 (  2684 PWs)   bands (ev):

    -6.0491  -5.5194  -0.3810   0.4163

          k = 0.0000-1.0000 0.0000 (  2698 PWs)   bands (ev):

    -5.8009  -5.8009   0.2258   0.2258

          k =-0.2000 0.4000 0.0000 (  2692 PWs)   bands (ev):

    -7.9238  -2.6551   0.8607   1.4687

          k =-0.3000 0.5000-0.1000 (  2701 PWs)   bands (ev):

    -7.5454  -3.5015   0.3557   1.2328

          k = 0.6000-0.4000 0.8000 (  2700 PWs)   bands (ev):

    -7.1187  -4.2634   0.0614   1.0252

          k = 0.5000-0.3000 0.7000 (  2692 PWs)   bands (ev):

    -6.8926  -4.6097  -0.0340   0.9472

          k =-0.2000 0.6000 0.0000 (  2700 PWs)   bands (ev):

    -7.3885  -3.7358   0.3479   0.7859

          k = 0.7000-0.3000 0.9000 (  2699 PWs)   bands (ev):

    -6.9556  -4.4231  -0.0874   0.5996

          k = 0.6000-0.2000 0.8000 (  2691 PWs)   bands (ev):

    -6.6110  -4.8906  -0.3733   0.5663

          k = 0.5000-0.1000 0.7000 (  2692 PWs)   bands (ev):

    -6.7237  -4.7440  -0.4297   0.7096

          k = 0.4000 0.0000 0.6000 (  2699 PWs)   bands (ev):

    -7.1427  -4.1553  -0.1963   0.9764

          k = 0.8000-0.2000 1.0000 (  2705 PWs)   bands (ev):

    -6.6678  -4.7998   0.0650   0.2911

          k = 0.7000-0.1000 0.9000 (  2689 PWs)   bands (ev):

    -6.2404  -5.3029  -0.3070   0.2326

          k = 0.6000 0.0000 0.8000 (  2688 PWs)   bands (ev):

    -6.2948  -5.2368  -0.5395   0.4030

          k =-0.2000-1.0000 0.0000 (  2696 PWs)   bands (ev):

    -5.7919  -5.7919   0.0444   0.0444

          k = 0.6000-0.2000 1.0000 (  2695 PWs)   bands (ev):

    -6.5133  -4.9791  -0.3571   0.2780

          k = 0.5000-0.1000 0.9000 (  2704 PWs)   bands (ev):

    -6.2224  -5.3108  -0.4374   0.1304

          k =-0.4000-1.0000 0.0000 (  2704 PWs)   bands (ev):

    -5.7773  -5.7773  -0.1963  -0.1963

     highest occupied level (ev):     2.2382

!    total energy              =     -15.75142282 Ry
     estimated scf accuracy    <       0.00000034 Ry

     The total energy is the sum of the following terms:
     one-electron contribution =       1.12931293 Ry
     hartree contribution      =       1.60379471 Ry
     xc contribution           =      -4.33248801 Ry
     ewald contribution        =     -14.15204244 Ry

     convergence has been achieved in  16 iterations
     Writing meta-gga kinetic term

     Writing all to output data dir ./input_pw/Ge/9/pwscf.save/
     Writing meta-gga kinetic term
 
     init_run     :      5.87s CPU     10.86s WALL (       1 calls)
     electrons    :     96.27s CPU    136.40s WALL (       1 calls)

     Called by init_run:
     wfcinit      :      5.73s CPU     10.32s WALL (       1 calls)
     potinit      :      0.05s CPU      0.12s WALL (       1 calls)
     hinit0       :      0.07s CPU      0.31s WALL (       1 calls)

     Called by electrons:
     c_bands      :     82.54s CPU    115.85s WALL (      17 calls)
     sum_band     :     12.28s CPU     18.43s WALL (      17 calls)
     v_of_rho     :      0.74s CPU      1.13s WALL (      17 calls)
     mix_rho      :      0.71s CPU      1.02s WALL (      17 calls)

     Called by c_bands:
     init_us_2    :      0.55s CPU      0.89s WALL (    1645 calls)
     init_us_2:cp :      0.55s CPU      0.88s WALL (    1645 calls)
     cegterg      :     81.86s CPU    114.83s WALL (     799 calls)

     Called by *egterg:
     cdiaghg      :      0.30s CPU      0.51s WALL (    3901 calls)
     h_psi        :     85.54s CPU    122.32s WALL (    3995 calls)
     g_psi        :      0.08s CPU      0.09s WALL (    3149 calls)

     Called by h_psi:
     h_psi:calbec :      0.44s CPU      0.62s WALL (    3995 calls)
     vloc_psi     :     21.16s CPU     30.19s WALL (    3995 calls)
     add_vuspsi   :      0.32s CPU      0.45s WALL (    3995 calls)
     h_psi_meta   :     63.48s CPU     90.85s WALL (    3995 calls)

     General routines
     calbec       :      0.42s CPU      0.58s WALL (    3995 calls)
     fft          :      0.15s CPU      0.31s WALL (     203 calls)
     ffts         :      0.22s CPU      0.32s WALL (     309 calls)
     fftw         :     78.58s CPU    113.36s WALL (  117488 calls)
     interpolate  :      0.00s CPU      0.00s WALL (      17 calls)
 
     Parallel routines
 
     PWSCF        :   1m42.18s CPU   2m27.58s WALL

 
   This run was terminated on:  11:39:26  14Mar2023            

=------------------------------------------------------------------------------=
   JOB DONE.
=------------------------------------------------------------------------------=
