
     Program PWSCF v.7.0 starts on  7Jul2023 at 14:25:49 

     This program is part of the open-source Quantum ESPRESSO suite
     for quantum simulation of materials; please cite
         "P. Giannozzi et al., J. Phys.:Condens. Matter 21 395502 (2009);
         "P. Giannozzi et al., J. Phys.:Condens. Matter 29 465901 (2017);
         "P. Giannozzi et al., J. Chem. Phys. 152 154105 (2020);
          URL http://www.quantum-espresso.org", 
     in publications or presentations arising from this work. More details at
     http://www.quantum-espresso.org/quote

     Parallel version (MPI), running on     1 processors

     MPI processes distributed on     1 nodes
     26754 MiB available memory on the printing compute node when the environment starts
 
     Waiting for input...
     Reading input from standard input
Warning: card &CELL ignored
Warning: card / ignored

     Current dimensions of program PWSCF are:
     Max number of different atomic species (ntypx) = 10
     Max number of k-points (npk) =  40000
     Max angular momentum in pseudopotentials (lmaxx) =  4
     file Ge.SCAN.UPF2: wavefunction(s)  0D renormalized

     WARNING: the MGGA functional with ID    5 has been 
     read together with other dft terms, but it should 
     stand alone in order to work properly. The other 
     terms will be ignored.

     Subspace diagonalization in iterative solution of the eigenvalue problem:
     a serial algorithm will be used

 
     G-vector sticks info
     --------------------
     sticks:   dense  smooth     PW     G-vecs:    dense   smooth      PW
     Sum         979     979    301                20395    20395    3383
 
     Using Slab Decomposition
 


     bravais-lattice index     =            2
     lattice parameter (alat)  =      11.9812  a.u.
     unit-cell volume          =     429.9675 (a.u.)^3
     number of atoms/cell      =            2
     number of atomic types    =            1
     number of electrons       =         8.00
     number of Kohn-Sham states=            4
     kinetic-energy cutoff     =      50.0000  Ry
     charge density cutoff     =     200.0000  Ry
     scf convergence threshold =      2.0E-05
     mixing beta               =       0.2000
     number of iterations used =            8  local-TF  mixing
     Exchange-correlation= SLA  PW  SCAN SCAN
                           (   0   0   0   0   0 263 267)

     celldm(1)=  11.981151  celldm(2)=   0.000000  celldm(3)=   0.000000
     celldm(4)=   0.000000  celldm(5)=   0.000000  celldm(6)=   0.000000

     crystal axes: (cart. coord. in units of alat)
               a(1) = (  -0.500000   0.000000   0.500000 )  
               a(2) = (   0.000000   0.500000   0.500000 )  
               a(3) = (  -0.500000   0.500000   0.000000 )  

     reciprocal axes: (cart. coord. in units 2 pi/alat)
               b(1) = ( -1.000000 -1.000000  1.000000 )  
               b(2) = (  1.000000  1.000000  1.000000 )  
               b(3) = ( -1.000000  1.000000 -1.000000 )  


     PseudoPot. # 1 for Ge read from file:
     ~/Documents/TA/PWDFT.jl/pseudopotentials/scan_upf/Ge.SCAN.UPF2
     MD5 check sum: Not computed, couldn't open file
     Pseudo is Norm-conserving, Zval =  4.0
     Generated by new atomic code, or converted to UPF format
     Using radial grid of 1557 points,  2 beta functions with: 
                l(1) =   0
                l(2) =   1

     atomic species   valence    mass     pseudopotential
        Ge             4.00    72.64000     Ge( 1.00)

     48 Sym. Ops., with inversion, found (24 have fractional translation)



   Cartesian axes

     site n.     atom                  positions (alat units)
         1           Ge  tau(   1) = (   0.0000000   0.0000000   0.0000000  )
         2           Ge  tau(   2) = (   0.2500000   0.2500000   0.2500000  )

     number of k points=    47
                       cart. coord. in units 2pi/alat
        k(    1) = (   0.0000000   0.0000000   0.0000000), wk =   0.0020000
        k(    2) = (  -0.1000000   0.1000000  -0.1000000), wk =   0.0160000
        k(    3) = (  -0.2000000   0.2000000  -0.2000000), wk =   0.0160000
        k(    4) = (  -0.3000000   0.3000000  -0.3000000), wk =   0.0160000
        k(    5) = (  -0.4000000   0.4000000  -0.4000000), wk =   0.0160000
        k(    6) = (   0.5000000  -0.5000000   0.5000000), wk =   0.0080000
        k(    7) = (   0.0000000   0.2000000   0.0000000), wk =   0.0120000
        k(    8) = (  -0.1000000   0.3000000  -0.1000000), wk =   0.0480000
        k(    9) = (  -0.2000000   0.4000000  -0.2000000), wk =   0.0480000
        k(   10) = (  -0.3000000   0.5000000  -0.3000000), wk =   0.0480000
        k(   11) = (   0.6000000  -0.4000000   0.6000000), wk =   0.0480000
        k(   12) = (   0.5000000  -0.3000000   0.5000000), wk =   0.0480000
        k(   13) = (   0.4000000  -0.2000000   0.4000000), wk =   0.0480000
        k(   14) = (   0.3000000  -0.1000000   0.3000000), wk =   0.0480000
        k(   15) = (   0.2000000   0.0000000   0.2000000), wk =   0.0240000
        k(   16) = (   0.0000000   0.4000000   0.0000000), wk =   0.0120000
        k(   17) = (  -0.1000000   0.5000000  -0.1000000), wk =   0.0480000
        k(   18) = (  -0.2000000   0.6000000  -0.2000000), wk =   0.0480000
        k(   19) = (   0.7000000  -0.3000000   0.7000000), wk =   0.0480000
        k(   20) = (   0.6000000  -0.2000000   0.6000000), wk =   0.0480000
        k(   21) = (   0.5000000  -0.1000000   0.5000000), wk =   0.0480000
        k(   22) = (   0.4000000   0.0000000   0.4000000), wk =   0.0240000
        k(   23) = (   0.0000000   0.6000000   0.0000000), wk =   0.0120000
        k(   24) = (  -0.1000000   0.7000000  -0.1000000), wk =   0.0480000
        k(   25) = (   0.8000000  -0.2000000   0.8000000), wk =   0.0480000
        k(   26) = (   0.7000000  -0.1000000   0.7000000), wk =   0.0480000
        k(   27) = (   0.6000000  -0.0000000   0.6000000), wk =   0.0240000
        k(   28) = (   0.0000000   0.8000000   0.0000000), wk =   0.0120000
        k(   29) = (   0.9000000  -0.1000000   0.9000000), wk =   0.0480000
        k(   30) = (   0.8000000   0.0000000   0.8000000), wk =   0.0240000
        k(   31) = (   0.0000000  -1.0000000   0.0000000), wk =   0.0060000
        k(   32) = (  -0.2000000   0.4000000   0.0000000), wk =   0.0480000
        k(   33) = (  -0.3000000   0.5000000  -0.1000000), wk =   0.0960000
        k(   34) = (   0.6000000  -0.4000000   0.8000000), wk =   0.0960000
        k(   35) = (   0.5000000  -0.3000000   0.7000000), wk =   0.0480000
        k(   36) = (  -0.2000000   0.6000000   0.0000000), wk =   0.0480000
        k(   37) = (   0.7000000  -0.3000000   0.9000000), wk =   0.0960000
        k(   38) = (   0.6000000  -0.2000000   0.8000000), wk =   0.0960000
        k(   39) = (   0.5000000  -0.1000000   0.7000000), wk =   0.0960000
        k(   40) = (   0.4000000   0.0000000   0.6000000), wk =   0.0480000
        k(   41) = (   0.8000000  -0.2000000   1.0000000), wk =   0.0480000
        k(   42) = (   0.7000000  -0.1000000   0.9000000), wk =   0.0960000
        k(   43) = (   0.6000000   0.0000000   0.8000000), wk =   0.0480000
        k(   44) = (  -0.2000000  -1.0000000   0.0000000), wk =   0.0240000
        k(   45) = (   0.6000000  -0.2000000   1.0000000), wk =   0.0480000
        k(   46) = (   0.5000000  -0.1000000   0.9000000), wk =   0.0480000
        k(   47) = (  -0.4000000  -1.0000000   0.0000000), wk =   0.0240000

     Dense  grid:    20395 G-vectors     FFT dimensions: (  40,  40,  40)

     Estimated max dynamical RAM per process >      38.36 MB

     WARNING: libxc functional with ID  263 depends
      on external parameters: check the user_guide of
      QE if you need to modify them or to check their
      default values.

     Initial potential from superposition of free atoms

     starting charge       7.9987, renormalised to       8.0000
     Starting wfcs are   18 randomized atomic wfcs

     total cpu time spent up to now is       12.7 secs

     Self-consistent Calculation

     iteration #  1     ecut=    50.00 Ry     beta= 0.20
     Davidson diagonalization with overlap
     ethr =  1.00E-02,  avg # of iterations =  1.6

     Threshold (ethr) on eigenvalues was too large:
     Diagonalizing with lowered threshold

     Davidson diagonalization with overlap
     ethr =  2.35E-04,  avg # of iterations =  6.2

     total cpu time spent up to now is       37.9 secs

     total energy              =     -15.72927286 Ry
     estimated scf accuracy    <       0.02470520 Ry

     iteration #  2     ecut=    50.00 Ry     beta= 0.20
     Davidson diagonalization with overlap
     ethr =  3.09E-04,  avg # of iterations =  1.6

     total cpu time spent up to now is       45.9 secs

     total energy              =     -15.76400645 Ry
     estimated scf accuracy    <       0.01886195 Ry

     iteration #  3     ecut=    50.00 Ry     beta= 0.20
     Davidson diagonalization with overlap
     ethr =  2.36E-04,  avg # of iterations =  1.2

     total cpu time spent up to now is       53.4 secs

     total energy              =     -15.76511609 Ry
     estimated scf accuracy    <       0.00120251 Ry

     iteration #  4     ecut=    50.00 Ry     beta= 0.20
     Davidson diagonalization with overlap
     ethr =  1.50E-05,  avg # of iterations =  8.3

     total cpu time spent up to now is       72.0 secs

     total energy              =     -15.76678936 Ry
     estimated scf accuracy    <       0.00128456 Ry

     iteration #  5     ecut=    50.00 Ry     beta= 0.20
     Davidson diagonalization with overlap
     ethr =  1.50E-05,  avg # of iterations =  1.9

     total cpu time spent up to now is       78.5 secs

     total energy              =     -15.76683783 Ry
     estimated scf accuracy    <       0.00040925 Ry

     iteration #  6     ecut=    50.00 Ry     beta= 0.20
     Davidson diagonalization with overlap
     ethr =  5.12E-06,  avg # of iterations =  5.0

     total cpu time spent up to now is       89.5 secs

     total energy              =     -15.76702472 Ry
     estimated scf accuracy    <       0.00011349 Ry

     iteration #  7     ecut=    50.00 Ry     beta= 0.20
     Davidson diagonalization with overlap
     ethr =  1.42E-06,  avg # of iterations =  5.7

     total cpu time spent up to now is      101.3 secs

     total energy              =     -15.76710952 Ry
     estimated scf accuracy    <       0.00002172 Ry

     iteration #  8     ecut=    50.00 Ry     beta= 0.20
     Davidson diagonalization with overlap
     ethr =  2.71E-07,  avg # of iterations =  7.4

     total cpu time spent up to now is      113.6 secs

     End of self-consistent calculation

          k = 0.0000 0.0000 0.0000 (  2637 PWs)   bands (ev):

    -8.3655   0.1238   2.5866   2.5866

          k =-0.1000 0.1000-0.1000 (  2604 PWs)   bands (ev):

    -8.2760  -0.4630   2.4413   2.4413

          k =-0.2000 0.2000-0.2000 (  2577 PWs)   bands (ev):

    -8.0151  -1.6067   2.1402   2.1402

          k =-0.3000 0.3000-0.3000 (  2569 PWs)   bands (ev):

    -7.6137  -2.7754   1.8563   1.8563

          k =-0.4000 0.4000-0.4000 (  2560 PWs)   bands (ev):

    -7.1663  -3.7190   1.6679   1.6679

          k = 0.5000-0.5000 0.5000 (  2536 PWs)   bands (ev):

    -6.9344  -4.1212   1.6029   1.6029

          k = 0.0000 0.2000 0.0000 (  2593 PWs)   bands (ev):

    -8.2457  -0.5938   2.1978   2.1978

          k =-0.1000 0.3000-0.1000 (  2594 PWs)   bands (ev):

    -8.0401  -1.4493   1.8293   1.8683

          k =-0.2000 0.4000-0.2000 (  2573 PWs)   bands (ev):

    -7.6797  -2.5312   1.3916   1.6001

          k =-0.3000 0.5000-0.3000 (  2560 PWs)   bands (ev):

    -7.2280  -3.5227   1.0278   1.4545

          k = 0.6000-0.4000 0.6000 (  2553 PWs)   bands (ev):

    -6.8797  -4.1307   0.8095   1.4500

          k = 0.5000-0.3000 0.5000 (  2566 PWs)   bands (ev):

    -6.9646  -3.9918   0.7624   1.5835

          k = 0.4000-0.2000 0.4000 (  2568 PWs)   bands (ev):

    -7.3838  -3.2134   0.9017   1.8331

          k = 0.3000-0.1000 0.3000 (  2589 PWs)   bands (ev):

    -7.8168  -2.1709   1.2423   2.1479

          k = 0.2000 0.0000 0.2000 (  2597 PWs)   bands (ev):

    -8.1287  -1.1385   1.7956   2.4126

          k = 0.0000 0.4000 0.0000 (  2593 PWs)   bands (ev):

    -7.8895  -1.8621   1.5224   1.5224

          k =-0.1000 0.5000-0.1000 (  2573 PWs)   bands (ev):

    -7.5756  -2.6562   1.0791   1.2459

          k =-0.2000 0.6000-0.2000 (  2561 PWs)   bands (ev):

    -7.1391  -3.5337   0.5507   1.1021

          k = 0.7000-0.3000 0.7000 (  2562 PWs)   bands (ev):

    -6.7130  -4.2243   0.1527   1.1118

          k = 0.6000-0.2000 0.6000 (  2572 PWs)   bands (ev):

    -6.6407  -4.3288  -0.0265   1.2711

          k = 0.5000-0.1000 0.5000 (  2570 PWs)   bands (ev):

    -7.0107  -3.7622   0.0619   1.5530

          k = 0.4000 0.0000 0.4000 (  2565 PWs)   bands (ev):

    -7.4633  -2.9468   0.4729   1.8914

          k = 0.0000 0.6000 0.0000 (  2562 PWs)   bands (ev):

    -7.3068  -3.1696   0.9486   0.9486

          k =-0.1000 0.7000-0.1000 (  2574 PWs)   bands (ev):

    -6.8977  -3.8632   0.5305   0.7819

          k = 0.8000-0.2000 0.8000 (  2564 PWs)   bands (ev):

    -6.4301  -4.5183  -0.0029   0.7728

          k = 0.7000-0.1000 0.7000 (  2573 PWs)   bands (ev):

    -6.2201  -4.7750  -0.3472   0.9214

          k = 0.6000-0.0000 0.6000 (  2570 PWs)   bands (ev):

    -6.5516  -4.3665  -0.3542   1.2031

          k = 0.0000 0.8000 0.0000 (  2554 PWs)   bands (ev):

    -6.5149  -4.4111   0.5826   0.5826

          k = 0.9000-0.1000 0.9000 (  2551 PWs)   bands (ev):

    -6.0327  -4.9995   0.2465   0.5396

          k = 0.8000 0.0000 0.8000 (  2562 PWs)   bands (ev):

    -5.7959  -5.2436  -0.1945   0.6589

          k = 0.0000-1.0000 0.0000 (  2538 PWs)   bands (ev):

    -5.5389  -5.5389   0.4578   0.4578

          k =-0.2000 0.4000 0.0000 (  2576 PWs)   bands (ev):

    -7.7814  -2.2010   1.1209   1.7745

          k =-0.3000 0.5000-0.1000 (  2569 PWs)   bands (ev):

    -7.3809  -3.1141   0.5935   1.5238

          k = 0.6000-0.4000 0.8000 (  2559 PWs)   bands (ev):

    -6.9268  -3.9348   0.2926   1.3022

          k = 0.5000-0.3000 0.7000 (  2560 PWs)   bands (ev):

    -6.6842  -4.3088   0.1962   1.2188

          k =-0.2000 0.6000 0.0000 (  2566 PWs)   bands (ev):

    -7.2162  -3.3516   0.5808   1.0474

          k = 0.7000-0.3000 0.9000 (  2569 PWs)   bands (ev):

    -6.7570  -4.0850   0.1219   0.8487

          k = 0.6000-0.2000 0.8000 (  2572 PWs)   bands (ev):

    -6.3886  -4.5860  -0.1796   0.8132

          k = 0.5000-0.1000 0.7000 (  2565 PWs)   bands (ev):

    -6.5085  -4.4299  -0.2416   0.9657

          k = 0.4000 0.0000 0.6000 (  2565 PWs)   bands (ev):

    -6.9543  -3.8037   0.0036   1.2499

          k = 0.8000-0.2000 1.0000 (  2562 PWs)   bands (ev):

    -6.4544  -4.4784   0.2829   0.5219

          k = 0.7000-0.1000 0.9000 (  2571 PWs)   bands (ev):

    -5.9999  -5.0120  -0.1153   0.4598

          k = 0.6000 0.0000 0.8000 (  2568 PWs)   bands (ev):

    -6.0546  -4.9449  -0.3633   0.6404

          k =-0.2000-1.0000 0.0000 (  2566 PWs)   bands (ev):

    -5.5281  -5.5281   0.2610   0.2610

          k = 0.6000-0.2000 1.0000 (  2563 PWs)   bands (ev):

    -6.2880  -4.6700  -0.1678   0.5050

          k = 0.5000-0.1000 0.9000 (  2556 PWs)   bands (ev):

    -5.9786  -5.0210  -0.2541   0.3477

          k =-0.4000-1.0000 0.0000 (  2560 PWs)   bands (ev):

    -5.5104  -5.5104   0.0010   0.0010

     highest occupied level (ev):     2.5866

!    total energy              =     -15.76714035 Ry
     estimated scf accuracy    <       0.00000076 Ry

     The total energy is the sum of the following terms:
     one-electron contribution =       1.44177107 Ry
     hartree contribution      =       1.54824465 Ry
     xc contribution           =      -4.36976209 Ry
     ewald contribution        =     -14.38739398 Ry

     convergence has been achieved in   8 iterations
     Writing meta-gga kinetic term

     Writing all to output data dir ./input_pw/Ge/9/pwscf.save/
     Writing meta-gga kinetic term
 
     init_run     :      6.14s CPU     12.61s WALL (       1 calls)
     electrons    :     61.28s CPU    100.93s WALL (       1 calls)

     Called by init_run:
     wfcinit      :      5.98s CPU     12.27s WALL (       1 calls)
     potinit      :      0.05s CPU      0.11s WALL (       1 calls)
     hinit0       :      0.07s CPU      0.16s WALL (       1 calls)

     Called by electrons:
     c_bands      :     53.15s CPU     87.19s WALL (       9 calls)
     sum_band     :      7.42s CPU     12.66s WALL (       9 calls)
     v_of_rho     :      0.43s CPU      0.70s WALL (       9 calls)
     mix_rho      :      0.31s CPU      0.46s WALL (       9 calls)

     Called by c_bands:
     init_us_2    :      0.31s CPU      0.52s WALL (     893 calls)
     init_us_2:cp :      0.31s CPU      0.52s WALL (     893 calls)
     cegterg      :     52.77s CPU     86.41s WALL (     423 calls)

     Called by *egterg:
     cdiaghg      :      0.20s CPU      0.28s WALL (    2200 calls)
     h_psi        :     57.33s CPU     96.26s WALL (    2294 calls)
     g_psi        :      0.05s CPU      0.10s WALL (    1824 calls)

     Called by h_psi:
     h_psi:calbec :      0.31s CPU      0.51s WALL (    2294 calls)
     vloc_psi     :     14.27s CPU     23.81s WALL (    2294 calls)
     add_vuspsi   :      0.22s CPU      0.37s WALL (    2294 calls)
     h_psi_meta   :     42.44s CPU     71.43s WALL (    2294 calls)

     General routines
     calbec       :      0.30s CPU      0.50s WALL (    2294 calls)
     fft          :      0.08s CPU      0.14s WALL (     107 calls)
     ffts         :      0.11s CPU      0.17s WALL (     141 calls)
     fftw         :     51.08s CPU     86.45s WALL (   68480 calls)
     interpolate  :      0.00s CPU      0.00s WALL (       9 calls)
 
     Parallel routines
 
     PWSCF        :   1m 7.46s CPU   1m53.64s WALL

 
   This run was terminated on:  14:27:43   7Jul2023            

=------------------------------------------------------------------------------=
   JOB DONE.
=------------------------------------------------------------------------------=
