
     Program PWSCF v.7.0 starts on  4Apr2023 at  9:49: 0 

     This program is part of the open-source Quantum ESPRESSO suite
     for quantum simulation of materials; please cite
         "P. Giannozzi et al., J. Phys.:Condens. Matter 21 395502 (2009);
         "P. Giannozzi et al., J. Phys.:Condens. Matter 29 465901 (2017);
         "P. Giannozzi et al., J. Chem. Phys. 152 154105 (2020);
          URL http://www.quantum-espresso.org", 
     in publications or presentations arising from this work. More details at
     http://www.quantum-espresso.org/quote

     Parallel version (MPI), running on     1 processors

     MPI processes distributed on     1 nodes
     20217 MiB available memory on the printing compute node when the environment starts
 
     Waiting for input...
     Reading input from standard input
Warning: card &CELL ignored
Warning: card / ignored

     Current dimensions of program PWSCF are:
     Max number of different atomic species (ntypx) = 10
     Max number of k-points (npk) =  40000
     Max angular momentum in pseudopotentials (lmaxx) =  4
     file Al.SCAN.UPF2: wavefunction(s)  0D renormalized

     WARNING: the MGGA functional with ID    5 has been 
     read together with other dft terms, but it should 
     stand alone in order to work properly. The other 
     terms will be ignored.

     Subspace diagonalization in iterative solution of the eigenvalue problem:
     a serial algorithm will be used

 
     G-vector sticks info
     --------------------
     sticks:   dense  smooth     PW     G-vecs:    dense   smooth      PW
     Sum         337     337    121                 4015     4015     821
 
     Using Slab Decomposition
 


     bravais-lattice index     =            2
     lattice parameter (alat)  =       6.3495  a.u.
     unit-cell volume          =      63.9962 (a.u.)^3
     number of atoms/cell      =            1
     number of atomic types    =            1
     number of electrons       =         3.00
     number of Kohn-Sham states=            6
     kinetic-energy cutoff     =      60.0000  Ry
     charge density cutoff     =     240.0000  Ry
     scf convergence threshold =      1.0E-06
     mixing beta               =       0.0100
     number of iterations used =            8  local-TF  mixing
     Exchange-correlation= SLA  PW   SCAN SCAN
                           (   0   0   0   0   0 263 267)

     celldm(1)=   6.349480  celldm(2)=   0.000000  celldm(3)=   0.000000
     celldm(4)=   0.000000  celldm(5)=   0.000000  celldm(6)=   0.000000

     crystal axes: (cart. coord. in units of alat)
               a(1) = (  -0.500000   0.000000   0.500000 )  
               a(2) = (   0.000000   0.500000   0.500000 )  
               a(3) = (  -0.500000   0.500000   0.000000 )  

     reciprocal axes: (cart. coord. in units 2 pi/alat)
               b(1) = ( -1.000000 -1.000000  1.000000 )  
               b(2) = (  1.000000  1.000000  1.000000 )  
               b(3) = ( -1.000000  1.000000 -1.000000 )  


     PseudoPot. # 1 for Al read from file:
     ~/Documents/TA/PWDFT.jl/pseudopotentials/scan_upf/Al.SCAN.UPF2
     MD5 check sum: Not computed, couldn't open file
     Pseudo is Norm-conserving, Zval =  3.0
     Generated by new atomic code, or converted to UPF format
     Using radial grid of 1467 points,  2 beta functions with: 
                l(1) =   0
                l(2) =   1

     atomic species   valence    mass     pseudopotential
        Al             3.00    26.98154     Al( 1.00)

     Starting magnetic structure 
     atomic species   magnetization
        Al           1.000

     48 Sym. Ops., with inversion, found



   Cartesian axes

     site n.     atom                  positions (alat units)
         1           Al  tau(   1) = (   0.0000000   0.0000000   0.0000000  )

     number of k points=    47  Gaussian smearing, width (Ry)=  0.1000
                       cart. coord. in units 2pi/alat
        k(    1) = (   0.0000000   0.0000000   0.0000000), wk =   0.0010000
        k(    2) = (  -0.1000000   0.1000000  -0.1000000), wk =   0.0080000
        k(    3) = (  -0.2000000   0.2000000  -0.2000000), wk =   0.0080000
        k(    4) = (  -0.3000000   0.3000000  -0.3000000), wk =   0.0080000
        k(    5) = (  -0.4000000   0.4000000  -0.4000000), wk =   0.0080000
        k(    6) = (   0.5000000  -0.5000000   0.5000000), wk =   0.0040000
        k(    7) = (   0.0000000   0.2000000   0.0000000), wk =   0.0060000
        k(    8) = (  -0.1000000   0.3000000  -0.1000000), wk =   0.0240000
        k(    9) = (  -0.2000000   0.4000000  -0.2000000), wk =   0.0240000
        k(   10) = (  -0.3000000   0.5000000  -0.3000000), wk =   0.0240000
        k(   11) = (   0.6000000  -0.4000000   0.6000000), wk =   0.0240000
        k(   12) = (   0.5000000  -0.3000000   0.5000000), wk =   0.0240000
        k(   13) = (   0.4000000  -0.2000000   0.4000000), wk =   0.0240000
        k(   14) = (   0.3000000  -0.1000000   0.3000000), wk =   0.0240000
        k(   15) = (   0.2000000   0.0000000   0.2000000), wk =   0.0120000
        k(   16) = (   0.0000000   0.4000000   0.0000000), wk =   0.0060000
        k(   17) = (  -0.1000000   0.5000000  -0.1000000), wk =   0.0240000
        k(   18) = (  -0.2000000   0.6000000  -0.2000000), wk =   0.0240000
        k(   19) = (   0.7000000  -0.3000000   0.7000000), wk =   0.0240000
        k(   20) = (   0.6000000  -0.2000000   0.6000000), wk =   0.0240000
        k(   21) = (   0.5000000  -0.1000000   0.5000000), wk =   0.0240000
        k(   22) = (   0.4000000   0.0000000   0.4000000), wk =   0.0120000
        k(   23) = (   0.0000000   0.6000000   0.0000000), wk =   0.0060000
        k(   24) = (  -0.1000000   0.7000000  -0.1000000), wk =   0.0240000
        k(   25) = (   0.8000000  -0.2000000   0.8000000), wk =   0.0240000
        k(   26) = (   0.7000000  -0.1000000   0.7000000), wk =   0.0240000
        k(   27) = (   0.6000000  -0.0000000   0.6000000), wk =   0.0120000
        k(   28) = (   0.0000000   0.8000000   0.0000000), wk =   0.0060000
        k(   29) = (   0.9000000  -0.1000000   0.9000000), wk =   0.0240000
        k(   30) = (   0.8000000   0.0000000   0.8000000), wk =   0.0120000
        k(   31) = (   0.0000000  -1.0000000   0.0000000), wk =   0.0030000
        k(   32) = (  -0.2000000   0.4000000   0.0000000), wk =   0.0240000
        k(   33) = (  -0.3000000   0.5000000  -0.1000000), wk =   0.0480000
        k(   34) = (   0.6000000  -0.4000000   0.8000000), wk =   0.0480000
        k(   35) = (   0.5000000  -0.3000000   0.7000000), wk =   0.0240000
        k(   36) = (  -0.2000000   0.6000000   0.0000000), wk =   0.0240000
        k(   37) = (   0.7000000  -0.3000000   0.9000000), wk =   0.0480000
        k(   38) = (   0.6000000  -0.2000000   0.8000000), wk =   0.0480000
        k(   39) = (   0.5000000  -0.1000000   0.7000000), wk =   0.0480000
        k(   40) = (   0.4000000   0.0000000   0.6000000), wk =   0.0240000
        k(   41) = (   0.8000000  -0.2000000   1.0000000), wk =   0.0240000
        k(   42) = (   0.7000000  -0.1000000   0.9000000), wk =   0.0480000
        k(   43) = (   0.6000000   0.0000000   0.8000000), wk =   0.0240000
        k(   44) = (  -0.2000000  -1.0000000   0.0000000), wk =   0.0120000
        k(   45) = (   0.6000000  -0.2000000   1.0000000), wk =   0.0240000
        k(   46) = (   0.5000000  -0.1000000   0.9000000), wk =   0.0240000
        k(   47) = (  -0.4000000  -1.0000000   0.0000000), wk =   0.0120000

     Dense  grid:     4015 G-vectors     FFT dimensions: (  24,  24,  24)

     Estimated max dynamical RAM per process >      14.14 MB

     WARNING: libxc functional with ID  263 depends
      on external parameters: check the user_guide of
      QE if you need to modify them or to check their
      default values.
     Generating pointlists ...
     new r_m :   0.2917 (alat units)  1.8520 (a.u.) for type    1

     Initial potential from superposition of free atoms

     starting charge       2.9979, renormalised to       3.0000
     Starting wfcs are    9 randomized atomic wfcs

     total cpu time spent up to now is        3.0 secs

     Self-consistent Calculation

     iteration #  1     ecut=    60.00 Ry     beta= 0.01
     Davidson diagonalization with overlap
     c_bands:  1 eigenvalues not converged
     c_bands:  1 eigenvalues not converged
     c_bands:  5 eigenvalues not converged
     c_bands:  4 eigenvalues not converged
     c_bands:  1 eigenvalues not converged
     c_bands:  1 eigenvalues not converged
     c_bands:  1 eigenvalues not converged
     c_bands:  1 eigenvalues not converged
     c_bands:  1 eigenvalues not converged
     c_bands:  1 eigenvalues not converged
     c_bands:  1 eigenvalues not converged
     c_bands:  1 eigenvalues not converged
     c_bands:  1 eigenvalues not converged
     c_bands:  1 eigenvalues not converged
     c_bands:  1 eigenvalues not converged
     c_bands:  1 eigenvalues not converged
     c_bands:  2 eigenvalues not converged
     c_bands:  1 eigenvalues not converged
     c_bands:  1 eigenvalues not converged
     c_bands:  1 eigenvalues not converged
     c_bands:  1 eigenvalues not converged
     c_bands:  1 eigenvalues not converged
     c_bands:  3 eigenvalues not converged
     c_bands:  1 eigenvalues not converged
     c_bands:  1 eigenvalues not converged
     c_bands:  4 eigenvalues not converged
     c_bands:  1 eigenvalues not converged
     c_bands:  1 eigenvalues not converged
     ethr =  1.00E-02,  avg # of iterations = 22.6

     total cpu time spent up to now is       35.5 secs

     total energy              =   -1215.88633928 Ry
     estimated scf accuracy    <   68627.69337645 Ry

     total magnetization       =    -3.00 Bohr mag/cell
     absolute magnetization    =     3.00 Bohr mag/cell

     iteration #  2     ecut=    60.00 Ry     beta= 0.01
     Davidson diagonalization with overlap
     ethr =  1.00E-02,  avg # of iterations =  3.5

     total cpu time spent up to now is       42.5 secs

     total energy              =      -3.72476007 Ry
     estimated scf accuracy    <     139.68873401 Ry

     total magnetization       =     0.95 Bohr mag/cell
     absolute magnetization    =     0.95 Bohr mag/cell

     iteration #  3     ecut=    60.00 Ry     beta= 0.01
     Davidson diagonalization with overlap
     ethr =  1.00E-02,  avg # of iterations =  1.0

     negative rho (up,down):  0.000E+00 4.500E-01

     total cpu time spent up to now is       46.4 secs

     total energy              =      -4.24001054 Ry
     estimated scf accuracy    <     135.21844328 Ry

     total magnetization       =     0.91 Bohr mag/cell
     absolute magnetization    =     0.91 Bohr mag/cell

     iteration #  4     ecut=    60.00 Ry     beta= 0.01
     Davidson diagonalization with overlap
     ethr =  1.00E-02,  avg # of iterations =  1.0

     total cpu time spent up to now is       50.3 secs

     total energy              =      -3.98703073 Ry
     estimated scf accuracy    <     289.80970172 Ry

     total magnetization       =     0.76 Bohr mag/cell
     absolute magnetization    =     0.76 Bohr mag/cell

     iteration #  5     ecut=    60.00 Ry     beta= 0.01
     Davidson diagonalization with overlap
     ethr =  1.00E-02,  avg # of iterations =  1.1

     total cpu time spent up to now is       54.3 secs

     total energy              =      -4.04928394 Ry
     estimated scf accuracy    <      19.88107417 Ry

     total magnetization       =     0.09 Bohr mag/cell
     absolute magnetization    =     0.12 Bohr mag/cell

     iteration #  6     ecut=    60.00 Ry     beta= 0.01
     Davidson diagonalization with overlap
     ethr =  1.00E-02,  avg # of iterations =  1.0

     total cpu time spent up to now is       58.2 secs

     total energy              =      -4.04678060 Ry
     estimated scf accuracy    <      13.89958711 Ry

     total magnetization       =     0.13 Bohr mag/cell
     absolute magnetization    =     0.14 Bohr mag/cell

     iteration #  7     ecut=    60.00 Ry     beta= 0.01
     Davidson diagonalization with overlap
     ethr =  1.00E-02,  avg # of iterations =  1.0

     total cpu time spent up to now is       62.1 secs

     total energy              =      -4.01300283 Ry
     estimated scf accuracy    <      12.47548904 Ry

     total magnetization       =     0.14 Bohr mag/cell
     absolute magnetization    =     0.16 Bohr mag/cell

     iteration #  8     ecut=    60.00 Ry     beta= 0.01
     Davidson diagonalization with overlap
     ethr =  1.00E-02,  avg # of iterations =  1.0

     total cpu time spent up to now is       66.0 secs

     total energy              =      -4.01958414 Ry
     estimated scf accuracy    <       0.60324641 Ry

     total magnetization       =     0.09 Bohr mag/cell
     absolute magnetization    =     0.09 Bohr mag/cell

     iteration #  9     ecut=    60.00 Ry     beta= 0.01
     Davidson diagonalization with overlap
     ethr =  1.00E-02,  avg # of iterations =  1.0

     total cpu time spent up to now is       69.9 secs

     total energy              =      -4.02100413 Ry
     estimated scf accuracy    <       0.42738017 Ry

     total magnetization       =     0.07 Bohr mag/cell
     absolute magnetization    =     0.07 Bohr mag/cell

     iteration # 10     ecut=    60.00 Ry     beta= 0.01
     Davidson diagonalization with overlap
     ethr =  1.00E-02,  avg # of iterations =  1.0

     total cpu time spent up to now is       73.9 secs

     total energy              =      -4.02096811 Ry
     estimated scf accuracy    <       0.24495104 Ry

     total magnetization       =     0.05 Bohr mag/cell
     absolute magnetization    =     0.05 Bohr mag/cell

     iteration # 11     ecut=    60.00 Ry     beta= 0.01
     Davidson diagonalization with overlap
     ethr =  8.17E-03,  avg # of iterations =  1.0

     total cpu time spent up to now is       77.8 secs

     total energy              =      -4.02200654 Ry
     estimated scf accuracy    <       0.04045676 Ry

     total magnetization       =     0.05 Bohr mag/cell
     absolute magnetization    =     0.05 Bohr mag/cell

     iteration # 12     ecut=    60.00 Ry     beta= 0.01
     Davidson diagonalization with overlap
     ethr =  1.35E-03,  avg # of iterations =  1.0

     total cpu time spent up to now is       81.7 secs

     total energy              =      -4.02148800 Ry
     estimated scf accuracy    <       0.01222202 Ry

     total magnetization       =     0.03 Bohr mag/cell
     absolute magnetization    =     0.03 Bohr mag/cell

     iteration # 13     ecut=    60.00 Ry     beta= 0.01
     Davidson diagonalization with overlap
     ethr =  4.07E-04,  avg # of iterations =  1.1

     total cpu time spent up to now is       85.6 secs

     total energy              =      -4.02209251 Ry
     estimated scf accuracy    <       0.00010461 Ry

     total magnetization       =     0.00 Bohr mag/cell
     absolute magnetization    =     0.02 Bohr mag/cell

     iteration # 14     ecut=    60.00 Ry     beta= 0.01
     Davidson diagonalization with overlap
     ethr =  3.49E-06,  avg # of iterations =  2.5

     total cpu time spent up to now is       90.1 secs

     total energy              =      -4.02207311 Ry
     estimated scf accuracy    <       0.00083564 Ry

     total magnetization       =     0.01 Bohr mag/cell
     absolute magnetization    =     0.02 Bohr mag/cell

     iteration # 15     ecut=    60.00 Ry     beta= 0.01
     Davidson diagonalization with overlap
     ethr =  3.49E-06,  avg # of iterations =  1.0

     total cpu time spent up to now is       94.0 secs

     total energy              =      -4.02211034 Ry
     estimated scf accuracy    <       0.00090713 Ry

     total magnetization       =     0.01 Bohr mag/cell
     absolute magnetization    =     0.02 Bohr mag/cell

     iteration # 16     ecut=    60.00 Ry     beta= 0.01
     Davidson diagonalization with overlap
     ethr =  3.49E-06,  avg # of iterations =  1.3

     total cpu time spent up to now is       98.0 secs

     total energy              =      -4.02207370 Ry
     estimated scf accuracy    <       0.00038826 Ry

     total magnetization       =     0.00 Bohr mag/cell
     absolute magnetization    =     0.01 Bohr mag/cell

     iteration # 17     ecut=    60.00 Ry     beta= 0.01
     Davidson diagonalization with overlap
     ethr =  3.49E-06,  avg # of iterations =  1.9

     total cpu time spent up to now is      102.4 secs

     total energy              =      -4.02210634 Ry
     estimated scf accuracy    <       0.00000435 Ry

     total magnetization       =     0.00 Bohr mag/cell
     absolute magnetization    =     0.01 Bohr mag/cell

     iteration # 18     ecut=    60.00 Ry     beta= 0.01
     Davidson diagonalization with overlap
     ethr =  1.45E-07,  avg # of iterations =  1.4

     total cpu time spent up to now is      106.4 secs

     total energy              =      -4.02212572 Ry
     estimated scf accuracy    <       0.00000423 Ry

     total magnetization       =     0.00 Bohr mag/cell
     absolute magnetization    =     0.01 Bohr mag/cell

     iteration # 19     ecut=    60.00 Ry     beta= 0.01
     Davidson diagonalization with overlap
     ethr =  1.41E-07,  avg # of iterations =  2.0

     total cpu time spent up to now is      110.9 secs

     total energy              =      -4.02214267 Ry
     estimated scf accuracy    <       0.00000786 Ry

     total magnetization       =     0.00 Bohr mag/cell
     absolute magnetization    =     0.00 Bohr mag/cell

     iteration # 20     ecut=    60.00 Ry     beta= 0.01
     Davidson diagonalization with overlap
     ethr =  1.41E-07,  avg # of iterations =  2.0
 
     Magnetic moment per site  (integrated on atomic sphere of radius R)
     atom   1 (R=0.292)  charge=  1.5260  magn=  0.0006

     total cpu time spent up to now is      115.3 secs

     End of self-consistent calculation

 ------ SPIN UP ------------


          k = 0.0000 0.0000 0.0000 (   531 PWs)   bands (ev):

    -1.1538  31.4410  31.4410  31.4410  36.8537  38.5273

          k =-0.1000 0.1000-0.1000 (   528 PWs)   bands (ev):

    -0.7462  27.6006  31.2071  31.2071  37.1930  38.9590

          k =-0.2000 0.2000-0.2000 (   516 PWs)   bands (ev):

     0.4636  22.2286  30.7094  30.7094  36.0481  37.7188

          k =-0.3000 0.3000-0.3000 (   510 PWs)   bands (ev):

     2.4361  17.1894  30.2209  30.2209  35.2583  35.9097

          k =-0.4000 0.4000-0.4000 (   498 PWs)   bands (ev):

     5.0931  12.6936  29.8776  29.8776  34.7657  34.7657

          k = 0.5000-0.5000 0.5000 (   502 PWs)   bands (ev):

     7.6561   9.5201  29.7530  29.7530  34.3843  34.3843

          k = 0.0000 0.2000 0.0000 (   524 PWs)   bands (ev):

    -0.6108  28.4730  29.8953  29.8953  35.5437  39.0920

          k =-0.1000 0.3000-0.1000 (   511 PWs)   bands (ev):

     0.3303  24.0537  28.8982  29.8509  33.5954  38.2098

          k =-0.2000 0.4000-0.2000 (   507 PWs)   bands (ev):

     2.0465  19.0266  28.3096  28.8257  32.6745  39.0486

          k =-0.3000 0.5000-0.3000 (   506 PWs)   bands (ev):

     4.4767  14.3953  27.4985  28.1761  32.2933  37.6076

          k = 0.6000-0.4000 0.6000 (   502 PWs)   bands (ev):

     7.3963  10.4722  26.4485  28.5471  32.5698  36.2742

          k = 0.5000-0.3000 0.5000 (   500 PWs)   bands (ev):

     6.4188  11.6468  25.8601  29.4731  33.5176  35.3744

          k = 0.4000-0.2000 0.4000 (   510 PWs)   bands (ev):

     3.5928  15.8607  25.8190  30.9658  34.8027  35.0511

          k = 0.3000-0.1000 0.3000 (   501 PWs)   bands (ev):

     1.3911  20.5723  26.4115  32.6821  34.6193  36.9627

          k = 0.2000 0.0000 0.2000 (   515 PWs)   bands (ev):

    -0.0717  25.0746  28.0871  32.5229  36.4159  38.6865

          k = 0.0000 0.4000 0.0000 (   504 PWs)   bands (ev):

     0.9958  24.8321  27.5872  27.5872  29.1228  36.1357

          k =-0.1000 0.5000-0.1000 (   507 PWs)   bands (ev):

     2.4383  21.1475  25.6773  26.7964  28.7079  35.9884

          k =-0.2000 0.6000-0.2000 (   508 PWs)   bands (ev):

     4.6074  16.6198  23.5969  26.5301  29.3174  38.2431

          k = 0.7000-0.3000 0.7000 (   502 PWs)   bands (ev):

     7.3849  12.5072  22.0795  26.8068  29.9036  40.0425

          k = 0.6000-0.2000 0.6000 (   500 PWs)   bands (ev):

     8.3452  11.3298  21.1692  27.6596  30.9719  38.7652

          k = 0.5000-0.1000 0.5000 (   502 PWs)   bands (ev):

     5.4745  15.0060  21.0371  29.1246  32.6267  37.5472

          k = 0.4000 0.0000 0.4000 (   509 PWs)   bands (ev):

     3.0821  18.5495  22.4154  31.1984  34.7764  35.7539

          k = 0.0000 0.6000 0.0000 (   508 PWs)   bands (ev):

     3.5982  22.1190  22.6897  25.8141  25.8141  33.8970

          k =-0.1000 0.7000-0.1000 (   493 PWs)   bands (ev):

     5.4841  18.8959  20.2331  25.3716  26.5524  34.2759

          k = 0.8000-0.2000 0.8000 (   491 PWs)   bands (ev):

     8.0047  14.9533  18.3759  25.4729  27.5643  37.0803

          k = 0.7000-0.1000 0.7000 (   503 PWs)   bands (ev):

    10.4668  11.8867  17.2493  26.1307  28.7366  41.3198

          k = 0.6000-0.0000 0.6000 (   498 PWs)   bands (ev):

     8.0007  13.9338  17.6928  27.3585  30.4234  41.0712

          k = 0.0000 0.8000 0.0000 (   496 PWs)   bands (ev):

     7.0660  16.9405  20.4726  24.7485  24.7485  32.4349

          k = 0.9000-0.1000 0.9000 (   494 PWs)   bands (ev):

     9.2268  14.5720  18.3728  24.6649  25.5872  33.3638

          k = 0.8000 0.0000 0.8000 (   494 PWs)   bands (ev):

    11.2097  13.0270  15.9074  25.1243  26.9937  36.6763

          k = 0.0000-1.0000 0.0000 (   492 PWs)   bands (ev):

    10.3106  12.9463  19.9217  24.3957  24.3957  31.9237

          k =-0.2000 0.4000 0.0000 (   508 PWs)   bands (ev):

     1.5231  21.7674  25.2801  30.7032  31.4348  37.8420

          k =-0.3000 0.5000-0.1000 (   507 PWs)   bands (ev):

     3.4670  17.7584  23.5731  28.4882  32.7845  37.9855

          k = 0.6000-0.4000 0.8000 (   506 PWs)   bands (ev):

     6.0818  13.5136  23.0647  26.9617  33.5699  36.1442

          k = 0.5000-0.3000 0.7000 (   506 PWs)   bands (ev):

     8.5929  10.4350  22.9712  26.3972  34.1237  35.1542

          k =-0.2000 0.6000 0.0000 (   507 PWs)   bands (ev):

     4.1053  19.3478  21.9216  25.6252  29.5495  35.8826

          k = 0.7000-0.3000 0.9000 (   498 PWs)   bands (ev):

     6.4594  15.8007  20.1131  24.3345  31.1477  37.9666

          k = 0.6000-0.2000 0.8000 (   500 PWs)   bands (ev):

     9.2773  12.1525  19.1904  24.0997  32.3484  38.8742

          k = 0.5000-0.1000 0.7000 (   501 PWs)   bands (ev):

     8.3350  13.1559  18.8081  24.8799  33.7832  37.4376

          k = 0.4000 0.0000 0.6000 (   499 PWs)   bands (ev):

     5.6014  16.2163  19.8300  26.4568  35.4688  35.6900

          k = 0.8000-0.2000 1.0000 (   495 PWs)   bands (ev):

     7.5417  17.1051  17.8812  23.4673  28.3378  34.6051

          k = 0.7000-0.1000 0.9000 (   493 PWs)   bands (ev):

    10.1167  14.2585  16.2071  22.7786  30.2887  37.1847

          k = 0.6000 0.0000 0.8000 (   503 PWs)   bands (ev):

    11.0831  12.5627  16.0183  23.3848  31.9182  41.4085

          k =-0.2000-1.0000 0.0000 (   494 PWs)   bands (ev):

    10.7591  13.2751  17.3903  22.9038  27.9311  34.1638

          k = 0.6000-0.2000 1.0000 (   499 PWs)   bands (ev):

     8.9350  14.8134  17.0084  22.3130  34.3691  38.4501

          k = 0.5000-0.1000 0.9000 (   504 PWs)   bands (ev):

    11.4011  12.5650  16.2741  21.5839  36.5250  36.8436

          k =-0.4000-1.0000 0.0000 (   502 PWs)   bands (ev):

    12.1061  13.9323  14.3457  20.9818  33.9641  38.6648

 ------ SPIN DOWN ----------


          k = 0.0000 0.0000 0.0000 (   531 PWs)   bands (ev):

    -1.1902  31.4675  31.4675  31.4675  36.9446  38.5897

          k =-0.1000 0.1000-0.1000 (   528 PWs)   bands (ev):

    -0.7817  27.6303  31.2338  31.2338  37.2678  39.0128

          k =-0.2000 0.2000-0.2000 (   516 PWs)   bands (ev):

     0.4307  22.2493  30.7347  30.7347  36.1232  37.7733

          k =-0.3000 0.3000-0.3000 (   510 PWs)   bands (ev):

     2.4075  17.1992  30.2421  30.2421  35.3352  35.9671

          k =-0.4000 0.4000-0.4000 (   498 PWs)   bands (ev):

     5.0697  12.6940  29.8939  29.8939  34.8261  34.8261

          k = 0.5000-0.5000 0.5000 (   502 PWs)   bands (ev):

     7.6311   9.5205  29.7671  29.7671  34.4462  34.4462

          k = 0.0000 0.2000 0.0000 (   524 PWs)   bands (ev):

    -0.6459  28.5101  29.9202  29.9202  35.5901  39.1737

          k =-0.1000 0.3000-0.1000 (   511 PWs)   bands (ev):

     0.2972  24.0796  28.9211  29.8826  33.6345  38.2868

          k =-0.2000 0.4000-0.2000 (   507 PWs)   bands (ev):

     2.0172  19.0409  28.3304  28.8540  32.7226  39.1167

          k =-0.3000 0.5000-0.3000 (   506 PWs)   bands (ev):

     4.4524  14.3991  27.5210  28.1951  32.3499  37.6702

          k = 0.6000-0.4000 0.6000 (   502 PWs)   bands (ev):

     7.3749  10.4706  26.4682  28.5651  32.6304  36.3340

          k = 0.5000-0.3000 0.5000 (   500 PWs)   bands (ev):

     6.3975  11.6456  25.8793  29.4917  33.5806  35.4314

          k = 0.4000-0.2000 0.4000 (   510 PWs)   bands (ev):

     3.5667  15.8678  25.8391  30.9868  34.8547  35.1170

          k = 0.3000-0.1000 0.3000 (   501 PWs)   bands (ev):

     1.3603  20.5904  26.4329  32.7084  34.6625  37.0333

          k = 0.2000 0.0000 0.2000 (   515 PWs)   bands (ev):

    -0.1056  25.1025  28.1104  32.5521  36.4554  38.7572

          k = 0.0000 0.4000 0.0000 (   504 PWs)   bands (ev):

     0.9642  24.8683  27.6079  27.6079  29.1507  36.2128

          k =-0.1000 0.5000-0.1000 (   507 PWs)   bands (ev):

     2.4098  21.1695  25.6984  26.8152  28.7414  36.0614

          k =-0.2000 0.6000-0.2000 (   508 PWs)   bands (ev):

     4.5837  16.6290  23.6133  26.5478  29.3649  38.3128

          k = 0.7000-0.3000 0.7000 (   502 PWs)   bands (ev):

     7.3661  12.5075  22.0926  26.8245  29.9588  40.1081

          k = 0.6000-0.2000 0.6000 (   500 PWs)   bands (ev):

     8.3262  11.3298  21.1806  27.6789  31.0312  38.8237

          k = 0.5000-0.1000 0.5000 (   502 PWs)   bands (ev):

     5.4524  15.0121  21.0479  29.1473  32.6891  37.5951

          k = 0.4000 0.0000 0.4000 (   509 PWs)   bands (ev):

     3.0550  18.5650  22.4278  31.2262  34.8423  35.7913

          k = 0.0000 0.6000 0.0000 (   508 PWs)   bands (ev):

     3.5723  22.1524  22.7018  25.8311  25.8311  33.9713

          k =-0.1000 0.7000-0.1000 (   493 PWs)   bands (ev):

     5.4625  18.9081  20.2471  25.3876  26.5839  34.3464

          k = 0.8000-0.2000 0.8000 (   491 PWs)   bands (ev):

     7.9887  14.9558  18.3838  25.4889  27.6105  37.1488

          k = 0.7000-0.1000 0.7000 (   503 PWs)   bands (ev):

    10.4511  11.8886  17.2534  26.1480  28.7907  41.3966

          k = 0.6000-0.0000 0.6000 (   498 PWs)   bands (ev):

     7.9836  13.9387  17.6956  27.3782  30.4821  41.1221

          k = 0.0000 0.8000 0.0000 (   496 PWs)   bands (ev):

     7.0485  16.9385  20.5040  24.7634  24.7634  32.5082

          k = 0.9000-0.1000 0.9000 (   494 PWs)   bands (ev):

     9.2156  14.5622  18.3936  24.6795  25.6173  33.4332

          k = 0.8000 0.0000 0.8000 (   494 PWs)   bands (ev):

    11.2079  13.0091  15.9192  25.1398  27.0393  36.7443

          k = 0.0000-1.0000 0.0000 (   492 PWs)   bands (ev):

    10.3065  12.9289  19.9524  24.4098  24.4098  31.9965

          k =-0.2000 0.4000 0.0000 (   508 PWs)   bands (ev):

     1.4926  21.7904  25.2978  30.7359  31.4687  37.9174

          k =-0.3000 0.5000-0.1000 (   507 PWs)   bands (ev):

     3.4407  17.7708  23.5884  28.5170  32.8275  38.0500

          k = 0.6000-0.4000 0.8000 (   506 PWs)   bands (ev):

     6.0607  13.5158  23.0787  26.9884  33.6192  36.2072

          k = 0.5000-0.3000 0.7000 (   506 PWs)   bands (ev):

     8.5708  10.4365  22.9843  26.4236  34.1715  35.2196

          k =-0.2000 0.6000 0.0000 (   507 PWs)   bands (ev):

     4.0805  19.3673  21.9296  25.6505  29.5823  35.9538

          k = 0.7000-0.3000 0.9000 (   498 PWs)   bands (ev):

     6.4397  15.8084  20.1193  24.3604  31.1896  38.0356

          k = 0.6000-0.2000 0.8000 (   500 PWs)   bands (ev):

     9.2614  12.1531  19.1957  24.1258  32.3974  38.9375

          k = 0.5000-0.1000 0.7000 (   501 PWs)   bands (ev):

     8.3183  13.1583  18.8127  24.9066  33.8368  37.4940

          k = 0.4000 0.0000 0.6000 (   499 PWs)   bands (ev):

     5.5797  16.2269  19.8355  26.4851  35.5146  35.7484

          k = 0.8000-0.2000 1.0000 (   495 PWs)   bands (ev):

     7.5250  17.1019  17.8987  23.4888  28.3688  34.6747

          k = 0.7000-0.1000 0.9000 (   493 PWs)   bands (ev):

    10.1068  14.2535  16.2130  22.8022  30.3295  37.2539

          k = 0.6000 0.0000 0.8000 (   503 PWs)   bands (ev):

    11.0707  12.5644  16.0176  23.4099  31.9669  41.4705

          k =-0.2000-1.0000 0.0000 (   494 PWs)   bands (ev):

    10.7562  13.2570  17.4070  22.9242  27.9614  34.2328

          k = 0.6000-0.2000 1.0000 (   499 PWs)   bands (ev):

     8.9207  14.8212  17.0033  22.3396  34.4161  38.5041

          k = 0.5000-0.1000 0.9000 (   504 PWs)   bands (ev):

    11.3887  12.5683  16.2695  21.6105  36.5759  36.9039

          k =-0.4000-1.0000 0.0000 (   502 PWs)   bands (ev):

    12.1068  13.9116  14.3526  21.0073  34.0110  38.7372

     the Fermi energy is    14.7019 ev

!    total energy              =      -4.02215192 Ry
     estimated scf accuracy    <       0.00000016 Ry
     smearing contrib. (-TS)   =      -0.01841864 Ry
     internal energy E=F+TS    =      -4.00373328 Ry

     The total energy is F=E-TS. E is the sum of the following terms:
     one-electron contribution =       4.37428406 Ry
     hartree contribution      =       0.02594293 Ry
     xc contribution           =      -1.90519814 Ry
     ewald contribution        =      -6.49876212 Ry

     total magnetization       =     0.00 Bohr mag/cell
     absolute magnetization    =     0.00 Bohr mag/cell

     convergence has been achieved in  20 iterations
     Writing meta-gga kinetic term

     Writing all to output data dir ./input_pw/Al/0/pwscf.save/
     Writing meta-gga kinetic term
 
     init_run     :      1.23s CPU      2.93s WALL (       1 calls)
     electrons    :     54.99s CPU    112.30s WALL (       1 calls)

     Called by init_run:
     wfcinit      :      1.13s CPU      2.69s WALL (       1 calls)
     potinit      :      0.02s CPU      0.04s WALL (       1 calls)
     hinit0       :      0.07s CPU      0.19s WALL (       1 calls)

     Called by electrons:
     c_bands      :     46.59s CPU     95.18s WALL (      20 calls)
     sum_band     :      7.90s CPU     16.08s WALL (      20 calls)
     v_of_rho     :      0.36s CPU      0.73s WALL (      21 calls)
     mix_rho      :      0.13s CPU      0.29s WALL (      20 calls)

     Called by c_bands:
     init_us_2    :      0.24s CPU      0.43s WALL (    3854 calls)
     init_us_2:cp :      0.22s CPU      0.39s WALL (    3854 calls)
     cegterg      :     46.34s CPU     94.66s WALL (    1928 calls)

     Called by *egterg:
     cdiaghg      :      0.44s CPU      0.84s WALL (    6517 calls)
     h_psi        :     46.20s CPU     94.56s WALL (    6659 calls)
     g_psi        :      0.04s CPU      0.10s WALL (    4637 calls)

     Called by h_psi:
     h_psi:calbec :      0.11s CPU      0.29s WALL (    6659 calls)
     vloc_psi     :     11.40s CPU     24.51s WALL (    6659 calls)
     add_vuspsi   :      0.11s CPU      0.17s WALL (    6659 calls)
     h_psi_meta   :     34.48s CPU     69.34s WALL (    6659 calls)

     General routines
     calbec       :      0.09s CPU      0.22s WALL (    6659 calls)
     fft          :      0.07s CPU      0.12s WALL (     476 calls)
     ffts         :      0.05s CPU      0.10s WALL (     351 calls)
     fftw         :     48.40s CPU     99.35s WALL (  330736 calls)
     interpolate  :      0.00s CPU      0.00s WALL (      42 calls)
 
     Parallel routines
 
     PWSCF        :     56.26s CPU   1m55.36s WALL

 
   This run was terminated on:   9:50:55   4Apr2023            

=------------------------------------------------------------------------------=
   JOB DONE.
=------------------------------------------------------------------------------=
