
     Program PWSCF v.7.0 starts on 21Mar2023 at 11:18: 3 

     This program is part of the open-source Quantum ESPRESSO suite
     for quantum simulation of materials; please cite
         "P. Giannozzi et al., J. Phys.:Condens. Matter 21 395502 (2009);
         "P. Giannozzi et al., J. Phys.:Condens. Matter 29 465901 (2017);
         "P. Giannozzi et al., J. Chem. Phys. 152 154105 (2020);
          URL http://www.quantum-espresso.org", 
     in publications or presentations arising from this work. More details at
     http://www.quantum-espresso.org/quote

     Parallel version (MPI), running on     1 processors

     MPI processes distributed on     1 nodes
     24768 MiB available memory on the printing compute node when the environment starts
 
     Waiting for input...
     Reading input from standard input
Warning: card &CELL ignored
Warning: card / ignored

     Current dimensions of program PWSCF are:
     Max number of different atomic species (ntypx) = 10
     Max number of k-points (npk) =  40000
     Max angular momentum in pseudopotentials (lmaxx) =  4
     file Al.SCAN.UPF2: wavefunction(s)  0D renormalized

     WARNING: the MGGA functional with ID    5 has been 
     read together with other dft terms, but it should 
     stand alone in order to work properly. The other 
     terms will be ignored.

     Subspace diagonalization in iterative solution of the eigenvalue problem:
     a serial algorithm will be used

 
     G-vector sticks info
     --------------------
     sticks:   dense  smooth     PW     G-vecs:    dense   smooth      PW
     Sum         313     313    109                 3647     3647     725
 
     Using Slab Decomposition
 


     bravais-lattice index     =            2
     lattice parameter (alat)  =       6.1227  a.u.
     unit-cell volume          =      57.3815 (a.u.)^3
     number of atoms/cell      =            1
     number of atomic types    =            1
     number of electrons       =         3.00
     number of Kohn-Sham states=            6
     kinetic-energy cutoff     =      60.0000  Ry
     charge density cutoff     =     240.0000  Ry
     scf convergence threshold =      1.0E-06
     mixing beta               =       0.0100
     number of iterations used =            8  local-TF  mixing
     Exchange-correlation= SLA  PW   SCAN SCAN
                           (   0   0   0   0   0 263 267)

     celldm(1)=   6.122713  celldm(2)=   0.000000  celldm(3)=   0.000000
     celldm(4)=   0.000000  celldm(5)=   0.000000  celldm(6)=   0.000000

     crystal axes: (cart. coord. in units of alat)
               a(1) = (  -0.500000   0.000000   0.500000 )  
               a(2) = (   0.000000   0.500000   0.500000 )  
               a(3) = (  -0.500000   0.500000   0.000000 )  

     reciprocal axes: (cart. coord. in units 2 pi/alat)
               b(1) = ( -1.000000 -1.000000  1.000000 )  
               b(2) = (  1.000000  1.000000  1.000000 )  
               b(3) = ( -1.000000  1.000000 -1.000000 )  


     PseudoPot. # 1 for Al read from file:
     ~/Documents/TA/PWDFT.jl/pseudopotentials/scan_upf/Al.SCAN.UPF2
     MD5 check sum: Not computed, couldn't open file
     Pseudo is Norm-conserving, Zval =  3.0
     Generated by new atomic code, or converted to UPF format
     Using radial grid of 1467 points,  2 beta functions with: 
                l(1) =   0
                l(2) =   1

     atomic species   valence    mass     pseudopotential
        Al             3.00    26.98154     Al( 1.00)

     48 Sym. Ops., with inversion, found



   Cartesian axes

     site n.     atom                  positions (alat units)
         1           Al  tau(   1) = (   0.0000000   0.0000000   0.0000000  )

     number of k points=    47  Gaussian smearing, width (Ry)=  0.1000
                       cart. coord. in units 2pi/alat
        k(    1) = (   0.0000000   0.0000000   0.0000000), wk =   0.0020000
        k(    2) = (  -0.1000000   0.1000000  -0.1000000), wk =   0.0160000
        k(    3) = (  -0.2000000   0.2000000  -0.2000000), wk =   0.0160000
        k(    4) = (  -0.3000000   0.3000000  -0.3000000), wk =   0.0160000
        k(    5) = (  -0.4000000   0.4000000  -0.4000000), wk =   0.0160000
        k(    6) = (   0.5000000  -0.5000000   0.5000000), wk =   0.0080000
        k(    7) = (   0.0000000   0.2000000   0.0000000), wk =   0.0120000
        k(    8) = (  -0.1000000   0.3000000  -0.1000000), wk =   0.0480000
        k(    9) = (  -0.2000000   0.4000000  -0.2000000), wk =   0.0480000
        k(   10) = (  -0.3000000   0.5000000  -0.3000000), wk =   0.0480000
        k(   11) = (   0.6000000  -0.4000000   0.6000000), wk =   0.0480000
        k(   12) = (   0.5000000  -0.3000000   0.5000000), wk =   0.0480000
        k(   13) = (   0.4000000  -0.2000000   0.4000000), wk =   0.0480000
        k(   14) = (   0.3000000  -0.1000000   0.3000000), wk =   0.0480000
        k(   15) = (   0.2000000   0.0000000   0.2000000), wk =   0.0240000
        k(   16) = (   0.0000000   0.4000000   0.0000000), wk =   0.0120000
        k(   17) = (  -0.1000000   0.5000000  -0.1000000), wk =   0.0480000
        k(   18) = (  -0.2000000   0.6000000  -0.2000000), wk =   0.0480000
        k(   19) = (   0.7000000  -0.3000000   0.7000000), wk =   0.0480000
        k(   20) = (   0.6000000  -0.2000000   0.6000000), wk =   0.0480000
        k(   21) = (   0.5000000  -0.1000000   0.5000000), wk =   0.0480000
        k(   22) = (   0.4000000   0.0000000   0.4000000), wk =   0.0240000
        k(   23) = (   0.0000000   0.6000000   0.0000000), wk =   0.0120000
        k(   24) = (  -0.1000000   0.7000000  -0.1000000), wk =   0.0480000
        k(   25) = (   0.8000000  -0.2000000   0.8000000), wk =   0.0480000
        k(   26) = (   0.7000000  -0.1000000   0.7000000), wk =   0.0480000
        k(   27) = (   0.6000000  -0.0000000   0.6000000), wk =   0.0240000
        k(   28) = (   0.0000000   0.8000000   0.0000000), wk =   0.0120000
        k(   29) = (   0.9000000  -0.1000000   0.9000000), wk =   0.0480000
        k(   30) = (   0.8000000   0.0000000   0.8000000), wk =   0.0240000
        k(   31) = (   0.0000000  -1.0000000   0.0000000), wk =   0.0060000
        k(   32) = (  -0.2000000   0.4000000   0.0000000), wk =   0.0480000
        k(   33) = (  -0.3000000   0.5000000  -0.1000000), wk =   0.0960000
        k(   34) = (   0.6000000  -0.4000000   0.8000000), wk =   0.0960000
        k(   35) = (   0.5000000  -0.3000000   0.7000000), wk =   0.0480000
        k(   36) = (  -0.2000000   0.6000000   0.0000000), wk =   0.0480000
        k(   37) = (   0.7000000  -0.3000000   0.9000000), wk =   0.0960000
        k(   38) = (   0.6000000  -0.2000000   0.8000000), wk =   0.0960000
        k(   39) = (   0.5000000  -0.1000000   0.7000000), wk =   0.0960000
        k(   40) = (   0.4000000   0.0000000   0.6000000), wk =   0.0480000
        k(   41) = (   0.8000000  -0.2000000   1.0000000), wk =   0.0480000
        k(   42) = (   0.7000000  -0.1000000   0.9000000), wk =   0.0960000
        k(   43) = (   0.6000000   0.0000000   0.8000000), wk =   0.0480000
        k(   44) = (  -0.2000000  -1.0000000   0.0000000), wk =   0.0240000
        k(   45) = (   0.6000000  -0.2000000   1.0000000), wk =   0.0480000
        k(   46) = (   0.5000000  -0.1000000   0.9000000), wk =   0.0480000
        k(   47) = (  -0.4000000  -1.0000000   0.0000000), wk =   0.0240000

     Dense  grid:     3647 G-vectors     FFT dimensions: (  24,  24,  24)

     Estimated max dynamical RAM per process >       7.83 MB

     WARNING: libxc functional with ID  263 depends
      on external parameters: check the user_guide of
      QE if you need to modify them or to check their
      default values.

     Initial potential from superposition of free atoms

     starting charge       2.9979, renormalised to       3.0000
     Starting wfcs are    9 randomized atomic wfcs

     total cpu time spent up to now is        1.7 secs

     Self-consistent Calculation

     iteration #  1     ecut=    60.00 Ry     beta= 0.01
     Davidson diagonalization with overlap
     ethr =  1.00E-02,  avg # of iterations =  5.4

     Threshold (ethr) on eigenvalues was too large:
     Diagonalizing with lowered threshold

     Davidson diagonalization with overlap
     ethr =  4.66E-04,  avg # of iterations =  1.2

     total cpu time spent up to now is        9.9 secs

     total energy              =      -3.94806355 Ry
     estimated scf accuracy    <       0.01402147 Ry

     iteration #  2     ecut=    60.00 Ry     beta= 0.01
     Davidson diagonalization with overlap
     ethr =  4.67E-04,  avg # of iterations =  1.0

     total cpu time spent up to now is       12.5 secs

     total energy              =      -3.94629475 Ry
     estimated scf accuracy    <       0.01382066 Ry

     iteration #  3     ecut=    60.00 Ry     beta= 0.01
     Davidson diagonalization with overlap
     ethr =  4.61E-04,  avg # of iterations =  1.0

     total cpu time spent up to now is       15.2 secs

     total energy              =      -3.94801825 Ry
     estimated scf accuracy    <       0.00073260 Ry

     iteration #  4     ecut=    60.00 Ry     beta= 0.01
     Davidson diagonalization with overlap
     ethr =  2.44E-05,  avg # of iterations =  1.5

     total cpu time spent up to now is       18.2 secs

     total energy              =      -3.94805166 Ry
     estimated scf accuracy    <       0.00067525 Ry

     iteration #  5     ecut=    60.00 Ry     beta= 0.01
     Davidson diagonalization with overlap
     ethr =  2.25E-05,  avg # of iterations =  1.0

     total cpu time spent up to now is       21.1 secs

     total energy              =      -3.94843819 Ry
     estimated scf accuracy    <       0.00069184 Ry

     iteration #  6     ecut=    60.00 Ry     beta= 0.01
     Davidson diagonalization with overlap
     ethr =  2.25E-05,  avg # of iterations =  2.1

     total cpu time spent up to now is       24.1 secs

     total energy              =      -3.94850560 Ry
     estimated scf accuracy    <       0.00004206 Ry

     iteration #  7     ecut=    60.00 Ry     beta= 0.01
     Davidson diagonalization with overlap
     ethr =  1.40E-06,  avg # of iterations =  1.7

     total cpu time spent up to now is       26.7 secs

     total energy              =      -3.94850902 Ry
     estimated scf accuracy    <       0.00001811 Ry

     iteration #  8     ecut=    60.00 Ry     beta= 0.01
     Davidson diagonalization with overlap
     ethr =  6.04E-07,  avg # of iterations =  1.0

     total cpu time spent up to now is       29.6 secs

     total energy              =      -3.94851794 Ry
     estimated scf accuracy    <       0.00001351 Ry

     iteration #  9     ecut=    60.00 Ry     beta= 0.01
     Davidson diagonalization with overlap
     ethr =  4.50E-07,  avg # of iterations =  1.7

     total cpu time spent up to now is       32.8 secs

     total energy              =      -3.94852280 Ry
     estimated scf accuracy    <       0.00000314 Ry

     iteration # 10     ecut=    60.00 Ry     beta= 0.01
     Davidson diagonalization with overlap
     ethr =  1.05E-07,  avg # of iterations =  1.0

     total cpu time spent up to now is       35.2 secs

     total energy              =      -3.94852251 Ry
     estimated scf accuracy    <       0.00000188 Ry

     iteration # 11     ecut=    60.00 Ry     beta= 0.01
     Davidson diagonalization with overlap
     ethr =  6.26E-08,  avg # of iterations =  1.0

     total cpu time spent up to now is       37.6 secs

     total energy              =      -3.94852134 Ry
     estimated scf accuracy    <       0.00000131 Ry

     iteration # 12     ecut=    60.00 Ry     beta= 0.01
     Davidson diagonalization with overlap
     ethr =  4.35E-08,  avg # of iterations =  2.0

     total cpu time spent up to now is       40.1 secs

     End of self-consistent calculation

          k = 0.0000 0.0000 0.0000 (   459 PWs)   bands (ev):

    -0.4279  33.9910  33.9910  33.9910  39.7116  42.2785

          k =-0.1000 0.1000-0.1000 (   456 PWs)   bands (ev):

     0.0098  29.9629  33.8015  33.8015  40.4491  42.3119

          k =-0.2000 0.2000-0.2000 (   459 PWs)   bands (ev):

     1.3062  24.3136  33.3318  33.3318  39.1663  40.9040

          k =-0.3000 0.3000-0.3000 (   456 PWs)   bands (ev):

     3.4115  19.0186  32.7643  32.7643  38.2390  39.2937

          k =-0.4000 0.4000-0.4000 (   443 PWs)   bands (ev):

     6.2288  14.2996  32.2949  32.2949  37.9057  38.3336

          k = 0.5000-0.5000 0.5000 (   464 PWs)   bands (ev):

     8.8836  11.0157  32.1115  32.1115  37.8929  38.0285

          k = 0.0000 0.2000 0.0000 (   451 PWs)   bands (ev):

     0.1551  30.7665  32.5059  32.5059  38.4948  43.0249

          k =-0.1000 0.3000-0.1000 (   462 PWs)   bands (ev):

     1.1637  26.1956  31.5204  32.3869  36.3566  42.0222

          k =-0.2000 0.4000-0.2000 (   457 PWs)   bands (ev):

     2.9967  20.9339  30.9128  31.1757  35.7562  42.3158

          k =-0.3000 0.5000-0.3000 (   447 PWs)   bands (ev):

     5.5781  16.0788  29.7383  30.7338  35.5835  41.1547

          k = 0.6000-0.4000 0.6000 (   451 PWs)   bands (ev):

     8.6371  11.9871  28.6792  31.0566  35.9217  39.8264

          k = 0.5000-0.3000 0.5000 (   447 PWs)   bands (ev):

     7.6233  13.2036  28.1374  31.9609  36.8826  38.8676

          k = 0.4000-0.2000 0.4000 (   449 PWs)   bands (ev):

     4.6411  17.6147  28.1733  33.4816  38.1171  38.4056

          k = 0.3000-0.1000 0.3000 (   457 PWs)   bands (ev):

     2.2975  22.5477  28.8650  35.3006  37.6152  40.2483

          k = 0.2000 0.0000 0.2000 (   461 PWs)   bands (ev):

     0.7331  27.2594  30.6582  35.1604  39.3253  41.8545

          k = 0.0000 0.4000 0.0000 (   463 PWs)   bands (ev):

     1.8757  26.8373  30.2118  30.2118  31.5032  40.0180

          k =-0.1000 0.5000-0.1000 (   449 PWs)   bands (ev):

     3.4149  23.0859  27.8269  29.4169  31.4213  39.7485

          k =-0.2000 0.6000-0.2000 (   452 PWs)   bands (ev):

     5.7188  18.3804  25.6340  29.1376  32.2763  41.8859

          k = 0.7000-0.3000 0.7000 (   447 PWs)   bands (ev):

     8.6428  14.0919  24.0942  29.4006  32.9978  43.6865

          k = 0.6000-0.2000 0.6000 (   453 PWs)   bands (ev):

     9.6306  12.8831  23.2035  30.2553  34.1455  42.2676

          k = 0.5000-0.1000 0.5000 (   448 PWs)   bands (ev):

     6.6328  16.6953  23.1390  31.7542  35.8724  40.7593

          k = 0.4000 0.0000 0.4000 (   449 PWs)   bands (ev):

     4.0988  20.3789  24.6700  33.8940  38.0876  38.6544

          k = 0.0000 0.6000 0.0000 (   444 PWs)   bands (ev):

     4.6499  23.9136  24.6989  28.4418  28.4418  37.6491

          k =-0.1000 0.7000-0.1000 (   450 PWs)   bands (ev):

     6.6505  20.6733  22.1010  27.9993  29.2201  37.9241

          k = 0.8000-0.2000 0.8000 (   451 PWs)   bands (ev):

     9.3083  16.5826  20.2267  28.0961  30.4031  40.6684

          k = 0.7000-0.1000 0.7000 (   451 PWs)   bands (ev):

    11.8308  13.4561  19.1019  28.7522  31.7191  45.0585

          k = 0.6000-0.0000 0.6000 (   447 PWs)   bands (ev):

     9.2877  15.5492  19.6231  29.9867  33.5377  44.4134

          k = 0.0000 0.8000 0.0000 (   452 PWs)   bands (ev):

     8.3277  18.6573  22.1401  27.3849  27.3849  36.0931

          k = 0.9000-0.1000 0.9000 (   454 PWs)   bands (ev):

    10.6137  16.1490  20.1139  27.3017  28.2302  36.9513

          k = 0.8000 0.0000 0.8000 (   442 PWs)   bands (ev):

    12.7194  14.4552  17.7169  27.7556  29.7904  40.2446

          k = 0.0000-1.0000 0.0000 (   444 PWs)   bands (ev):

    11.7894  14.4260  21.5468  27.0369  27.0369  35.5474

          k =-0.2000 0.4000 0.0000 (   451 PWs)   bands (ev):

     2.4386  23.7489  27.6920  33.3691  34.1305  41.6758

          k =-0.3000 0.5000-0.1000 (   450 PWs)   bands (ev):

     4.5081  19.5757  25.7901  31.1466  35.7169  41.3867

          k = 0.6000-0.4000 0.8000 (   445 PWs)   bands (ev):

     7.2733  15.1463  25.1493  29.6459  36.6733  39.5363

          k = 0.5000-0.3000 0.7000 (   452 PWs)   bands (ev):

     9.8636  11.9758  24.9992  29.1060  37.2140  38.5998

          k =-0.2000 0.6000 0.0000 (   447 PWs)   bands (ev):

     5.1873  21.1718  23.9293  28.3276  32.2255  39.5778

          k = 0.7000-0.3000 0.9000 (   445 PWs)   bands (ev):

     7.6769  17.4982  21.9694  27.0722  34.0116  41.5799

          k = 0.6000-0.2000 0.8000 (   449 PWs)   bands (ev):

    10.6152  13.7229  21.0253  26.8182  35.3802  42.3314

          k = 0.5000-0.1000 0.7000 (   447 PWs)   bands (ev):

     9.6373  14.7588  20.6950  27.5765  36.9296  40.7213

          k = 0.4000 0.0000 0.6000 (   450 PWs)   bands (ev):

     6.7683  17.9271  21.8490  29.1551  38.4761  38.9533

          k = 0.8000-0.2000 1.0000 (   453 PWs)   bands (ev):

     8.8257  18.8017  19.6074  26.1863  30.9987  38.2195

          k = 0.7000-0.1000 0.9000 (   450 PWs)   bands (ev):

    11.5327  15.8049  17.9394  25.4797  33.1217  40.7839

          k = 0.6000 0.0000 0.8000 (   449 PWs)   bands (ev):

    12.4901  14.1212  17.7833  26.0658  34.9297  44.8853

          k =-0.2000-1.0000 0.0000 (   456 PWs)   bands (ev):

    12.2530  14.7527  19.0834  25.6073  30.5882  37.7513

          k = 0.6000-0.2000 1.0000 (   450 PWs)   bands (ev):

    10.2783  16.4528  18.6960  25.0587  37.3641  41.7266

          k = 0.5000-0.1000 0.9000 (   450 PWs)   bands (ev):

    12.8152  14.1516  17.9095  24.3262  39.6633  40.1526

          k =-0.4000-1.0000 0.0000 (   454 PWs)   bands (ev):

    13.6459  15.3851  15.9614  23.7273  36.9494  42.3312

     the Fermi energy is    16.3381 ev

!    total energy              =      -3.94852116 Ry
     estimated scf accuracy    <       0.00000022 Ry
     smearing contrib. (-TS)   =      -0.01737185 Ry
     internal energy E=F+TS    =      -3.93114930 Ry

     The total energy is F=E-TS. E is the sum of the following terms:
     one-electron contribution =       4.74890545 Ry
     hartree contribution      =       0.03102181 Ry
     xc contribution           =      -1.97161955 Ry
     ewald contribution        =      -6.73945701 Ry

     convergence has been achieved in  12 iterations
     Writing meta-gga kinetic term

     Writing all to output data dir ./input_pw/Al/0/pwscf.save/
     Writing meta-gga kinetic term
 
     init_run     :      0.63s CPU      1.61s WALL (       1 calls)
     electrons    :     13.73s CPU     38.39s WALL (       1 calls)

     Called by init_run:
     wfcinit      :      0.55s CPU      1.26s WALL (       1 calls)
     potinit      :      0.01s CPU      0.03s WALL (       1 calls)
     hinit0       :      0.07s CPU      0.30s WALL (       1 calls)

     Called by electrons:
     c_bands      :     11.01s CPU     30.84s WALL (      13 calls)
     sum_band     :      2.56s CPU      7.16s WALL (      13 calls)
     v_of_rho     :      0.11s CPU      0.26s WALL (      13 calls)
     mix_rho      :      0.05s CPU      0.13s WALL (      13 calls)

     Called by c_bands:
     init_us_2    :      0.07s CPU      0.14s WALL (    1269 calls)
     init_us_2:cp :      0.07s CPU      0.14s WALL (    1269 calls)
     cegterg      :     10.93s CPU     30.69s WALL (     611 calls)

     Called by *egterg:
     cdiaghg      :      0.10s CPU      0.44s WALL (    1579 calls)
     h_psi        :     11.20s CPU     30.91s WALL (    1673 calls)
     g_psi        :      0.01s CPU      0.02s WALL (    1015 calls)

     Called by h_psi:
     h_psi:calbec :      0.03s CPU      0.03s WALL (    1673 calls)
     vloc_psi     :      2.77s CPU      7.31s WALL (    1673 calls)
     add_vuspsi   :      0.03s CPU      0.10s WALL (    1673 calls)
     h_psi_meta   :      8.35s CPU     23.34s WALL (    1673 calls)

     General routines
     calbec       :      0.02s CPU      0.03s WALL (    1673 calls)
     fft          :      0.02s CPU      0.06s WALL (     155 calls)
     ffts         :      0.03s CPU      0.05s WALL (     187 calls)
     fftw         :     12.26s CPU     34.07s WALL (   84416 calls)
     interpolate  :      0.00s CPU      0.02s WALL (      13 calls)
 
     Parallel routines
 
     PWSCF        :     14.40s CPU     40.17s WALL

 
   This run was terminated on:  11:18:43  21Mar2023            

=------------------------------------------------------------------------------=
   JOB DONE.
=------------------------------------------------------------------------------=
