
     Program PWSCF v.7.0 starts on 21Mar2023 at 13:11:35 

     This program is part of the open-source Quantum ESPRESSO suite
     for quantum simulation of materials; please cite
         "P. Giannozzi et al., J. Phys.:Condens. Matter 21 395502 (2009);
         "P. Giannozzi et al., J. Phys.:Condens. Matter 29 465901 (2017);
         "P. Giannozzi et al., J. Chem. Phys. 152 154105 (2020);
          URL http://www.quantum-espresso.org", 
     in publications or presentations arising from this work. More details at
     http://www.quantum-espresso.org/quote

     Parallel version (MPI), running on     1 processors

     MPI processes distributed on     1 nodes
     24575 MiB available memory on the printing compute node when the environment starts
 
     Waiting for input...
     Reading input from standard input
Warning: card &CELL ignored
Warning: card / ignored

     Current dimensions of program PWSCF are:
     Max number of different atomic species (ntypx) = 10
     Max number of k-points (npk) =  40000
     Max angular momentum in pseudopotentials (lmaxx) =  4
     file Al.SCAN.UPF2: wavefunction(s)  0D renormalized

     WARNING: the MGGA functional with ID    5 has been 
     read together with other dft terms, but it should 
     stand alone in order to work properly. The other 
     terms will be ignored.

     Subspace diagonalization in iterative solution of the eigenvalue problem:
     a serial algorithm will be used

 
     G-vector sticks info
     --------------------
     sticks:   dense  smooth     PW     G-vecs:    dense   smooth      PW
     Sum        1099    1099    313                24045    24045    3839
 
     Using Slab Decomposition
 


     bravais-lattice index     =            2
     lattice parameter (alat)  =      11.5349  a.u.
     unit-cell volume          =     383.6897 (a.u.)^3
     number of atoms/cell      =            1
     number of atomic types    =            1
     number of electrons       =         3.00
     number of Kohn-Sham states=            6
     kinetic-energy cutoff     =      60.0000  Ry
     charge density cutoff     =     240.0000  Ry
     scf convergence threshold =      1.0E-06
     mixing beta               =       0.0100
     number of iterations used =            8  local-TF  mixing
     Exchange-correlation= SLA  PW   SCAN SCAN
                           (   0   0   0   0   0 263 267)

     celldm(1)=  11.534888  celldm(2)=   0.000000  celldm(3)=   0.000000
     celldm(4)=   0.000000  celldm(5)=   0.000000  celldm(6)=   0.000000

     crystal axes: (cart. coord. in units of alat)
               a(1) = (  -0.500000   0.000000   0.500000 )  
               a(2) = (   0.000000   0.500000   0.500000 )  
               a(3) = (  -0.500000   0.500000   0.000000 )  

     reciprocal axes: (cart. coord. in units 2 pi/alat)
               b(1) = ( -1.000000 -1.000000  1.000000 )  
               b(2) = (  1.000000  1.000000  1.000000 )  
               b(3) = ( -1.000000  1.000000 -1.000000 )  


     PseudoPot. # 1 for Al read from file:
     ~/Documents/TA/PWDFT.jl/pseudopotentials/scan_upf/Al.SCAN.UPF2
     MD5 check sum: Not computed, couldn't open file
     Pseudo is Norm-conserving, Zval =  3.0
     Generated by new atomic code, or converted to UPF format
     Using radial grid of 1467 points,  2 beta functions with: 
                l(1) =   0
                l(2) =   1

     atomic species   valence    mass     pseudopotential
        Al             3.00    26.98154     Al( 1.00)

     48 Sym. Ops., with inversion, found



   Cartesian axes

     site n.     atom                  positions (alat units)
         1           Al  tau(   1) = (   0.0000000   0.0000000   0.0000000  )

     number of k points=    47  Gaussian smearing, width (Ry)=  0.1000
                       cart. coord. in units 2pi/alat
        k(    1) = (   0.0000000   0.0000000   0.0000000), wk =   0.0020000
        k(    2) = (  -0.1000000   0.1000000  -0.1000000), wk =   0.0160000
        k(    3) = (  -0.2000000   0.2000000  -0.2000000), wk =   0.0160000
        k(    4) = (  -0.3000000   0.3000000  -0.3000000), wk =   0.0160000
        k(    5) = (  -0.4000000   0.4000000  -0.4000000), wk =   0.0160000
        k(    6) = (   0.5000000  -0.5000000   0.5000000), wk =   0.0080000
        k(    7) = (   0.0000000   0.2000000   0.0000000), wk =   0.0120000
        k(    8) = (  -0.1000000   0.3000000  -0.1000000), wk =   0.0480000
        k(    9) = (  -0.2000000   0.4000000  -0.2000000), wk =   0.0480000
        k(   10) = (  -0.3000000   0.5000000  -0.3000000), wk =   0.0480000
        k(   11) = (   0.6000000  -0.4000000   0.6000000), wk =   0.0480000
        k(   12) = (   0.5000000  -0.3000000   0.5000000), wk =   0.0480000
        k(   13) = (   0.4000000  -0.2000000   0.4000000), wk =   0.0480000
        k(   14) = (   0.3000000  -0.1000000   0.3000000), wk =   0.0480000
        k(   15) = (   0.2000000   0.0000000   0.2000000), wk =   0.0240000
        k(   16) = (   0.0000000   0.4000000   0.0000000), wk =   0.0120000
        k(   17) = (  -0.1000000   0.5000000  -0.1000000), wk =   0.0480000
        k(   18) = (  -0.2000000   0.6000000  -0.2000000), wk =   0.0480000
        k(   19) = (   0.7000000  -0.3000000   0.7000000), wk =   0.0480000
        k(   20) = (   0.6000000  -0.2000000   0.6000000), wk =   0.0480000
        k(   21) = (   0.5000000  -0.1000000   0.5000000), wk =   0.0480000
        k(   22) = (   0.4000000   0.0000000   0.4000000), wk =   0.0240000
        k(   23) = (   0.0000000   0.6000000   0.0000000), wk =   0.0120000
        k(   24) = (  -0.1000000   0.7000000  -0.1000000), wk =   0.0480000
        k(   25) = (   0.8000000  -0.2000000   0.8000000), wk =   0.0480000
        k(   26) = (   0.7000000  -0.1000000   0.7000000), wk =   0.0480000
        k(   27) = (   0.6000000  -0.0000000   0.6000000), wk =   0.0240000
        k(   28) = (   0.0000000   0.8000000   0.0000000), wk =   0.0120000
        k(   29) = (   0.9000000  -0.1000000   0.9000000), wk =   0.0480000
        k(   30) = (   0.8000000   0.0000000   0.8000000), wk =   0.0240000
        k(   31) = (   0.0000000  -1.0000000   0.0000000), wk =   0.0060000
        k(   32) = (  -0.2000000   0.4000000   0.0000000), wk =   0.0480000
        k(   33) = (  -0.3000000   0.5000000  -0.1000000), wk =   0.0960000
        k(   34) = (   0.6000000  -0.4000000   0.8000000), wk =   0.0960000
        k(   35) = (   0.5000000  -0.3000000   0.7000000), wk =   0.0480000
        k(   36) = (  -0.2000000   0.6000000   0.0000000), wk =   0.0480000
        k(   37) = (   0.7000000  -0.3000000   0.9000000), wk =   0.0960000
        k(   38) = (   0.6000000  -0.2000000   0.8000000), wk =   0.0960000
        k(   39) = (   0.5000000  -0.1000000   0.7000000), wk =   0.0960000
        k(   40) = (   0.4000000   0.0000000   0.6000000), wk =   0.0480000
        k(   41) = (   0.8000000  -0.2000000   1.0000000), wk =   0.0480000
        k(   42) = (   0.7000000  -0.1000000   0.9000000), wk =   0.0960000
        k(   43) = (   0.6000000   0.0000000   0.8000000), wk =   0.0480000
        k(   44) = (  -0.2000000  -1.0000000   0.0000000), wk =   0.0240000
        k(   45) = (   0.6000000  -0.2000000   1.0000000), wk =   0.0480000
        k(   46) = (   0.5000000  -0.1000000   0.9000000), wk =   0.0480000
        k(   47) = (  -0.4000000  -1.0000000   0.0000000), wk =   0.0240000

     Dense  grid:    24045 G-vectors     FFT dimensions: (  45,  45,  45)

     Estimated max dynamical RAM per process >      51.19 MB

     WARNING: libxc functional with ID  263 depends
      on external parameters: check the user_guide of
      QE if you need to modify them or to check their
      default values.

     Initial potential from superposition of free atoms

     starting charge       2.9979, renormalised to       3.0000
     Starting wfcs are    9 randomized atomic wfcs

     total cpu time spent up to now is       13.0 secs

     Self-consistent Calculation

     iteration #  1     ecut=    60.00 Ry     beta= 0.01
     Davidson diagonalization with overlap
     ethr =  1.00E-02,  avg # of iterations =  3.0

     Threshold (ethr) on eigenvalues was too large:
     Diagonalizing with lowered threshold

     Davidson diagonalization with overlap
     ethr =  1.30E-04,  avg # of iterations =  2.2

     total cpu time spent up to now is       74.3 secs

     total energy              =      -4.01443951 Ry
     estimated scf accuracy    <       0.00367226 Ry

     iteration #  2     ecut=    60.00 Ry     beta= 0.01
     Davidson diagonalization with overlap
     ethr =  1.22E-04,  avg # of iterations =  1.0

     total cpu time spent up to now is      100.1 secs

     total energy              =      -4.01824260 Ry
     estimated scf accuracy    <       0.00358802 Ry

     iteration #  3     ecut=    60.00 Ry     beta= 0.01
     Davidson diagonalization with overlap
     ethr =  1.20E-04,  avg # of iterations =  2.0

     total cpu time spent up to now is      130.4 secs

     total energy              =      -4.01935204 Ry
     estimated scf accuracy    <       0.00023801 Ry

     iteration #  4     ecut=    60.00 Ry     beta= 0.01
     Davidson diagonalization with overlap
     ethr =  7.93E-06,  avg # of iterations =  2.8

     total cpu time spent up to now is      166.1 secs

     total energy              =      -4.01944517 Ry
     estimated scf accuracy    <       0.00005895 Ry

     iteration #  5     ecut=    60.00 Ry     beta= 0.01
     Davidson diagonalization with overlap
     ethr =  1.97E-06,  avg # of iterations =  1.7

     total cpu time spent up to now is      192.9 secs

     total energy              =      -4.01942321 Ry
     estimated scf accuracy    <       0.00005588 Ry

     iteration #  6     ecut=    60.00 Ry     beta= 0.01
     Davidson diagonalization with overlap
     ethr =  1.86E-06,  avg # of iterations =  1.9

     total cpu time spent up to now is      219.2 secs

     total energy              =      -4.01942561 Ry
     estimated scf accuracy    <       0.00004478 Ry

     iteration #  7     ecut=    60.00 Ry     beta= 0.01
     Davidson diagonalization with overlap
     ethr =  1.49E-06,  avg # of iterations =  2.0

     total cpu time spent up to now is      251.1 secs

     total energy              =      -4.01944185 Ry
     estimated scf accuracy    <       0.00000171 Ry

     iteration #  8     ecut=    60.00 Ry     beta= 0.01
     Davidson diagonalization with overlap
     ethr =  5.70E-08,  avg # of iterations =  1.0

     total cpu time spent up to now is      274.0 secs

     total energy              =      -4.01944216 Ry
     estimated scf accuracy    <       0.00000182 Ry

     iteration #  9     ecut=    60.00 Ry     beta= 0.01
     Davidson diagonalization with overlap
     ethr =  5.70E-08,  avg # of iterations =  1.0

     total cpu time spent up to now is      292.8 secs

     total energy              =      -4.01944483 Ry
     estimated scf accuracy    <       0.00000172 Ry

     iteration # 10     ecut=    60.00 Ry     beta= 0.01
     Davidson diagonalization with overlap
     ethr =  5.70E-08,  avg # of iterations =  2.0

     total cpu time spent up to now is      314.6 secs

     End of self-consistent calculation

          k = 0.0000 0.0000 0.0000 (  2975 PWs)   bands (ev):

    -5.7962   4.2536   4.2536   4.2536   8.1358   8.1359

          k =-0.1000 0.1000-0.1000 (  3002 PWs)   bands (ev):

    -5.6883   3.5030   4.1606   4.1606   7.7049   8.3343

          k =-0.2000 0.2000-0.2000 (  2999 PWs)   bands (ev):

    -5.3720   2.0651   3.9558   3.9558   7.1583   8.5415

          k =-0.3000 0.3000-0.3000 (  2995 PWs)   bands (ev):

    -4.8783   0.6138   3.7551   3.7551   6.7530   8.2002

          k =-0.4000 0.4000-0.4000 (  2989 PWs)   bands (ev):

    -4.3095  -0.5668   3.6216   3.6216   6.5204   7.8282

          k = 0.5000-0.5000 0.5000 (  2998 PWs)   bands (ev):

    -3.9989  -1.0862   3.5759   3.5759   6.4457   7.6895

          k = 0.0000 0.2000 0.0000 (  2995 PWs)   bands (ev):

    -5.6523   3.6732   3.9155   3.9155   7.4606   8.6614

          k =-0.1000 0.3000-0.1000 (  2991 PWs)   bands (ev):

    -5.4049   2.5408   3.6255   3.7897   7.1941   8.3841

          k =-0.2000 0.4000-0.2000 (  2992 PWs)   bands (ev):

    -4.9675   1.1244   3.4095   3.5168   6.9952   7.9944

          k =-0.3000 0.5000-0.3000 (  3005 PWs)   bands (ev):

    -4.4089  -0.1437   3.2111   3.3200   6.7833   7.6249

          k = 0.6000-0.4000 0.6000 (  3003 PWs)   bands (ev):

    -3.9617  -0.9267   2.9706   3.3678   6.7452   7.4489

          k = 0.5000-0.3000 0.5000 (  3018 PWs)   bands (ev):

    -4.0715  -0.7477   2.8453   3.5364   6.9065   7.4822

          k = 0.4000-0.2000 0.4000 (  3013 PWs)   bands (ev):

    -4.6014   0.2493   2.8675   3.7862   7.1753   7.7979

          k = 0.3000-0.1000 0.3000 (  3004 PWs)   bands (ev):

    -5.1329   1.5863   3.0631   4.0484   7.4986   8.2984

          k = 0.2000 0.0000 0.2000 (  2994 PWs)   bands (ev):

    -5.5107   2.8544   3.5183   4.2119   7.7886   8.2025

          k = 0.0000 0.4000 0.0000 (  2982 PWs)   bands (ev):

    -5.2289   2.5210   3.2615   3.2615   6.4665   7.3233

          k =-0.1000 0.5000-0.1000 (  2993 PWs)   bands (ev):

    -4.8585   1.5438   2.9001   2.9949   6.3090   6.8744

          k =-0.2000 0.6000-0.2000 (  3019 PWs)   bands (ev):

    -4.3433   0.3909   2.3870   2.8810   6.0578   7.5705

          k = 0.7000-0.3000 0.7000 (  3020 PWs)   bands (ev):

    -3.8429  -0.4973   1.9356   2.9350   6.0072   8.3023

          k = 0.6000-0.2000 0.6000 (  3010 PWs)   bands (ev):

    -3.7500  -0.6348   1.6493   3.1467   6.2416   8.4801

          k = 0.5000-0.1000 0.5000 (  3014 PWs)   bands (ev):

    -4.1746   0.0846   1.5925   3.4765   6.7425   8.4991

          k = 0.4000 0.0000 0.4000 (  3022 PWs)   bands (ev):

    -4.7102   1.0311   1.9755   3.8338   7.4557   8.3181

          k = 0.0000 0.6000 0.0000 (  3022 PWs)   bands (ev):

    -4.5606   1.2396   2.6726   2.6726   5.6876   5.8182

          k =-0.1000 0.7000-0.1000 (  3014 PWs)   bands (ev):

    -4.1143   0.5217   2.0935   2.5087   5.4013   6.0237

          k = 0.8000-0.2000 0.8000 (  3019 PWs)   bands (ev):

    -3.6410  -0.0965   1.2619   2.5250   5.3293   7.1856

          k = 0.7000-0.1000 0.7000 (  3026 PWs)   bands (ev):

    -3.4353  -0.2557   0.6480   2.7188   5.5441   8.5913

          k = 0.6000-0.0000 0.6000 (  3012 PWs)   bands (ev):

    -3.7014   0.0579   0.5896   3.0617   6.0273   9.7111

          k = 0.0000 0.8000 0.0000 (  3022 PWs)   bands (ev):

    -3.7620   0.0234   2.2888   2.2888   4.8935   5.2078

          k = 0.9000-0.1000 0.9000 (  3007 PWs)   bands (ev):

    -3.4068  -0.3677   1.6703   2.2516   4.8788   5.6782

          k = 0.8000 0.0000 0.8000 (  3008 PWs)   bands (ev):

    -3.2700  -0.2992   0.7639   2.4011   5.0878   7.0477

          k = 0.0000-1.0000 0.0000 (  3026 PWs)   bands (ev):

    -3.2888  -0.6019   2.1569   2.1569   4.5911   5.0464

          k =-0.2000 0.4000 0.0000 (  3002 PWs)   bands (ev):

    -5.0957   1.8706   2.7881   3.7126   7.1689   7.7489

          k =-0.3000 0.5000-0.1000 (  3006 PWs)   bands (ev):

    -4.6156   0.7553   2.3141   3.4334   7.0972   7.7194

          k = 0.6000-0.4000 0.8000 (  3018 PWs)   bands (ev):

    -4.0698  -0.3145   2.1537   3.1350   6.9105   7.5083

          k = 0.5000-0.3000 0.7000 (  3012 PWs)   bands (ev):

    -3.7778  -0.7945   2.1203   3.0092   6.8723   7.3541

          k =-0.2000 0.6000 0.0000 (  3014 PWs)   bands (ev):

    -4.4464   0.9365   2.1519   2.7856   6.3819   6.4832

          k = 0.7000-0.3000 0.9000 (  3022 PWs)   bands (ev):

    -3.9368   0.1594   1.5874   2.4677   6.2372   7.4172

          k = 0.6000-0.2000 0.8000 (  3011 PWs)   bands (ev):

    -3.5567  -0.3884   1.2029   2.4186   6.3206   8.2061

          k = 0.5000-0.1000 0.7000 (  3023 PWs)   bands (ev):

    -3.6606  -0.2138   1.0206   2.6460   6.6198   8.2167

          k = 0.4000 0.0000 0.6000 (  3023 PWs)   bands (ev):

    -4.1291   0.3913   1.2941   3.0468   7.0515   8.1260

          k = 0.8000-0.2000 1.0000 (  3007 PWs)   bands (ev):

    -3.6886   0.0392   1.7434   2.0278   5.6033   6.0435

          k = 0.7000-0.1000 0.9000 (  3019 PWs)   bands (ev):

    -3.3468  -0.1757   0.9197   1.9519   5.8139   7.1719

          k = 0.6000 0.0000 0.8000 (  3023 PWs)   bands (ev):

    -3.3422   0.1478   0.2070   2.2029   6.1297   8.5628

          k =-0.2000-1.0000 0.0000 (  3006 PWs)   bands (ev):

    -3.2600  -0.4503   1.6039   1.7613   5.3573   5.8938

          k = 0.6000-0.2000 1.0000 (  3010 PWs)   bands (ev):

    -3.5108   0.0527   0.8635   1.8953   6.8830   7.7788

          k = 0.5000-0.1000 0.9000 (  3032 PWs)   bands (ev):

    -3.3073   0.0093   0.5738   1.6585   7.0013   8.3154

          k =-0.4000-1.0000 0.0000 (  3024 PWs)   bands (ev):

    -3.2112  -0.0017   0.7174   1.3119   6.7846   7.6518

     the Fermi energy is    -0.0453 ev

!    total energy              =      -4.01944711 Ry
     estimated scf accuracy    <       0.00000002 Ry
     smearing contrib. (-TS)   =      -0.06023255 Ry
     internal energy E=F+TS    =      -3.95921456 Ry

     The total energy is F=E-TS. E is the sum of the following terms:
     one-electron contribution =       0.64895594 Ry
     hartree contribution      =       0.18722650 Ry
     xc contribution           =      -1.21809675 Ry
     ewald contribution        =      -3.57730025 Ry

     convergence has been achieved in  10 iterations
     Writing meta-gga kinetic term

     Writing all to output data dir ./input_pw/Al/0/pwscf.save/
     Writing meta-gga kinetic term
 
     init_run     :      7.03s CPU     12.97s WALL (       1 calls)
     electrons    :    160.91s CPU    301.61s WALL (       1 calls)

     Called by init_run:
     wfcinit      :      6.86s CPU     12.59s WALL (       1 calls)
     potinit      :      0.07s CPU      0.25s WALL (       1 calls)
     hinit0       :      0.08s CPU      0.09s WALL (       1 calls)

     Called by electrons:
     c_bands      :    128.03s CPU    240.12s WALL (      11 calls)
     sum_band     :     31.33s CPU     58.61s WALL (      11 calls)
     v_of_rho     :      0.84s CPU      1.74s WALL (      11 calls)
     mix_rho      :      0.71s CPU      1.32s WALL (      11 calls)

     Called by c_bands:
     init_us_2    :      0.44s CPU      0.84s WALL (    1081 calls)
     init_us_2:cp :      0.43s CPU      0.82s WALL (    1081 calls)
     cegterg      :    127.52s CPU    239.24s WALL (     517 calls)

     Called by *egterg:
     cdiaghg      :      0.20s CPU      0.41s WALL (    1439 calls)
     h_psi        :    132.71s CPU    248.68s WALL (    1533 calls)
     g_psi        :      0.06s CPU      0.06s WALL (     969 calls)

     Called by h_psi:
     h_psi:calbec :      0.33s CPU      0.64s WALL (    1533 calls)
     vloc_psi     :     32.82s CPU     61.52s WALL (    1533 calls)
     add_vuspsi   :      0.19s CPU      0.35s WALL (    1533 calls)
     h_psi_meta   :     99.24s CPU    185.86s WALL (    1533 calls)

     General routines
     calbec       :      0.32s CPU      0.62s WALL (    1533 calls)
     fft          :      0.22s CPU      0.44s WALL (     131 calls)
     ffts         :      0.27s CPU      0.51s WALL (     159 calls)
     fftw         :    126.03s CPU    237.00s WALL (   75832 calls)
     interpolate  :      0.00s CPU      0.01s WALL (      11 calls)
 
     Parallel routines
 
     PWSCF        :   2m48.00s CPU   5m14.70s WALL

 
   This run was terminated on:  13:16:50  21Mar2023            

=------------------------------------------------------------------------------=
   JOB DONE.
=------------------------------------------------------------------------------=
