
     Program PWSCF v.7.0 starts on  4Apr2023 at  8:56:52 

     This program is part of the open-source Quantum ESPRESSO suite
     for quantum simulation of materials; please cite
         "P. Giannozzi et al., J. Phys.:Condens. Matter 21 395502 (2009);
         "P. Giannozzi et al., J. Phys.:Condens. Matter 29 465901 (2017);
         "P. Giannozzi et al., J. Chem. Phys. 152 154105 (2020);
          URL http://www.quantum-espresso.org", 
     in publications or presentations arising from this work. More details at
     http://www.quantum-espresso.org/quote

     Parallel version (MPI), running on     1 processors

     MPI processes distributed on     1 nodes
     19467 MiB available memory on the printing compute node when the environment starts
 
     Waiting for input...
     Reading input from standard input
Warning: card &CELL ignored
Warning: card / ignored

     Current dimensions of program PWSCF are:
     Max number of different atomic species (ntypx) = 10
     Max number of k-points (npk) =  40000
     Max angular momentum in pseudopotentials (lmaxx) =  4
     file Al.SCAN.UPF2: wavefunction(s)  0D renormalized

     WARNING: the MGGA functional with ID    5 has been 
     read together with other dft terms, but it should 
     stand alone in order to work properly. The other 
     terms will be ignored.

     Subspace diagonalization in iterative solution of the eigenvalue problem:
     a serial algorithm will be used

 
     G-vector sticks info
     --------------------
     sticks:   dense  smooth     PW     G-vecs:    dense   smooth      PW
     Sum         673     673    211                11791    11791    2085
 
     Using Slab Decomposition
 


     bravais-lattice index     =            2
     lattice parameter (alat)  =       9.0707  a.u.
     unit-cell volume          =     186.5780 (a.u.)^3
     number of atoms/cell      =            1
     number of atomic types    =            1
     number of electrons       =         3.00
     number of Kohn-Sham states=            6
     kinetic-energy cutoff     =      60.0000  Ry
     charge density cutoff     =     240.0000  Ry
     scf convergence threshold =      1.0E-06
     mixing beta               =       0.0100
     number of iterations used =            8  local-TF  mixing
     Exchange-correlation= SLA  PW   SCAN SCAN
                           (   0   0   0   0   0 263 267)

     celldm(1)=   9.070685  celldm(2)=   0.000000  celldm(3)=   0.000000
     celldm(4)=   0.000000  celldm(5)=   0.000000  celldm(6)=   0.000000

     crystal axes: (cart. coord. in units of alat)
               a(1) = (  -0.500000   0.000000   0.500000 )  
               a(2) = (   0.000000   0.500000   0.500000 )  
               a(3) = (  -0.500000   0.500000   0.000000 )  

     reciprocal axes: (cart. coord. in units 2 pi/alat)
               b(1) = ( -1.000000 -1.000000  1.000000 )  
               b(2) = (  1.000000  1.000000  1.000000 )  
               b(3) = ( -1.000000  1.000000 -1.000000 )  


     PseudoPot. # 1 for Al read from file:
     ~/Documents/TA/PWDFT.jl/pseudopotentials/scan_upf/Al.SCAN.UPF2
     MD5 check sum: Not computed, couldn't open file
     Pseudo is Norm-conserving, Zval =  3.0
     Generated by new atomic code, or converted to UPF format
     Using radial grid of 1467 points,  2 beta functions with: 
                l(1) =   0
                l(2) =   1

     atomic species   valence    mass     pseudopotential
        Al             3.00    26.98154     Al( 1.00)

     48 Sym. Ops., with inversion, found



   Cartesian axes

     site n.     atom                  positions (alat units)
         1           Al  tau(   1) = (   0.0000000   0.0000000   0.0000000  )

     number of k points=    47  Gaussian smearing, width (Ry)=  0.1000
                       cart. coord. in units 2pi/alat
        k(    1) = (   0.0000000   0.0000000   0.0000000), wk =   0.0020000
        k(    2) = (  -0.1000000   0.1000000  -0.1000000), wk =   0.0160000
        k(    3) = (  -0.2000000   0.2000000  -0.2000000), wk =   0.0160000
        k(    4) = (  -0.3000000   0.3000000  -0.3000000), wk =   0.0160000
        k(    5) = (  -0.4000000   0.4000000  -0.4000000), wk =   0.0160000
        k(    6) = (   0.5000000  -0.5000000   0.5000000), wk =   0.0080000
        k(    7) = (   0.0000000   0.2000000   0.0000000), wk =   0.0120000
        k(    8) = (  -0.1000000   0.3000000  -0.1000000), wk =   0.0480000
        k(    9) = (  -0.2000000   0.4000000  -0.2000000), wk =   0.0480000
        k(   10) = (  -0.3000000   0.5000000  -0.3000000), wk =   0.0480000
        k(   11) = (   0.6000000  -0.4000000   0.6000000), wk =   0.0480000
        k(   12) = (   0.5000000  -0.3000000   0.5000000), wk =   0.0480000
        k(   13) = (   0.4000000  -0.2000000   0.4000000), wk =   0.0480000
        k(   14) = (   0.3000000  -0.1000000   0.3000000), wk =   0.0480000
        k(   15) = (   0.2000000   0.0000000   0.2000000), wk =   0.0240000
        k(   16) = (   0.0000000   0.4000000   0.0000000), wk =   0.0120000
        k(   17) = (  -0.1000000   0.5000000  -0.1000000), wk =   0.0480000
        k(   18) = (  -0.2000000   0.6000000  -0.2000000), wk =   0.0480000
        k(   19) = (   0.7000000  -0.3000000   0.7000000), wk =   0.0480000
        k(   20) = (   0.6000000  -0.2000000   0.6000000), wk =   0.0480000
        k(   21) = (   0.5000000  -0.1000000   0.5000000), wk =   0.0480000
        k(   22) = (   0.4000000   0.0000000   0.4000000), wk =   0.0240000
        k(   23) = (   0.0000000   0.6000000   0.0000000), wk =   0.0120000
        k(   24) = (  -0.1000000   0.7000000  -0.1000000), wk =   0.0480000
        k(   25) = (   0.8000000  -0.2000000   0.8000000), wk =   0.0480000
        k(   26) = (   0.7000000  -0.1000000   0.7000000), wk =   0.0480000
        k(   27) = (   0.6000000  -0.0000000   0.6000000), wk =   0.0240000
        k(   28) = (   0.0000000   0.8000000   0.0000000), wk =   0.0120000
        k(   29) = (   0.9000000  -0.1000000   0.9000000), wk =   0.0480000
        k(   30) = (   0.8000000   0.0000000   0.8000000), wk =   0.0240000
        k(   31) = (   0.0000000  -1.0000000   0.0000000), wk =   0.0060000
        k(   32) = (  -0.2000000   0.4000000   0.0000000), wk =   0.0480000
        k(   33) = (  -0.3000000   0.5000000  -0.1000000), wk =   0.0960000
        k(   34) = (   0.6000000  -0.4000000   0.8000000), wk =   0.0960000
        k(   35) = (   0.5000000  -0.3000000   0.7000000), wk =   0.0480000
        k(   36) = (  -0.2000000   0.6000000   0.0000000), wk =   0.0480000
        k(   37) = (   0.7000000  -0.3000000   0.9000000), wk =   0.0960000
        k(   38) = (   0.6000000  -0.2000000   0.8000000), wk =   0.0960000
        k(   39) = (   0.5000000  -0.1000000   0.7000000), wk =   0.0960000
        k(   40) = (   0.4000000   0.0000000   0.6000000), wk =   0.0480000
        k(   41) = (   0.8000000  -0.2000000   1.0000000), wk =   0.0480000
        k(   42) = (   0.7000000  -0.1000000   0.9000000), wk =   0.0960000
        k(   43) = (   0.6000000   0.0000000   0.8000000), wk =   0.0480000
        k(   44) = (  -0.2000000  -1.0000000   0.0000000), wk =   0.0240000
        k(   45) = (   0.6000000  -0.2000000   1.0000000), wk =   0.0480000
        k(   46) = (   0.5000000  -0.1000000   0.9000000), wk =   0.0480000
        k(   47) = (  -0.4000000  -1.0000000   0.0000000), wk =   0.0240000

     Dense  grid:    11791 G-vectors     FFT dimensions: (  32,  32,  32)

     Estimated max dynamical RAM per process >      23.74 MB

     WARNING: libxc functional with ID  263 depends
      on external parameters: check the user_guide of
      QE if you need to modify them or to check their
      default values.

     Initial potential from superposition of free atoms

     starting charge       2.9979, renormalised to       3.0000
     Starting wfcs are    9 randomized atomic wfcs

     total cpu time spent up to now is        2.0 secs

     Self-consistent Calculation

     iteration #  1     ecut=    60.00 Ry     beta= 0.01
     Davidson diagonalization with overlap
     ethr =  1.00E-02,  avg # of iterations =  3.0

     Threshold (ethr) on eigenvalues was too large:
     Diagonalizing with lowered threshold

     Davidson diagonalization with overlap
     ethr =  1.67E-04,  avg # of iterations =  2.5

     total cpu time spent up to now is        9.7 secs

     total energy              =      -4.10140692 Ry
     estimated scf accuracy    <       0.00496744 Ry

     iteration #  2     ecut=    60.00 Ry     beta= 0.01
     Davidson diagonalization with overlap
     ethr =  1.66E-04,  avg # of iterations =  1.0

     total cpu time spent up to now is       12.9 secs

     total energy              =      -4.10633770 Ry
     estimated scf accuracy    <       0.00487007 Ry

     iteration #  3     ecut=    60.00 Ry     beta= 0.01
     Davidson diagonalization with overlap
     ethr =  1.62E-04,  avg # of iterations =  2.0

     total cpu time spent up to now is       17.5 secs

     total energy              =      -4.10814434 Ry
     estimated scf accuracy    <       0.00063217 Ry

     iteration #  4     ecut=    60.00 Ry     beta= 0.01
     Davidson diagonalization with overlap
     ethr =  2.11E-05,  avg # of iterations =  2.5

     total cpu time spent up to now is       21.8 secs

     total energy              =      -4.10835858 Ry
     estimated scf accuracy    <       0.00018286 Ry

     iteration #  5     ecut=    60.00 Ry     beta= 0.01
     Davidson diagonalization with overlap
     ethr =  6.10E-06,  avg # of iterations =  1.4

     total cpu time spent up to now is       25.0 secs

     total energy              =      -4.10859992 Ry
     estimated scf accuracy    <       0.00020606 Ry

     iteration #  6     ecut=    60.00 Ry     beta= 0.01
     Davidson diagonalization with overlap
     ethr =  6.10E-06,  avg # of iterations =  2.4

     total cpu time spent up to now is       29.6 secs

     total energy              =      -4.10895219 Ry
     estimated scf accuracy    <       0.00002833 Ry

     iteration #  7     ecut=    60.00 Ry     beta= 0.01
     Davidson diagonalization with overlap
     ethr =  9.44E-07,  avg # of iterations =  2.8

     total cpu time spent up to now is       34.3 secs

     total energy              =      -4.10901503 Ry
     estimated scf accuracy    <       0.00001101 Ry

     iteration #  8     ecut=    60.00 Ry     beta= 0.01
     Davidson diagonalization with overlap
     ethr =  3.67E-07,  avg # of iterations =  2.0

     total cpu time spent up to now is       37.9 secs

     total energy              =      -4.10909844 Ry
     estimated scf accuracy    <       0.00000643 Ry

     iteration #  9     ecut=    60.00 Ry     beta= 0.01
     Davidson diagonalization with overlap
     ethr =  2.14E-07,  avg # of iterations =  2.1

     total cpu time spent up to now is       42.1 secs

     total energy              =      -4.10888261 Ry
     estimated scf accuracy    <       0.00001643 Ry

     iteration # 10     ecut=    60.00 Ry     beta= 0.01
     Davidson diagonalization with overlap
     ethr =  2.14E-07,  avg # of iterations =  2.8

     total cpu time spent up to now is       46.4 secs

     total energy              =      -4.10902225 Ry
     estimated scf accuracy    <       0.00000245 Ry

     iteration # 11     ecut=    60.00 Ry     beta= 0.01
     Davidson diagonalization with overlap
     ethr =  8.17E-08,  avg # of iterations =  3.0

     total cpu time spent up to now is       50.4 secs

     total energy              =      -4.10894794 Ry
     estimated scf accuracy    <       0.00001844 Ry

     iteration # 12     ecut=    60.00 Ry     beta= 0.01
     Davidson diagonalization with overlap
     ethr =  8.17E-08,  avg # of iterations =  3.2

     total cpu time spent up to now is       55.4 secs

     total energy              =      -4.10907290 Ry
     estimated scf accuracy    <       0.00000144 Ry

     iteration # 13     ecut=    60.00 Ry     beta= 0.01
     Davidson diagonalization with overlap
     ethr =  4.79E-08,  avg # of iterations =  2.3

     total cpu time spent up to now is       59.2 secs

     total energy              =      -4.10894936 Ry
     estimated scf accuracy    <       0.00000517 Ry

     iteration # 14     ecut=    60.00 Ry     beta= 0.01
     Davidson diagonalization with overlap
     ethr =  4.79E-08,  avg # of iterations =  3.0

     total cpu time spent up to now is       64.1 secs

     End of self-consistent calculation

          k = 0.0000 0.0000 0.0000 (  1459 PWs)   bands (ev):

    -5.0541  12.5988  12.5988  12.5988  14.4568  14.4568

          k =-0.1000 0.1000-0.1000 (  1450 PWs)   bands (ev):

    -4.8497  10.5664  12.1596  12.1596  14.6189  15.1188

          k =-0.2000 0.2000-0.2000 (  1447 PWs)   bands (ev):

    -4.2386   7.5941  11.5670  11.5670  14.3517  15.6175

          k =-0.3000 0.3000-0.3000 (  1447 PWs)   bands (ev):

    -3.2279   4.7769  11.1920  11.1920  14.1189  14.7004

          k =-0.4000 0.4000-0.4000 (  1471 PWs)   bands (ev):

    -1.8407   2.2811  11.0403  11.0403  13.8547  14.0503

          k = 0.5000-0.5000 0.5000 (  1476 PWs)   bands (ev):

    -0.4867   0.5546  11.0146  11.0146  13.5341  13.5341

          k = 0.0000 0.2000 0.0000 (  1451 PWs)   bands (ev):

    -4.7816  11.2364  11.2364  11.8640  13.0706  16.1529

          k =-0.1000 0.3000-0.1000 (  1455 PWs)   bands (ev):

    -4.3060   8.7180  10.4986  11.4373  13.3446  15.2284

          k =-0.2000 0.4000-0.2000 (  1461 PWs)   bands (ev):

    -3.4280   5.8465  10.0719  10.7778  13.0241  15.4222

          k =-0.3000 0.5000-0.3000 (  1460 PWs)   bands (ev):

    -2.1623   3.2398   9.9783  10.1115  12.4846  15.5622

          k = 0.6000-0.4000 0.6000 (  1463 PWs)   bands (ev):

    -0.6121   1.0720   9.4897  10.2087  12.5282  14.6959

          k = 0.5000-0.3000 0.5000 (  1469 PWs)   bands (ev):

    -1.1341   1.7181   9.0676  10.7242  13.0878  14.3067

          k = 0.4000-0.2000 0.4000 (  1451 PWs)   bands (ev):

    -2.6258   4.0727   8.9439  11.4331  14.0568  14.4049

          k = 0.3000-0.1000 0.3000 (  1464 PWs)   bands (ev):

    -3.7650   6.7855   9.1562  12.1710  15.0105  15.1406

          k = 0.2000 0.0000 0.2000 (  1450 PWs)   bands (ev):

    -4.5097   9.6883   9.7319  12.6376  14.9812  15.0001

          k = 0.0000 0.4000 0.0000 (  1463 PWs)   bands (ev):

    -3.9666   9.6380   9.6380  10.1257  11.3023  13.2264

          k =-0.1000 0.5000-0.1000 (  1455 PWs)   bands (ev):

    -3.2239   7.2141   9.1006   9.2663  11.3641  12.9717

          k =-0.2000 0.6000-0.2000 (  1454 PWs)   bands (ev):

    -2.0878   4.5589   8.1463   8.9116  11.0667  14.8331

          k = 0.7000-0.3000 0.7000 (  1461 PWs)   bands (ev):

    -0.5998   2.2254   7.1988   9.0742  11.1625  16.7982

          k = 0.6000-0.2000 0.6000 (  1477 PWs)   bands (ev):

    -0.0831   1.5893   6.5560   9.5791  11.6940  16.2829

          k = 0.5000-0.1000 0.5000 (  1469 PWs)   bands (ev):

    -1.6297   3.7494   6.2650  10.3959  12.6239  16.0380

          k = 0.4000 0.0000 0.4000 (  1466 PWs)   bands (ev):

    -2.8905   6.2801   6.3972  11.4239  13.8982  16.0336

          k = 0.0000 0.6000 0.0000 (  1455 PWs)   bands (ev):

    -2.6172   7.4547   8.4467   8.4467   9.9730  11.0497

          k =-0.1000 0.7000-0.1000 (  1465 PWs)   bands (ev):

    -1.6152   5.7785   6.6518   8.1431  10.0726  11.8497

          k = 0.8000-0.2000 0.8000 (  1471 PWs)   bands (ev):

    -0.2400   3.6965   5.1666   8.1975  10.1416  14.1900

          k = 0.7000-0.1000 0.7000 (  1468 PWs)   bands (ev):

     1.0970   2.0661   4.2895   8.6072  10.5859  16.8308

          k = 0.6000-0.0000 0.6000 (  1472 PWs)   bands (ev):

    -0.2636   3.7119   3.9266   9.3576  11.4231  17.9413

          k = 0.0000 0.8000 0.0000 (  1463 PWs)   bands (ev):

    -0.7486   4.4072   7.7218   7.7218   9.1641  10.0489

          k = 0.9000-0.1000 0.9000 (  1468 PWs)   bands (ev):

     0.4980   3.0670   5.8777   7.6595   9.4909  11.3252

          k = 0.8000 0.0000 0.8000 (  1476 PWs)   bands (ev):

     1.9298   2.1542   3.8361   7.9573   9.8535  13.9634

          k = 0.0000-1.0000 0.0000 (  1476 PWs)   bands (ev):

     1.5917   1.6332   7.4788   7.4788   8.8932   9.7459

          k =-0.2000 0.4000 0.0000 (  1464 PWs)   bands (ev):

    -3.6968   8.0278   8.0435  11.2066  13.3802  14.1656

          k =-0.3000 0.5000-0.1000 (  1452 PWs)   bands (ev):

    -2.6893   5.2690   7.6980  10.1423  13.3060  15.0788

          k = 0.6000-0.4000 0.8000 (  1459 PWs)   bands (ev):

    -1.3064   2.7923   7.6828   9.1696  13.2137  14.6330

          k = 0.5000-0.3000 0.7000 (  1468 PWs)   bands (ev):

     0.0479   1.0693   7.7989   8.7111  13.2915  14.2184

          k =-0.2000 0.6000 0.0000 (  1463 PWs)   bands (ev):

    -2.3514   6.6553   6.7693   8.3034  12.1381  12.6093

          k = 0.7000-0.3000 0.9000 (  1469 PWs)   bands (ev):

    -1.0938   4.2156   6.3502   7.3181  12.2696  14.5438

          k = 0.6000-0.2000 0.8000 (  1471 PWs)   bands (ev):

     0.4492   2.0862   5.7351   7.2956  12.5502  16.0209

          k = 0.5000-0.1000 0.7000 (  1464 PWs)   bands (ev):

    -0.0787   2.7409   5.2356   7.9015  13.1683  15.6960

          k = 0.4000 0.0000 0.6000 (  1473 PWs)   bands (ev):

    -1.5592   5.0006   5.1322   8.9013  13.9980  15.3458

          k = 0.8000-0.2000 1.0000 (  1465 PWs)   bands (ev):

    -0.4906   4.5447   6.0060   6.4949  11.3758  11.8144

          k = 0.7000-0.1000 0.9000 (  1473 PWs)   bands (ev):

     0.9814   3.2632   4.1945   6.4277  11.7636  14.1271

          k = 0.6000 0.0000 0.8000 (  1473 PWs)   bands (ev):

     1.4130   2.9341   3.2889   6.9687  12.3131  16.7752

          k =-0.2000-1.0000 0.0000 (  1470 PWs)   bands (ev):

     1.8076   1.8938   5.7506   6.1370  11.1198  11.5574

          k = 0.6000-0.2000 1.0000 (  1468 PWs)   bands (ev):

     0.2687   4.1987   4.2271   5.9504  14.4371  14.6258

          k = 0.5000-0.1000 0.9000 (  1464 PWs)   bands (ev):

     1.6109   2.5561   4.3423   5.4002  14.5642  15.6119

          k =-0.4000-1.0000 0.0000 (  1452 PWs)   bands (ev):

     2.3195   2.6742   3.9685   4.7090  14.3785  14.3817

     the Fermi energy is     3.4419 ev

!    total energy              =      -4.10899365 Ry
     estimated scf accuracy    <       0.00000069 Ry
     smearing contrib. (-TS)   =      -0.03662992 Ry
     internal energy E=F+TS    =      -4.07236372 Ry

     The total energy is F=E-TS. E is the sum of the following terms:
     one-electron contribution =       1.83111038 Ry
     hartree contribution      =       0.02543757 Ry
     xc contribution           =      -1.37977819 Ry
     ewald contribution        =      -4.54913348 Ry

     convergence has been achieved in  14 iterations
     Writing meta-gga kinetic term

     Writing all to output data dir ./input_pw/Al/0/pwscf.save/
     Writing meta-gga kinetic term
 
     init_run     :      1.01s CPU      1.95s WALL (       1 calls)
     electrons    :     31.50s CPU     62.10s WALL (       1 calls)

     Called by init_run:
     wfcinit      :      0.91s CPU      1.67s WALL (       1 calls)
     potinit      :      0.02s CPU      0.06s WALL (       1 calls)
     hinit0       :      0.06s CPU      0.20s WALL (       1 calls)

     Called by electrons:
     c_bands      :     25.91s CPU     51.35s WALL (      15 calls)
     sum_band     :      5.06s CPU      9.72s WALL (      15 calls)
     v_of_rho     :      0.32s CPU      0.62s WALL (      15 calls)
     mix_rho      :      0.20s CPU      0.40s WALL (      15 calls)

     Called by c_bands:
     init_us_2    :      0.25s CPU      0.49s WALL (    1457 calls)
     init_us_2:cp :      0.25s CPU      0.49s WALL (    1457 calls)
     cegterg      :     25.62s CPU     50.86s WALL (     705 calls)

     Called by *egterg:
     cdiaghg      :      0.24s CPU      0.46s WALL (    2344 calls)
     h_psi        :     25.40s CPU     50.48s WALL (    2438 calls)
     g_psi        :      0.04s CPU      0.12s WALL (    1686 calls)

     Called by h_psi:
     h_psi:calbec :      0.16s CPU      0.25s WALL (    2438 calls)
     vloc_psi     :      6.21s CPU     12.17s WALL (    2438 calls)
     add_vuspsi   :      0.11s CPU      0.16s WALL (    2438 calls)
     h_psi_meta   :     18.84s CPU     37.78s WALL (    2438 calls)

     General routines
     calbec       :      0.15s CPU      0.24s WALL (    2438 calls)
     fft          :      0.04s CPU      0.11s WALL (     179 calls)
     ffts         :      0.04s CPU      0.10s WALL (     199 calls)
     fftw         :     23.20s CPU     46.04s WALL (  116040 calls)
     interpolate  :      0.00s CPU      0.00s WALL (      15 calls)
 
     Parallel routines
 
     PWSCF        :     32.55s CPU   1m 4.16s WALL

 
   This run was terminated on:   8:57:56   4Apr2023            

=------------------------------------------------------------------------------=
   JOB DONE.
=------------------------------------------------------------------------------=
