
     Program PWSCF v.7.0 starts on  7Jul2023 at 14:30:57 

     This program is part of the open-source Quantum ESPRESSO suite
     for quantum simulation of materials; please cite
         "P. Giannozzi et al., J. Phys.:Condens. Matter 21 395502 (2009);
         "P. Giannozzi et al., J. Phys.:Condens. Matter 29 465901 (2017);
         "P. Giannozzi et al., J. Chem. Phys. 152 154105 (2020);
          URL http://www.quantum-espresso.org", 
     in publications or presentations arising from this work. More details at
     http://www.quantum-espresso.org/quote

     Parallel version (MPI), running on     1 processors

     MPI processes distributed on     1 nodes
     27366 MiB available memory on the printing compute node when the environment starts
 
     Waiting for input...
     Reading input from standard input
Warning: card &CELL ignored
Warning: card / ignored

     Current dimensions of program PWSCF are:
     Max number of different atomic species (ntypx) = 10
     Max number of k-points (npk) =  40000
     Max angular momentum in pseudopotentials (lmaxx) =  4
     file Si.SCAN.UPF2: wavefunction(s)  0D renormalized

     WARNING: the MGGA functional with ID    5 has been 
     read together with other dft terms, but it should 
     stand alone in order to work properly. The other 
     terms will be ignored.

     WARNING: the MGGA functional with ID    5 has been 
     read together with other dft terms, but it should 
     stand alone in order to work properly. The other 
     terms will be ignored.

     Subspace diagonalization in iterative solution of the eigenvalue problem:
     a serial algorithm will be used

 
     G-vector sticks info
     --------------------
     sticks:   dense  smooth     PW     G-vecs:    dense   smooth      PW
     Sum         379     379    121                 5029     5029     941
 
     Using Slab Decomposition
 


     bravais-lattice index     =            2
     lattice parameter (alat)  =       7.4833  a.u.
     unit-cell volume          =     104.7664 (a.u.)^3
     number of atoms/cell      =            2
     number of atomic types    =            2
     number of electrons       =         8.00
     number of Kohn-Sham states=            4
     kinetic-energy cutoff     =      50.0000  Ry
     charge density cutoff     =     200.0000  Ry
     scf convergence threshold =      2.0E-05
     mixing beta               =       0.2000
     number of iterations used =            8  local-TF  mixing
     Exchange-correlation= SLA  PW   SCAN SCAN
                           (   0   0   0   0   0 263 267)

     celldm(1)=   7.483315  celldm(2)=   0.000000  celldm(3)=   0.000000
     celldm(4)=   0.000000  celldm(5)=   0.000000  celldm(6)=   0.000000

     crystal axes: (cart. coord. in units of alat)
               a(1) = (  -0.500000   0.000000   0.500000 )  
               a(2) = (   0.000000   0.500000   0.500000 )  
               a(3) = (  -0.500000   0.500000   0.000000 )  

     reciprocal axes: (cart. coord. in units 2 pi/alat)
               b(1) = ( -1.000000 -1.000000  1.000000 )  
               b(2) = (  1.000000  1.000000  1.000000 )  
               b(3) = ( -1.000000  1.000000 -1.000000 )  


     PseudoPot. # 1 for Si read from file:
     ~/Documents/TA/PWDFT.jl/pseudopotentials/scan_upf/Si.SCAN.UPF2
     MD5 check sum: Not computed, couldn't open file
     Pseudo is Norm-conserving, Zval =  4.0
     Generated by new atomic code, or converted to UPF format
     Using radial grid of 1475 points,  2 beta functions with: 
                l(1) =   0
                l(2) =   1

     PseudoPot. # 2 for C  read from file:
     ~/Documents/TA/PWDFT.jl/pseudopotentials/scan_upf/C.SCAN.UPF2
     MD5 check sum: Not computed, couldn't open file
     Pseudo is Norm-conserving, Zval =  4.0
     Generated by new atomic code, or converted to UPF format
     Using radial grid of 1389 points,  1 beta functions with: 
                l(1) =   0

     atomic species   valence    mass     pseudopotential
        Si             4.00    28.08550     Si( 1.00)
        C              4.00    12.01100     C ( 1.00)

     24 Sym. Ops. (no inversion) found



   Cartesian axes

     site n.     atom                  positions (alat units)
         1           Si  tau(   1) = (   0.0000000   0.0000000   0.0000000  )
         2           C   tau(   2) = (   0.2500000   0.2500000   0.2500000  )

     number of k points=    47
                       cart. coord. in units 2pi/alat
        k(    1) = (   0.0000000   0.0000000   0.0000000), wk =   0.0020000
        k(    2) = (  -0.1000000   0.1000000  -0.1000000), wk =   0.0160000
        k(    3) = (  -0.2000000   0.2000000  -0.2000000), wk =   0.0160000
        k(    4) = (  -0.3000000   0.3000000  -0.3000000), wk =   0.0160000
        k(    5) = (  -0.4000000   0.4000000  -0.4000000), wk =   0.0160000
        k(    6) = (   0.5000000  -0.5000000   0.5000000), wk =   0.0080000
        k(    7) = (   0.0000000   0.2000000   0.0000000), wk =   0.0120000
        k(    8) = (  -0.1000000   0.3000000  -0.1000000), wk =   0.0480000
        k(    9) = (  -0.2000000   0.4000000  -0.2000000), wk =   0.0480000
        k(   10) = (  -0.3000000   0.5000000  -0.3000000), wk =   0.0480000
        k(   11) = (   0.6000000  -0.4000000   0.6000000), wk =   0.0480000
        k(   12) = (   0.5000000  -0.3000000   0.5000000), wk =   0.0480000
        k(   13) = (   0.4000000  -0.2000000   0.4000000), wk =   0.0480000
        k(   14) = (   0.3000000  -0.1000000   0.3000000), wk =   0.0480000
        k(   15) = (   0.2000000   0.0000000   0.2000000), wk =   0.0240000
        k(   16) = (   0.0000000   0.4000000   0.0000000), wk =   0.0120000
        k(   17) = (  -0.1000000   0.5000000  -0.1000000), wk =   0.0480000
        k(   18) = (  -0.2000000   0.6000000  -0.2000000), wk =   0.0480000
        k(   19) = (   0.7000000  -0.3000000   0.7000000), wk =   0.0480000
        k(   20) = (   0.6000000  -0.2000000   0.6000000), wk =   0.0480000
        k(   21) = (   0.5000000  -0.1000000   0.5000000), wk =   0.0480000
        k(   22) = (   0.4000000   0.0000000   0.4000000), wk =   0.0240000
        k(   23) = (   0.0000000   0.6000000   0.0000000), wk =   0.0120000
        k(   24) = (  -0.1000000   0.7000000  -0.1000000), wk =   0.0480000
        k(   25) = (   0.8000000  -0.2000000   0.8000000), wk =   0.0480000
        k(   26) = (   0.7000000  -0.1000000   0.7000000), wk =   0.0480000
        k(   27) = (   0.6000000  -0.0000000   0.6000000), wk =   0.0240000
        k(   28) = (   0.0000000   0.8000000   0.0000000), wk =   0.0120000
        k(   29) = (   0.9000000  -0.1000000   0.9000000), wk =   0.0480000
        k(   30) = (   0.8000000   0.0000000   0.8000000), wk =   0.0240000
        k(   31) = (   0.0000000  -1.0000000   0.0000000), wk =   0.0060000
        k(   32) = (  -0.2000000   0.4000000   0.0000000), wk =   0.0480000
        k(   33) = (  -0.3000000   0.5000000  -0.1000000), wk =   0.0960000
        k(   34) = (   0.6000000  -0.4000000   0.8000000), wk =   0.0960000
        k(   35) = (   0.5000000  -0.3000000   0.7000000), wk =   0.0480000
        k(   36) = (  -0.2000000   0.6000000   0.0000000), wk =   0.0480000
        k(   37) = (   0.7000000  -0.3000000   0.9000000), wk =   0.0960000
        k(   38) = (   0.6000000  -0.2000000   0.8000000), wk =   0.0960000
        k(   39) = (   0.5000000  -0.1000000   0.7000000), wk =   0.0960000
        k(   40) = (   0.4000000   0.0000000   0.6000000), wk =   0.0480000
        k(   41) = (   0.8000000  -0.2000000   1.0000000), wk =   0.0480000
        k(   42) = (   0.7000000  -0.1000000   0.9000000), wk =   0.0960000
        k(   43) = (   0.6000000   0.0000000   0.8000000), wk =   0.0480000
        k(   44) = (  -0.2000000  -1.0000000   0.0000000), wk =   0.0240000
        k(   45) = (   0.6000000  -0.2000000   1.0000000), wk =   0.0480000
        k(   46) = (   0.5000000  -0.1000000   0.9000000), wk =   0.0480000
        k(   47) = (  -0.4000000  -1.0000000   0.0000000), wk =   0.0240000

     Dense  grid:     5029 G-vectors     FFT dimensions: (  24,  24,  24)

     Estimated max dynamical RAM per process >       9.51 MB

     WARNING: libxc functional with ID  263 depends
      on external parameters: check the user_guide of
      QE if you need to modify them or to check their
      default values.

     Initial potential from superposition of free atoms

     starting charge       7.9995, renormalised to       8.0000
     Starting wfcs are   13 randomized atomic wfcs

     total cpu time spent up to now is        2.3 secs

     Self-consistent Calculation

     iteration #  1     ecut=    50.00 Ry     beta= 0.20
     Davidson diagonalization with overlap
     ethr =  1.00E-02,  avg # of iterations =  2.0

     total cpu time spent up to now is        4.1 secs

     total energy              =     -19.31784871 Ry
     estimated scf accuracy    <       2.96785084 Ry

     iteration #  2     ecut=    50.00 Ry     beta= 0.20
     Davidson diagonalization with overlap
     ethr =  1.00E-02,  avg # of iterations =  1.0

     total cpu time spent up to now is        5.4 secs

     total energy              =     -19.12316664 Ry
     estimated scf accuracy    <       1.82855998 Ry

     iteration #  3     ecut=    50.00 Ry     beta= 0.20
     Davidson diagonalization with overlap
     ethr =  1.00E-02,  avg # of iterations =  1.2

     total cpu time spent up to now is        6.7 secs

     total energy              =     -19.19204321 Ry
     estimated scf accuracy    <       0.05015586 Ry

     iteration #  4     ecut=    50.00 Ry     beta= 0.20
     Davidson diagonalization with overlap
     ethr =  6.27E-04,  avg # of iterations =  2.0

     total cpu time spent up to now is        8.3 secs

     total energy              =     -19.20068114 Ry
     estimated scf accuracy    <       0.02289777 Ry

     iteration #  5     ecut=    50.00 Ry     beta= 0.20
     Davidson diagonalization with overlap
     ethr =  2.86E-04,  avg # of iterations =  1.0

     total cpu time spent up to now is        9.9 secs

     total energy              =     -19.19904818 Ry
     estimated scf accuracy    <       0.03894185 Ry

     iteration #  6     ecut=    50.00 Ry     beta= 0.20
     Davidson diagonalization with overlap
     ethr =  2.86E-04,  avg # of iterations =  1.0

     total cpu time spent up to now is       11.3 secs

     total energy              =     -19.20049233 Ry
     estimated scf accuracy    <       0.00128325 Ry

     iteration #  7     ecut=    50.00 Ry     beta= 0.20
     Davidson diagonalization with overlap
     ethr =  1.60E-05,  avg # of iterations =  2.0

     total cpu time spent up to now is       13.1 secs

     total energy              =     -19.20069720 Ry
     estimated scf accuracy    <       0.00226125 Ry

     iteration #  8     ecut=    50.00 Ry     beta= 0.20
     Davidson diagonalization with overlap
     ethr =  1.60E-05,  avg # of iterations =  1.0

     total cpu time spent up to now is       14.3 secs

     total energy              =     -19.20083291 Ry
     estimated scf accuracy    <       0.00022491 Ry

     iteration #  9     ecut=    50.00 Ry     beta= 0.20
     Davidson diagonalization with overlap
     ethr =  2.81E-06,  avg # of iterations =  2.0

     total cpu time spent up to now is       15.5 secs

     total energy              =     -19.20090840 Ry
     estimated scf accuracy    <       0.00171713 Ry

     iteration # 10     ecut=    50.00 Ry     beta= 0.20
     Davidson diagonalization with overlap
     ethr =  2.81E-06,  avg # of iterations =  1.0

     total cpu time spent up to now is       16.6 secs

     total energy              =     -19.20086188 Ry
     estimated scf accuracy    <       0.00195013 Ry

     iteration # 11     ecut=    50.00 Ry     beta= 0.20
     Davidson diagonalization with overlap
     ethr =  2.81E-06,  avg # of iterations =  1.0

     total cpu time spent up to now is       17.8 secs

     total energy              =     -19.20086372 Ry
     estimated scf accuracy    <       0.00050016 Ry

     iteration # 12     ecut=    50.00 Ry     beta= 0.20
     Davidson diagonalization with overlap
     ethr =  2.81E-06,  avg # of iterations =  1.0

     total cpu time spent up to now is       18.9 secs

     total energy              =     -19.20086619 Ry
     estimated scf accuracy    <       0.00032192 Ry

     iteration # 13     ecut=    50.00 Ry     beta= 0.20
     Davidson diagonalization with overlap
     ethr =  2.81E-06,  avg # of iterations =  1.0

     total cpu time spent up to now is       19.9 secs

     total energy              =     -19.20086580 Ry
     estimated scf accuracy    <       0.00032184 Ry

     iteration # 14     ecut=    50.00 Ry     beta= 0.20
     Davidson diagonalization with overlap
     ethr =  2.81E-06,  avg # of iterations =  1.0

     total cpu time spent up to now is       20.6 secs

     total energy              =     -19.20086589 Ry
     estimated scf accuracy    <       0.00027711 Ry

     iteration # 15     ecut=    50.00 Ry     beta= 0.20
     Davidson diagonalization with overlap
     ethr =  2.81E-06,  avg # of iterations =  1.0

     total cpu time spent up to now is       21.4 secs

     total energy              =     -19.20085900 Ry
     estimated scf accuracy    <       0.00029565 Ry

     iteration # 16     ecut=    50.00 Ry     beta= 0.20
     Davidson diagonalization with overlap
     ethr =  2.81E-06,  avg # of iterations =  1.0

     total cpu time spent up to now is       22.5 secs

     End of self-consistent calculation

          k = 0.0000 0.0000 0.0000 (   609 PWs)   bands (ev):

    -5.3701  13.2382  13.2382  13.2382

          k =-0.1000 0.1000-0.1000 (   621 PWs)   bands (ev):

    -5.1182  12.1352  13.0947  13.0947

          k =-0.2000 0.2000-0.2000 (   628 PWs)   bands (ev):

    -4.3711   9.6530  12.7651  12.7651

          k =-0.3000 0.3000-0.3000 (   613 PWs)   bands (ev):

    -3.1643   6.8150  12.4268  12.4268

          k =-0.4000 0.4000-0.4000 (   619 PWs)   bands (ev):

    -1.6234   4.1824  12.1873  12.1873

          k = 0.5000-0.5000 0.5000 (   628 PWs)   bands (ev):

    -0.5425   2.7209  12.1028  12.1028

          k = 0.0000 0.2000 0.0000 (   613 PWs)   bands (ev):

    -5.0342  12.5274  12.6782  12.6782

          k =-0.1000 0.3000-0.1000 (   621 PWs)   bands (ev):

    -4.4522  10.5573  12.1721  12.6167

          k =-0.2000 0.4000-0.2000 (   618 PWs)   bands (ev):

    -3.3970   7.8734  11.7892  12.2408

          k =-0.3000 0.5000-0.3000 (   621 PWs)   bands (ev):

    -1.9493   5.1791  11.6313  11.7300

          k = 0.6000-0.4000 0.6000 (   620 PWs)   bands (ev):

    -0.5218   3.1448  11.2855  11.7266

          k = 0.5000-0.3000 0.5000 (   621 PWs)   bands (ev):

    -0.9220   3.6693  11.0269  12.0436

          k = 0.4000-0.2000 0.4000 (   622 PWs)   bands (ev):

    -2.4661   6.0487  11.0307  12.4978

          k = 0.3000-0.1000 0.3000 (   620 PWs)   bands (ev):

    -3.7991   8.7717  11.3406  12.9483

          k = 0.2000 0.0000 0.2000 (   612 PWs)   bands (ev):

    -4.7010  11.0964  12.0700  13.2018

          k = 0.0000 0.4000 0.0000 (   613 PWs)   bands (ev):

    -4.0390  10.8281  11.5028  11.5028

          k =-0.1000 0.5000-0.1000 (   616 PWs)   bands (ev):

    -3.1491   8.8780  11.0032  11.1179

          k =-0.2000 0.6000-0.2000 (   623 PWs)   bands (ev):

    -1.8415   6.4363  10.3356  10.7918

          k = 0.7000-0.3000 0.7000 (   628 PWs)   bands (ev):

    -0.3534   4.2411   9.5022  10.9067

          k = 0.6000-0.2000 0.6000 (   624 PWs)   bands (ev):

     0.0075   3.7861   8.9186  11.3240

          k = 0.5000-0.1000 0.5000 (   628 PWs)   bands (ev):

    -1.3549   5.6588   8.7536  11.9503

          k = 0.4000 0.0000 0.4000 (   630 PWs)   bands (ev):

    -2.7644   7.7200   9.4162  12.5930

          k = 0.0000 0.6000 0.0000 (   628 PWs)   bands (ev):

    -2.4318   8.5818  10.3765  10.3765

          k =-0.1000 0.7000-0.1000 (   632 PWs)   bands (ev):

    -1.2942   7.0515   9.4268  10.0592

          k = 0.8000-0.2000 0.8000 (   629 PWs)   bands (ev):

     0.0901   5.4203   7.9341  10.1016

          k = 0.7000-0.1000 0.7000 (   630 PWs)   bands (ev):

     0.9005   4.6060   6.8167  10.4923

          k = 0.6000-0.0000 0.6000 (   622 PWs)   bands (ev):

     0.0041   5.4107   6.7791  11.1687

          k = 0.0000 0.8000 0.0000 (   628 PWs)   bands (ev):

    -0.3567   6.0027   9.6240   9.6240

          k = 0.9000-0.1000 0.9000 (   632 PWs)   bands (ev):

     0.7696   4.9069   8.5017   9.5523

          k = 0.8000 0.0000 0.8000 (   632 PWs)   bands (ev):

     1.3624   4.8152   6.6925   9.8573

          k = 0.0000-1.0000 0.0000 (   636 PWs)   bands (ev):

     1.2191   4.2140   9.3608   9.3608

          k =-0.2000 0.4000 0.0000 (   620 PWs)   bands (ev):

    -3.7154   9.3938  10.8099  12.4422

          k =-0.3000 0.5000-0.1000 (   620 PWs)   bands (ev):

    -2.5298   7.1628  10.0543  11.9597

          k = 0.6000-0.4000 0.8000 (   627 PWs)   bands (ev):

    -1.0305   4.7384   9.8582  11.3704

          k = 0.5000-0.3000 0.7000 (   632 PWs)   bands (ev):

    -0.0073   3.3765   9.8534  11.0919

          k =-0.2000 0.6000 0.0000 (   624 PWs)   bands (ev):

    -2.1308   7.7648   9.6179  10.7375

          k = 0.7000-0.3000 0.9000 (   628 PWs)   bands (ev):

    -0.7597   5.9638   8.7391  10.0703

          k = 0.6000-0.2000 0.8000 (   631 PWs)   bands (ev):

     0.5105   4.3611   8.0734   9.9666

          k = 0.5000-0.1000 0.7000 (   632 PWs)   bands (ev):

     0.1481   4.8189   7.6729  10.4531

          k = 0.4000 0.0000 0.6000 (   630 PWs)   bands (ev):

    -1.2645   6.3988   8.1262  11.2453

          k = 0.8000-0.2000 1.0000 (   629 PWs)   bands (ev):

    -0.1134   5.9557   8.8213   9.0987

          k = 0.7000-0.1000 0.9000 (   635 PWs)   bands (ev):

     1.0546   5.1468   7.1460   9.0369

          k = 0.6000 0.0000 0.8000 (   633 PWs)   bands (ev):

     1.1675   5.3245   6.0429   9.5712

          k =-0.2000-1.0000 0.0000 (   630 PWs)   bands (ev):

     1.3413   4.5246   8.4942   8.5694

          k = 0.6000-0.2000 1.0000 (   635 PWs)   bands (ev):

     0.5209   5.5935   7.2878   8.9163

          k = 0.5000-0.1000 0.9000 (   630 PWs)   bands (ev):

     1.2683   5.1708   6.8313   8.3891

          k =-0.4000-1.0000 0.0000 (   632 PWs)   bands (ev):

     1.5650   5.3720   7.0841   7.4415

     highest occupied level (ev):    13.2382

!    total energy              =     -19.20086322 Ry
     estimated scf accuracy    <       0.00000686 Ry

     The total energy is the sum of the following terms:
     one-electron contribution =       8.19306772 Ry
     hartree contribution      =       2.19299589 Ry
     xc contribution           =      -6.55201153 Ry
     ewald contribution        =     -23.03491530 Ry

     convergence has been achieved in  16 iterations
     Writing meta-gga kinetic term

     Writing all to output data dir ./input_pw/SiC/3/pwscf.save/
     Writing meta-gga kinetic term
 
     init_run     :      0.89s CPU      2.14s WALL (       1 calls)
     electrons    :     11.38s CPU     20.19s WALL (       1 calls)

     Called by init_run:
     wfcinit      :      0.80s CPU      1.87s WALL (       1 calls)
     potinit      :      0.00s CPU      0.02s WALL (       1 calls)
     hinit0       :      0.09s CPU      0.24s WALL (       1 calls)

     Called by electrons:
     c_bands      :      8.98s CPU     16.05s WALL (      16 calls)
     sum_band     :      2.16s CPU      3.76s WALL (      16 calls)
     v_of_rho     :      0.14s CPU      0.24s WALL (      17 calls)
     mix_rho      :      0.10s CPU      0.16s WALL (      16 calls)

     Called by c_bands:
     init_us_2    :      0.13s CPU      0.21s WALL (    1551 calls)
     init_us_2:cp :      0.12s CPU      0.20s WALL (    1551 calls)
     cegterg      :      8.86s CPU     15.81s WALL (     752 calls)

     Called by *egterg:
     cdiaghg      :      0.08s CPU      0.15s WALL (    1700 calls)
     h_psi        :      9.40s CPU     17.20s WALL (    1747 calls)
     g_psi        :      0.01s CPU      0.01s WALL (     948 calls)

     Called by h_psi:
     h_psi:calbec :      0.03s CPU      0.05s WALL (    1747 calls)
     vloc_psi     :      2.30s CPU      4.27s WALL (    1747 calls)
     add_vuspsi   :      0.03s CPU      0.06s WALL (    1747 calls)
     h_psi_meta   :      7.00s CPU     12.76s WALL (    1747 calls)

     General routines
     calbec       :      0.03s CPU      0.05s WALL (    1747 calls)
     fft          :      0.03s CPU      0.06s WALL (     201 calls)
     ffts         :      0.05s CPU      0.08s WALL (     307 calls)
     fftw         :     10.22s CPU     18.49s WALL (   69920 calls)
     interpolate  :      0.00s CPU      0.00s WALL (      17 calls)
 
     Parallel routines
 
     PWSCF        :     12.32s CPU     22.49s WALL

 
   This run was terminated on:  14:31:19   7Jul2023            

=------------------------------------------------------------------------------=
   JOB DONE.
=------------------------------------------------------------------------------=
