
     Program PWSCF v.7.0 starts on 29Mar2023 at 12:56: 4 

     This program is part of the open-source Quantum ESPRESSO suite
     for quantum simulation of materials; please cite
         "P. Giannozzi et al., J. Phys.:Condens. Matter 21 395502 (2009);
         "P. Giannozzi et al., J. Phys.:Condens. Matter 29 465901 (2017);
         "P. Giannozzi et al., J. Chem. Phys. 152 154105 (2020);
          URL http://www.quantum-espresso.org", 
     in publications or presentations arising from this work. More details at
     http://www.quantum-espresso.org/quote

     Parallel version (MPI), running on     1 processors

     MPI processes distributed on     1 nodes
     23037 MiB available memory on the printing compute node when the environment starts
 
     Waiting for input...
     Reading input from standard input
Warning: card &CELL ignored
Warning: card / ignored

     Current dimensions of program PWSCF are:
     Max number of different atomic species (ntypx) = 10
     Max number of k-points (npk) =  40000
     Max angular momentum in pseudopotentials (lmaxx) =  4
     file Si.SCAN.UPF2: wavefunction(s)  0D renormalized

     WARNING: the MGGA functional with ID    5 has been 
     read together with other dft terms, but it should 
     stand alone in order to work properly. The other 
     terms will be ignored.

     WARNING: the MGGA functional with ID    5 has been 
     read together with other dft terms, but it should 
     stand alone in order to work properly. The other 
     terms will be ignored.

     Subspace diagonalization in iterative solution of the eigenvalue problem:
     a serial algorithm will be used

 
     G-vector sticks info
     --------------------
     sticks:   dense  smooth     PW     G-vecs:    dense   smooth      PW
     Sum         379     379    121                 5029     5029     941
 
     Using Slab Decomposition
 


     bravais-lattice index     =            2
     lattice parameter (alat)  =       7.4833  a.u.
     unit-cell volume          =     104.7664 (a.u.)^3
     number of atoms/cell      =            2
     number of atomic types    =            2
     number of electrons       =         8.00
     number of Kohn-Sham states=            4
     kinetic-energy cutoff     =      50.0000  Ry
     charge density cutoff     =     200.0000  Ry
     scf convergence threshold =      1.0E-06
     mixing beta               =       0.0100
     number of iterations used =            8  local-TF  mixing
     Exchange-correlation= SLA  PW   SCAN SCAN
                           (   0   0   0   0   0 263 267)

     celldm(1)=   7.483315  celldm(2)=   0.000000  celldm(3)=   0.000000
     celldm(4)=   0.000000  celldm(5)=   0.000000  celldm(6)=   0.000000

     crystal axes: (cart. coord. in units of alat)
               a(1) = (  -0.500000   0.000000   0.500000 )  
               a(2) = (   0.000000   0.500000   0.500000 )  
               a(3) = (  -0.500000   0.500000   0.000000 )  

     reciprocal axes: (cart. coord. in units 2 pi/alat)
               b(1) = ( -1.000000 -1.000000  1.000000 )  
               b(2) = (  1.000000  1.000000  1.000000 )  
               b(3) = ( -1.000000  1.000000 -1.000000 )  


     PseudoPot. # 1 for Si read from file:
     ~/Documents/TA/PWDFT.jl/pseudopotentials/scan_upf/Si.SCAN.UPF2
     MD5 check sum: Not computed, couldn't open file
     Pseudo is Norm-conserving, Zval =  4.0
     Generated by new atomic code, or converted to UPF format
     Using radial grid of 1475 points,  2 beta functions with: 
                l(1) =   0
                l(2) =   1

     PseudoPot. # 2 for C  read from file:
     ~/Documents/TA/PWDFT.jl/pseudopotentials/scan_upf/C.SCAN.UPF2
     MD5 check sum: Not computed, couldn't open file
     Pseudo is Norm-conserving, Zval =  4.0
     Generated by new atomic code, or converted to UPF format
     Using radial grid of 1389 points,  1 beta functions with: 
                l(1) =   0

     atomic species   valence    mass     pseudopotential
        Si             4.00    28.08550     Si( 1.00)
        C              4.00    12.01100     C ( 1.00)

     24 Sym. Ops. (no inversion) found



   Cartesian axes

     site n.     atom                  positions (alat units)
         1           Si  tau(   1) = (   0.0000000   0.0000000   0.0000000  )
         2           C   tau(   2) = (   0.2500000   0.2500000   0.2500000  )

     number of k points=    47
                       cart. coord. in units 2pi/alat
        k(    1) = (   0.0000000   0.0000000   0.0000000), wk =   0.0020000
        k(    2) = (  -0.1000000   0.1000000  -0.1000000), wk =   0.0160000
        k(    3) = (  -0.2000000   0.2000000  -0.2000000), wk =   0.0160000
        k(    4) = (  -0.3000000   0.3000000  -0.3000000), wk =   0.0160000
        k(    5) = (  -0.4000000   0.4000000  -0.4000000), wk =   0.0160000
        k(    6) = (   0.5000000  -0.5000000   0.5000000), wk =   0.0080000
        k(    7) = (   0.0000000   0.2000000   0.0000000), wk =   0.0120000
        k(    8) = (  -0.1000000   0.3000000  -0.1000000), wk =   0.0480000
        k(    9) = (  -0.2000000   0.4000000  -0.2000000), wk =   0.0480000
        k(   10) = (  -0.3000000   0.5000000  -0.3000000), wk =   0.0480000
        k(   11) = (   0.6000000  -0.4000000   0.6000000), wk =   0.0480000
        k(   12) = (   0.5000000  -0.3000000   0.5000000), wk =   0.0480000
        k(   13) = (   0.4000000  -0.2000000   0.4000000), wk =   0.0480000
        k(   14) = (   0.3000000  -0.1000000   0.3000000), wk =   0.0480000
        k(   15) = (   0.2000000   0.0000000   0.2000000), wk =   0.0240000
        k(   16) = (   0.0000000   0.4000000   0.0000000), wk =   0.0120000
        k(   17) = (  -0.1000000   0.5000000  -0.1000000), wk =   0.0480000
        k(   18) = (  -0.2000000   0.6000000  -0.2000000), wk =   0.0480000
        k(   19) = (   0.7000000  -0.3000000   0.7000000), wk =   0.0480000
        k(   20) = (   0.6000000  -0.2000000   0.6000000), wk =   0.0480000
        k(   21) = (   0.5000000  -0.1000000   0.5000000), wk =   0.0480000
        k(   22) = (   0.4000000   0.0000000   0.4000000), wk =   0.0240000
        k(   23) = (   0.0000000   0.6000000   0.0000000), wk =   0.0120000
        k(   24) = (  -0.1000000   0.7000000  -0.1000000), wk =   0.0480000
        k(   25) = (   0.8000000  -0.2000000   0.8000000), wk =   0.0480000
        k(   26) = (   0.7000000  -0.1000000   0.7000000), wk =   0.0480000
        k(   27) = (   0.6000000  -0.0000000   0.6000000), wk =   0.0240000
        k(   28) = (   0.0000000   0.8000000   0.0000000), wk =   0.0120000
        k(   29) = (   0.9000000  -0.1000000   0.9000000), wk =   0.0480000
        k(   30) = (   0.8000000   0.0000000   0.8000000), wk =   0.0240000
        k(   31) = (   0.0000000  -1.0000000   0.0000000), wk =   0.0060000
        k(   32) = (  -0.2000000   0.4000000   0.0000000), wk =   0.0480000
        k(   33) = (  -0.3000000   0.5000000  -0.1000000), wk =   0.0960000
        k(   34) = (   0.6000000  -0.4000000   0.8000000), wk =   0.0960000
        k(   35) = (   0.5000000  -0.3000000   0.7000000), wk =   0.0480000
        k(   36) = (  -0.2000000   0.6000000   0.0000000), wk =   0.0480000
        k(   37) = (   0.7000000  -0.3000000   0.9000000), wk =   0.0960000
        k(   38) = (   0.6000000  -0.2000000   0.8000000), wk =   0.0960000
        k(   39) = (   0.5000000  -0.1000000   0.7000000), wk =   0.0960000
        k(   40) = (   0.4000000   0.0000000   0.6000000), wk =   0.0480000
        k(   41) = (   0.8000000  -0.2000000   1.0000000), wk =   0.0480000
        k(   42) = (   0.7000000  -0.1000000   0.9000000), wk =   0.0960000
        k(   43) = (   0.6000000   0.0000000   0.8000000), wk =   0.0480000
        k(   44) = (  -0.2000000  -1.0000000   0.0000000), wk =   0.0240000
        k(   45) = (   0.6000000  -0.2000000   1.0000000), wk =   0.0480000
        k(   46) = (   0.5000000  -0.1000000   0.9000000), wk =   0.0480000
        k(   47) = (  -0.4000000  -1.0000000   0.0000000), wk =   0.0240000

     Dense  grid:     5029 G-vectors     FFT dimensions: (  24,  24,  24)

     Estimated max dynamical RAM per process >       9.51 MB

     WARNING: libxc functional with ID  263 depends
      on external parameters: check the user_guide of
      QE if you need to modify them or to check their
      default values.

     Initial potential from superposition of free atoms

     starting charge       7.9995, renormalised to       8.0000
     Starting wfcs are   13 randomized atomic wfcs

     total cpu time spent up to now is        2.0 secs

     Self-consistent Calculation

     iteration #  1     ecut=    50.00 Ry     beta= 0.01
     Davidson diagonalization with overlap
     ethr =  1.00E-02,  avg # of iterations =  2.0

     total cpu time spent up to now is        3.8 secs

     total energy              =     -19.30793579 Ry
     estimated scf accuracy    <       2.96785084 Ry

     iteration #  2     ecut=    50.00 Ry     beta= 0.01
     Davidson diagonalization with overlap
     ethr =  1.00E-02,  avg # of iterations =  1.0

     total cpu time spent up to now is        5.2 secs

     total energy              =     -19.14156409 Ry
     estimated scf accuracy    <       2.89805979 Ry

     iteration #  3     ecut=    50.00 Ry     beta= 0.01
     Davidson diagonalization with overlap
     ethr =  1.00E-02,  avg # of iterations =  1.0

     total cpu time spent up to now is        6.5 secs

     total energy              =     -19.17772342 Ry
     estimated scf accuracy    <       0.10655616 Ry

     iteration #  4     ecut=    50.00 Ry     beta= 0.01
     Davidson diagonalization with overlap
     ethr =  1.33E-03,  avg # of iterations =  1.6

     total cpu time spent up to now is        7.9 secs

     total energy              =     -19.18747499 Ry
     estimated scf accuracy    <       0.04949726 Ry

     iteration #  5     ecut=    50.00 Ry     beta= 0.01
     Davidson diagonalization with overlap
     ethr =  6.19E-04,  avg # of iterations =  1.0

     total cpu time spent up to now is        9.2 secs

     total energy              =     -19.19195341 Ry
     estimated scf accuracy    <       0.05318215 Ry

     iteration #  6     ecut=    50.00 Ry     beta= 0.01
     Davidson diagonalization with overlap
     ethr =  6.19E-04,  avg # of iterations =  1.0

     total cpu time spent up to now is       10.5 secs

     total energy              =     -19.19755925 Ry
     estimated scf accuracy    <       0.04416738 Ry

     iteration #  7     ecut=    50.00 Ry     beta= 0.01
     Davidson diagonalization with overlap
     ethr =  5.52E-04,  avg # of iterations =  1.0

     total cpu time spent up to now is       11.8 secs

     total energy              =     -19.19723776 Ry
     estimated scf accuracy    <       0.02896739 Ry

     iteration #  8     ecut=    50.00 Ry     beta= 0.01
     Davidson diagonalization with overlap
     ethr =  3.62E-04,  avg # of iterations =  1.9

     total cpu time spent up to now is       13.3 secs

     total energy              =     -19.20003941 Ry
     estimated scf accuracy    <       0.00178251 Ry

     iteration #  9     ecut=    50.00 Ry     beta= 0.01
     Davidson diagonalization with overlap
     ethr =  2.23E-05,  avg # of iterations =  1.8

     total cpu time spent up to now is       14.7 secs

     total energy              =     -19.20016601 Ry
     estimated scf accuracy    <       0.00266612 Ry

     iteration # 10     ecut=    50.00 Ry     beta= 0.01
     Davidson diagonalization with overlap
     ethr =  2.23E-05,  avg # of iterations =  1.0

     total cpu time spent up to now is       16.0 secs

     total energy              =     -19.20026031 Ry
     estimated scf accuracy    <       0.00332753 Ry

     iteration # 11     ecut=    50.00 Ry     beta= 0.01
     Davidson diagonalization with overlap
     ethr =  2.23E-05,  avg # of iterations =  1.0

     total cpu time spent up to now is       17.3 secs

     total energy              =     -19.20058282 Ry
     estimated scf accuracy    <       0.00112933 Ry

     iteration # 12     ecut=    50.00 Ry     beta= 0.01
     Davidson diagonalization with overlap
     ethr =  1.41E-05,  avg # of iterations =  1.0

     total cpu time spent up to now is       18.6 secs

     total energy              =     -19.20064553 Ry
     estimated scf accuracy    <       0.00028646 Ry

     iteration # 13     ecut=    50.00 Ry     beta= 0.01
     Davidson diagonalization with overlap
     ethr =  3.58E-06,  avg # of iterations =  1.0

     total cpu time spent up to now is       20.0 secs

     total energy              =     -19.20061581 Ry
     estimated scf accuracy    <       0.00029865 Ry

     iteration # 14     ecut=    50.00 Ry     beta= 0.01
     Davidson diagonalization with overlap
     ethr =  3.58E-06,  avg # of iterations =  1.0

     total cpu time spent up to now is       21.3 secs

     total energy              =     -19.20132946 Ry
     estimated scf accuracy    <       0.00062562 Ry

     iteration # 15     ecut=    50.00 Ry     beta= 0.01
     Davidson diagonalization with overlap
     ethr =  3.58E-06,  avg # of iterations =  3.0

     total cpu time spent up to now is       23.6 secs

     total energy              =     -19.20168638 Ry
     estimated scf accuracy    <       0.00790328 Ry

     iteration # 16     ecut=    50.00 Ry     beta= 0.01
     Davidson diagonalization with overlap
     ethr =  3.58E-06,  avg # of iterations =  1.0

     total cpu time spent up to now is       24.9 secs

     total energy              =     -19.20173567 Ry
     estimated scf accuracy    <       0.00889086 Ry

     iteration # 17     ecut=    50.00 Ry     beta= 0.01
     Davidson diagonalization with overlap
     ethr =  3.58E-06,  avg # of iterations =  1.0

     total cpu time spent up to now is       26.2 secs

     total energy              =     -19.20139446 Ry
     estimated scf accuracy    <       0.00941499 Ry

     iteration # 18     ecut=    50.00 Ry     beta= 0.01
     Davidson diagonalization with overlap
     ethr =  3.58E-06,  avg # of iterations =  1.0

     total cpu time spent up to now is       27.5 secs

     total energy              =     -19.20106993 Ry
     estimated scf accuracy    <       0.00454035 Ry

     iteration # 19     ecut=    50.00 Ry     beta= 0.01
     Davidson diagonalization with overlap
     ethr =  3.58E-06,  avg # of iterations =  2.0

     total cpu time spent up to now is       29.3 secs

     total energy              =     -19.20090401 Ry
     estimated scf accuracy    <       0.00272719 Ry

     iteration # 20     ecut=    50.00 Ry     beta= 0.01
     Davidson diagonalization with overlap
     ethr =  3.58E-06,  avg # of iterations =  2.0

     total cpu time spent up to now is       31.0 secs

     total energy              =     -19.20094554 Ry
     estimated scf accuracy    <       0.00087779 Ry

     iteration # 21     ecut=    50.00 Ry     beta= 0.01
     Davidson diagonalization with overlap
     ethr =  3.58E-06,  avg # of iterations =  1.0

     total cpu time spent up to now is       32.1 secs

     total energy              =     -19.20092424 Ry
     estimated scf accuracy    <       0.00086300 Ry

     iteration # 22     ecut=    50.00 Ry     beta= 0.01
     Davidson diagonalization with overlap
     ethr =  3.58E-06,  avg # of iterations =  1.0

     total cpu time spent up to now is       33.2 secs

     total energy              =     -19.20081854 Ry
     estimated scf accuracy    <       0.00077371 Ry

     iteration # 23     ecut=    50.00 Ry     beta= 0.01
     Davidson diagonalization with overlap
     ethr =  3.58E-06,  avg # of iterations =  2.0

     total cpu time spent up to now is       34.4 secs

     total energy              =     -19.20086328 Ry
     estimated scf accuracy    <       0.00000413 Ry

     iteration # 24     ecut=    50.00 Ry     beta= 0.01
     Davidson diagonalization with overlap
     ethr =  5.16E-08,  avg # of iterations =  1.6

     total cpu time spent up to now is       35.4 secs

     total energy              =     -19.20086485 Ry
     estimated scf accuracy    <       0.00000377 Ry

     iteration # 25     ecut=    50.00 Ry     beta= 0.01
     Davidson diagonalization with overlap
     ethr =  4.72E-08,  avg # of iterations =  2.0

     total cpu time spent up to now is       37.1 secs

     total energy              =     -19.20086260 Ry
     estimated scf accuracy    <       0.00001559 Ry

     iteration # 26     ecut=    50.00 Ry     beta= 0.01
     Davidson diagonalization with overlap
     ethr =  4.72E-08,  avg # of iterations =  2.0

     total cpu time spent up to now is       38.4 secs

     total energy              =     -19.20086549 Ry
     estimated scf accuracy    <       0.00000156 Ry

     iteration # 27     ecut=    50.00 Ry     beta= 0.01
     Davidson diagonalization with overlap
     ethr =  1.95E-08,  avg # of iterations =  3.4

     total cpu time spent up to now is       40.2 secs

     total energy              =     -19.20086071 Ry
     estimated scf accuracy    <       0.00011193 Ry

     iteration # 28     ecut=    50.00 Ry     beta= 0.01
     Davidson diagonalization with overlap
     ethr =  1.95E-08,  avg # of iterations =  3.0

     total cpu time spent up to now is       41.9 secs

     total energy              =     -19.20086341 Ry
     estimated scf accuracy    <       0.00001248 Ry

     iteration # 29     ecut=    50.00 Ry     beta= 0.01
     Davidson diagonalization with overlap
     ethr =  1.95E-08,  avg # of iterations =  1.0

     total cpu time spent up to now is       42.7 secs

     total energy              =     -19.20086379 Ry
     estimated scf accuracy    <       0.00002197 Ry

     iteration # 30     ecut=    50.00 Ry     beta= 0.01
     Davidson diagonalization with overlap
     ethr =  1.95E-08,  avg # of iterations =  3.3

     total cpu time spent up to now is       44.7 secs

     total energy              =     -19.20086723 Ry
     estimated scf accuracy    <       0.00004492 Ry

     iteration # 31     ecut=    50.00 Ry     beta= 0.01
     Davidson diagonalization with overlap
     ethr =  1.95E-08,  avg # of iterations =  2.0

     total cpu time spent up to now is       45.8 secs

     total energy              =     -19.20086314 Ry
     estimated scf accuracy    <       0.00002855 Ry

     iteration # 32     ecut=    50.00 Ry     beta= 0.01
     Davidson diagonalization with overlap
     ethr =  1.95E-08,  avg # of iterations =  3.0

     total cpu time spent up to now is       47.4 secs

     total energy              =     -19.20086505 Ry
     estimated scf accuracy    <       0.00000433 Ry

     iteration # 33     ecut=    50.00 Ry     beta= 0.01
     Davidson diagonalization with overlap
     ethr =  1.95E-08,  avg # of iterations =  2.0

     total cpu time spent up to now is       48.3 secs

     End of self-consistent calculation

          k = 0.0000 0.0000 0.0000 (   609 PWs)   bands (ev):

    -5.3687  13.2405  13.2405  13.2405

          k =-0.1000 0.1000-0.1000 (   621 PWs)   bands (ev):

    -5.1168  12.1374  13.0970  13.0970

          k =-0.2000 0.2000-0.2000 (   628 PWs)   bands (ev):

    -4.3696   9.6548  12.7673  12.7673

          k =-0.3000 0.3000-0.3000 (   613 PWs)   bands (ev):

    -3.1628   6.8165  12.4290  12.4290

          k =-0.4000 0.4000-0.4000 (   619 PWs)   bands (ev):

    -1.6218   4.1837  12.1895  12.1895

          k = 0.5000-0.5000 0.5000 (   628 PWs)   bands (ev):

    -0.5406   2.7219  12.1050  12.1050

          k = 0.0000 0.2000 0.0000 (   613 PWs)   bands (ev):

    -5.0328  12.5297  12.6805  12.6805

          k =-0.1000 0.3000-0.1000 (   621 PWs)   bands (ev):

    -4.4508  10.5593  12.1742  12.6190

          k =-0.2000 0.4000-0.2000 (   618 PWs)   bands (ev):

    -3.3955   7.8751  11.7913  12.2430

          k =-0.3000 0.5000-0.3000 (   621 PWs)   bands (ev):

    -1.9477   5.1805  11.6334  11.7321

          k = 0.6000-0.4000 0.6000 (   620 PWs)   bands (ev):

    -0.5199   3.1459  11.2876  11.7288

          k = 0.5000-0.3000 0.5000 (   621 PWs)   bands (ev):

    -0.9203   3.6705  11.0289  12.0458

          k = 0.4000-0.2000 0.4000 (   622 PWs)   bands (ev):

    -2.4645   6.0502  11.0327  12.5001

          k = 0.3000-0.1000 0.3000 (   620 PWs)   bands (ev):

    -3.7976   8.7735  11.3426  12.9507

          k = 0.2000 0.0000 0.2000 (   612 PWs)   bands (ev):

    -4.6995  11.0984  12.0721  13.2041

          k = 0.0000 0.4000 0.0000 (   613 PWs)   bands (ev):

    -4.0375  10.8303  11.5048  11.5048

          k =-0.1000 0.5000-0.1000 (   616 PWs)   bands (ev):

    -3.1476   8.8798  11.0051  11.1199

          k =-0.2000 0.6000-0.2000 (   623 PWs)   bands (ev):

    -1.8399   6.4379  10.3375  10.7938

          k = 0.7000-0.3000 0.7000 (   628 PWs)   bands (ev):

    -0.3516   4.2423   9.5040  10.9087

          k = 0.6000-0.2000 0.6000 (   624 PWs)   bands (ev):

     0.0094   3.7873   8.9204  11.3261

          k = 0.5000-0.1000 0.5000 (   628 PWs)   bands (ev):

    -1.3532   5.6603   8.7553  11.9524

          k = 0.4000 0.0000 0.4000 (   630 PWs)   bands (ev):

    -2.7628   7.7217   9.4179  12.5952

          k = 0.0000 0.6000 0.0000 (   628 PWs)   bands (ev):

    -2.4302   8.5838  10.3784  10.3784

          k =-0.1000 0.7000-0.1000 (   632 PWs)   bands (ev):

    -1.2925   7.0533   9.4285  10.0610

          k = 0.8000-0.2000 0.8000 (   629 PWs)   bands (ev):

     0.0919   5.4218   7.9356  10.1035

          k = 0.7000-0.1000 0.7000 (   630 PWs)   bands (ev):

     0.9026   4.6072   6.8181  10.4942

          k = 0.6000-0.0000 0.6000 (   622 PWs)   bands (ev):

     0.0059   5.4121   6.7806  11.1707

          k = 0.0000 0.8000 0.0000 (   628 PWs)   bands (ev):

    -0.3549   6.0045   9.6258   9.6258

          k = 0.9000-0.1000 0.9000 (   632 PWs)   bands (ev):

     0.7715   4.9084   8.5032   9.5541

          k = 0.8000 0.0000 0.8000 (   632 PWs)   bands (ev):

     1.3646   4.8166   6.6938   9.8591

          k = 0.0000-1.0000 0.0000 (   636 PWs)   bands (ev):

     1.2211   4.2153   9.3626   9.3626

          k =-0.2000 0.4000 0.0000 (   620 PWs)   bands (ev):

    -3.7140   9.3957  10.8118  12.4445

          k =-0.3000 0.5000-0.1000 (   620 PWs)   bands (ev):

    -2.5282   7.1645  10.0562  11.9618

          k = 0.6000-0.4000 0.8000 (   627 PWs)   bands (ev):

    -1.0288   4.7397   9.8600  11.3724

          k = 0.5000-0.3000 0.7000 (   632 PWs)   bands (ev):

    -0.0053   3.3776   9.8553  11.0939

          k =-0.2000 0.6000 0.0000 (   624 PWs)   bands (ev):

    -2.1292   7.7667   9.6197  10.7393

          k = 0.7000-0.3000 0.9000 (   628 PWs)   bands (ev):

    -0.7580   5.9653   8.7408  10.0720

          k = 0.6000-0.2000 0.8000 (   631 PWs)   bands (ev):

     0.5125   4.3622   8.0751   9.9683

          k = 0.5000-0.1000 0.7000 (   632 PWs)   bands (ev):

     0.1500   4.8201   7.6745  10.4549

          k = 0.4000 0.0000 0.6000 (   630 PWs)   bands (ev):

    -1.2629   6.4004   8.1278  11.2473

          k = 0.8000-0.2000 1.0000 (   629 PWs)   bands (ev):

    -0.1117   5.9574   8.8230   9.1003

          k = 0.7000-0.1000 0.9000 (   635 PWs)   bands (ev):

     1.0566   5.1483   7.1474   9.0385

          k = 0.6000 0.0000 0.8000 (   633 PWs)   bands (ev):

     1.1696   5.3257   6.0442   9.5728

          k =-0.2000-1.0000 0.0000 (   630 PWs)   bands (ev):

     1.3434   4.5259   8.4956   8.5710

          k = 0.6000-0.2000 1.0000 (   635 PWs)   bands (ev):

     0.5228   5.5950   7.2893   8.9178

          k = 0.5000-0.1000 0.9000 (   630 PWs)   bands (ev):

     1.2704   5.1720   6.8328   8.3905

          k =-0.4000-1.0000 0.0000 (   632 PWs)   bands (ev):

     1.5671   5.3734   7.0857   7.4426

     highest occupied level (ev):    13.2405

!    total energy              =     -19.20086519 Ry
     estimated scf accuracy    <       0.00000017 Ry

     The total energy is the sum of the following terms:
     one-electron contribution =       8.19479095 Ry
     hartree contribution      =       2.19063562 Ry
     xc contribution           =      -6.55137645 Ry
     ewald contribution        =     -23.03491530 Ry

     convergence has been achieved in  33 iterations
     Writing meta-gga kinetic term

     Writing all to output data dir ./input_pw/SiC/3/pwscf.save/
     Writing meta-gga kinetic term
 
     init_run     :      0.92s CPU      1.98s WALL (       1 calls)
     electrons    :     25.77s CPU     46.27s WALL (       1 calls)

     Called by init_run:
     wfcinit      :      0.81s CPU      1.85s WALL (       1 calls)
     potinit      :      0.01s CPU      0.02s WALL (       1 calls)
     hinit0       :      0.09s CPU      0.11s WALL (       1 calls)

     Called by electrons:
     c_bands      :     20.91s CPU     37.72s WALL (      33 calls)
     sum_band     :      4.38s CPU      7.68s WALL (      33 calls)
     v_of_rho     :      0.28s CPU      0.50s WALL (      34 calls)
     mix_rho      :      0.20s CPU      0.36s WALL (      33 calls)

     Called by c_bands:
     init_us_2    :      0.26s CPU      0.46s WALL (    3149 calls)
     init_us_2:cp :      0.25s CPU      0.45s WALL (    3149 calls)
     cegterg      :     20.66s CPU     37.18s WALL (    1551 calls)

     Called by *egterg:
     cdiaghg      :      0.18s CPU      0.33s WALL (    4119 calls)
     h_psi        :     20.86s CPU     37.99s WALL (    4166 calls)
     g_psi        :      0.02s CPU      0.04s WALL (    2568 calls)

     Called by h_psi:
     h_psi:calbec :      0.07s CPU      0.14s WALL (    4166 calls)
     vloc_psi     :      5.14s CPU      9.97s WALL (    4166 calls)
     add_vuspsi   :      0.08s CPU      0.11s WALL (    4166 calls)
     h_psi_meta   :     15.51s CPU     27.60s WALL (    4166 calls)

     General routines
     calbec       :      0.06s CPU      0.12s WALL (    4166 calls)
     fft          :      0.06s CPU      0.15s WALL (     405 calls)
     ffts         :      0.09s CPU      0.21s WALL (     660 calls)
     fftw         :     22.31s CPU     40.38s WALL (  154784 calls)
     interpolate  :      0.00s CPU      0.00s WALL (      34 calls)
 
     Parallel routines
 
     PWSCF        :     26.73s CPU     48.31s WALL

 
   This run was terminated on:  12:56:53  29Mar2023            

=------------------------------------------------------------------------------=
   JOB DONE.
=------------------------------------------------------------------------------=
