
     Program PWSCF v.7.0 starts on 14Mar2023 at 14:31: 7 

     This program is part of the open-source Quantum ESPRESSO suite
     for quantum simulation of materials; please cite
         "P. Giannozzi et al., J. Phys.:Condens. Matter 21 395502 (2009);
         "P. Giannozzi et al., J. Phys.:Condens. Matter 29 465901 (2017);
         "P. Giannozzi et al., J. Chem. Phys. 152 154105 (2020);
          URL http://www.quantum-espresso.org", 
     in publications or presentations arising from this work. More details at
     http://www.quantum-espresso.org/quote

     Parallel version (MPI), running on     1 processors

     MPI processes distributed on     1 nodes
     26854 MiB available memory on the printing compute node when the environment starts
 
     Waiting for input...
     Reading input from standard input
Warning: card &CELL ignored
Warning: card / ignored

     Current dimensions of program PWSCF are:
     Max number of different atomic species (ntypx) = 10
     Max number of k-points (npk) =  40000
     Max angular momentum in pseudopotentials (lmaxx) =  4
     file Cl.SCAN.UPF2: wavefunction(s)  0D renormalized

     WARNING: the MGGA functional with ID    5 has been 
     read together with other dft terms, but it should 
     stand alone in order to work properly. The other 
     terms will be ignored.

     WARNING: the MGGA functional with ID    5 has been 
     read together with other dft terms, but it should 
     stand alone in order to work properly. The other 
     terms will be ignored.

     Subspace diagonalization in iterative solution of the eigenvalue problem:
     a serial algorithm will be used

 
     G-vector sticks info
     --------------------
     sticks:   dense  smooth     PW     G-vecs:    dense   smooth      PW
     Sum         499     499    163                 7391     7391    1363
 
     Using Slab Decomposition
 


     bravais-lattice index     =            2
     lattice parameter (alat)  =       8.5530  a.u.
     unit-cell volume          =     156.4211 (a.u.)^3
     number of atoms/cell      =            2
     number of atomic types    =            2
     number of electrons       =         8.00
     number of Kohn-Sham states=            4
     kinetic-energy cutoff     =      50.0000  Ry
     charge density cutoff     =     200.0000  Ry
     scf convergence threshold =      1.0E-06
     mixing beta               =       0.0100
     number of iterations used =            8  local-TF  mixing
     Exchange-correlation= SLA  PW   SCAN SCAN
                           (   0   0   0   0   0 263 267)

     celldm(1)=   8.553000  celldm(2)=   0.000000  celldm(3)=   0.000000
     celldm(4)=   0.000000  celldm(5)=   0.000000  celldm(6)=   0.000000

     crystal axes: (cart. coord. in units of alat)
               a(1) = (  -0.500000   0.000000   0.500000 )  
               a(2) = (   0.000000   0.500000   0.500000 )  
               a(3) = (  -0.500000   0.500000   0.000000 )  

     reciprocal axes: (cart. coord. in units 2 pi/alat)
               b(1) = ( -1.000000 -1.000000  1.000000 )  
               b(2) = (  1.000000  1.000000  1.000000 )  
               b(3) = ( -1.000000  1.000000 -1.000000 )  


     PseudoPot. # 1 for Li read from file:
     ~/Documents/TA/PWDFT.jl/pseudopotentials/scan_upf/Li.SCAN.UPF2
     MD5 check sum: Not computed, couldn't open file
     Pseudo is Norm-conserving, Zval =  1.0
     Generated by new atomic code, or converted to UPF format
     Using radial grid of 1321 points,  1 beta functions with: 
                l(1) =   0

     PseudoPot. # 2 for Cl read from file:
     ~/Documents/TA/PWDFT.jl/pseudopotentials/scan_upf/Cl.SCAN.UPF2
     MD5 check sum: Not computed, couldn't open file
     Pseudo is Norm-conserving, Zval =  7.0
     Generated by new atomic code, or converted to UPF format
     Using radial grid of 1493 points,  2 beta functions with: 
                l(1) =   0
                l(2) =   1

     atomic species   valence    mass     pseudopotential
        Na             1.00     6.94100     Li( 1.00)
        Cl             7.00    35.45300     Cl( 1.00)

     48 Sym. Ops., with inversion, found



   Cartesian axes

     site n.     atom                  positions (alat units)
         1           Na  tau(   1) = (   0.0000000   0.0000000   0.0000000  )
         2           Cl  tau(   2) = (   0.5000000   0.5000000   0.5000000  )

     number of k points=    47
                       cart. coord. in units 2pi/alat
        k(    1) = (   0.0000000   0.0000000   0.0000000), wk =   0.0020000
        k(    2) = (  -0.1000000   0.1000000  -0.1000000), wk =   0.0160000
        k(    3) = (  -0.2000000   0.2000000  -0.2000000), wk =   0.0160000
        k(    4) = (  -0.3000000   0.3000000  -0.3000000), wk =   0.0160000
        k(    5) = (  -0.4000000   0.4000000  -0.4000000), wk =   0.0160000
        k(    6) = (   0.5000000  -0.5000000   0.5000000), wk =   0.0080000
        k(    7) = (   0.0000000   0.2000000   0.0000000), wk =   0.0120000
        k(    8) = (  -0.1000000   0.3000000  -0.1000000), wk =   0.0480000
        k(    9) = (  -0.2000000   0.4000000  -0.2000000), wk =   0.0480000
        k(   10) = (  -0.3000000   0.5000000  -0.3000000), wk =   0.0480000
        k(   11) = (   0.6000000  -0.4000000   0.6000000), wk =   0.0480000
        k(   12) = (   0.5000000  -0.3000000   0.5000000), wk =   0.0480000
        k(   13) = (   0.4000000  -0.2000000   0.4000000), wk =   0.0480000
        k(   14) = (   0.3000000  -0.1000000   0.3000000), wk =   0.0480000
        k(   15) = (   0.2000000   0.0000000   0.2000000), wk =   0.0240000
        k(   16) = (   0.0000000   0.4000000   0.0000000), wk =   0.0120000
        k(   17) = (  -0.1000000   0.5000000  -0.1000000), wk =   0.0480000
        k(   18) = (  -0.2000000   0.6000000  -0.2000000), wk =   0.0480000
        k(   19) = (   0.7000000  -0.3000000   0.7000000), wk =   0.0480000
        k(   20) = (   0.6000000  -0.2000000   0.6000000), wk =   0.0480000
        k(   21) = (   0.5000000  -0.1000000   0.5000000), wk =   0.0480000
        k(   22) = (   0.4000000   0.0000000   0.4000000), wk =   0.0240000
        k(   23) = (   0.0000000   0.6000000   0.0000000), wk =   0.0120000
        k(   24) = (  -0.1000000   0.7000000  -0.1000000), wk =   0.0480000
        k(   25) = (   0.8000000  -0.2000000   0.8000000), wk =   0.0480000
        k(   26) = (   0.7000000  -0.1000000   0.7000000), wk =   0.0480000
        k(   27) = (   0.6000000  -0.0000000   0.6000000), wk =   0.0240000
        k(   28) = (   0.0000000   0.8000000   0.0000000), wk =   0.0120000
        k(   29) = (   0.9000000  -0.1000000   0.9000000), wk =   0.0480000
        k(   30) = (   0.8000000   0.0000000   0.8000000), wk =   0.0240000
        k(   31) = (   0.0000000  -1.0000000   0.0000000), wk =   0.0060000
        k(   32) = (  -0.2000000   0.4000000   0.0000000), wk =   0.0480000
        k(   33) = (  -0.3000000   0.5000000  -0.1000000), wk =   0.0960000
        k(   34) = (   0.6000000  -0.4000000   0.8000000), wk =   0.0960000
        k(   35) = (   0.5000000  -0.3000000   0.7000000), wk =   0.0480000
        k(   36) = (  -0.2000000   0.6000000   0.0000000), wk =   0.0480000
        k(   37) = (   0.7000000  -0.3000000   0.9000000), wk =   0.0960000
        k(   38) = (   0.6000000  -0.2000000   0.8000000), wk =   0.0960000
        k(   39) = (   0.5000000  -0.1000000   0.7000000), wk =   0.0960000
        k(   40) = (   0.4000000   0.0000000   0.6000000), wk =   0.0480000
        k(   41) = (   0.8000000  -0.2000000   1.0000000), wk =   0.0480000
        k(   42) = (   0.7000000  -0.1000000   0.9000000), wk =   0.0960000
        k(   43) = (   0.6000000   0.0000000   0.8000000), wk =   0.0480000
        k(   44) = (  -0.2000000  -1.0000000   0.0000000), wk =   0.0240000
        k(   45) = (   0.6000000  -0.2000000   1.0000000), wk =   0.0480000
        k(   46) = (   0.5000000  -0.1000000   0.9000000), wk =   0.0480000
        k(   47) = (  -0.4000000  -1.0000000   0.0000000), wk =   0.0240000

     Dense  grid:     7391 G-vectors     FFT dimensions: (  27,  27,  27)

     Estimated max dynamical RAM per process >      13.85 MB

     WARNING: libxc functional with ID  263 depends
      on external parameters: check the user_guide of
      QE if you need to modify them or to check their
      default values.

     Initial potential from superposition of free atoms

     starting charge       7.9953, renormalised to       8.0000
     Starting wfcs are   13 randomized atomic wfcs

     total cpu time spent up to now is        3.8 secs

     Self-consistent Calculation

     iteration #  1     ecut=    50.00 Ry     beta= 0.01
     Davidson diagonalization with overlap
     ethr =  1.00E-02,  avg # of iterations =  1.0

     total cpu time spent up to now is        6.7 secs

     total energy              =     -30.58777110 Ry
     estimated scf accuracy    <       0.36250583 Ry

     iteration #  2     ecut=    50.00 Ry     beta= 0.01
     Davidson diagonalization with overlap
     ethr =  4.53E-03,  avg # of iterations =  1.0

     total cpu time spent up to now is        9.8 secs

     total energy              =     -30.61258981 Ry
     estimated scf accuracy    <       0.34400138 Ry

     iteration #  3     ecut=    50.00 Ry     beta= 0.01
     Davidson diagonalization with overlap
     ethr =  4.30E-03,  avg # of iterations =  1.0

     total cpu time spent up to now is       12.9 secs

     total energy              =     -30.67676285 Ry
     estimated scf accuracy    <       0.27002945 Ry

     iteration #  4     ecut=    50.00 Ry     beta= 0.01
     Davidson diagonalization with overlap
     ethr =  3.38E-03,  avg # of iterations =  1.0

     total cpu time spent up to now is       15.8 secs

     total energy              =     -30.67899726 Ry
     estimated scf accuracy    <       0.00328926 Ry

     iteration #  5     ecut=    50.00 Ry     beta= 0.01
     Davidson diagonalization with overlap
     ethr =  4.11E-05,  avg # of iterations =  1.0

     total cpu time spent up to now is       18.4 secs

     total energy              =     -30.67912858 Ry
     estimated scf accuracy    <       0.00359241 Ry

     iteration #  6     ecut=    50.00 Ry     beta= 0.01
     Davidson diagonalization with overlap
     ethr =  4.11E-05,  avg # of iterations =  1.0

     total cpu time spent up to now is       21.4 secs

     total energy              =     -30.67888811 Ry
     estimated scf accuracy    <       0.00355891 Ry

     iteration #  7     ecut=    50.00 Ry     beta= 0.01
     Davidson diagonalization with overlap
     ethr =  4.11E-05,  avg # of iterations =  1.0

     total cpu time spent up to now is       24.5 secs

     total energy              =     -30.67803708 Ry
     estimated scf accuracy    <       0.00223078 Ry

     iteration #  8     ecut=    50.00 Ry     beta= 0.01
     Davidson diagonalization with overlap
     ethr =  2.79E-05,  avg # of iterations =  2.0

     total cpu time spent up to now is       28.0 secs

     total energy              =     -30.67877435 Ry
     estimated scf accuracy    <       0.00185276 Ry

     iteration #  9     ecut=    50.00 Ry     beta= 0.01
     Davidson diagonalization with overlap
     ethr =  2.32E-05,  avg # of iterations =  1.0

     total cpu time spent up to now is       30.4 secs

     total energy              =     -30.67874694 Ry
     estimated scf accuracy    <       0.00178249 Ry

     iteration # 10     ecut=    50.00 Ry     beta= 0.01
     Davidson diagonalization with overlap
     ethr =  2.23E-05,  avg # of iterations =  1.0

     total cpu time spent up to now is       32.9 secs

     total energy              =     -30.67853058 Ry
     estimated scf accuracy    <       0.00159497 Ry

     iteration # 11     ecut=    50.00 Ry     beta= 0.01
     Davidson diagonalization with overlap
     ethr =  1.99E-05,  avg # of iterations =  1.0

     total cpu time spent up to now is       35.2 secs

     total energy              =     -30.67858648 Ry
     estimated scf accuracy    <       0.00004113 Ry

     iteration # 12     ecut=    50.00 Ry     beta= 0.01
     Davidson diagonalization with overlap
     ethr =  5.14E-07,  avg # of iterations =  1.0

     total cpu time spent up to now is       37.5 secs

     total energy              =     -30.67858930 Ry
     estimated scf accuracy    <       0.00000251 Ry

     iteration # 13     ecut=    50.00 Ry     beta= 0.01
     Davidson diagonalization with overlap
     ethr =  3.13E-08,  avg # of iterations =  1.9

     total cpu time spent up to now is       39.9 secs

     total energy              =     -30.67858966 Ry
     estimated scf accuracy    <       0.00000226 Ry

     iteration # 14     ecut=    50.00 Ry     beta= 0.01
     Davidson diagonalization with overlap
     ethr =  2.83E-08,  avg # of iterations =  1.0

     total cpu time spent up to now is       42.0 secs

     total energy              =     -30.67859499 Ry
     estimated scf accuracy    <       0.00000276 Ry

     iteration # 15     ecut=    50.00 Ry     beta= 0.01
     Davidson diagonalization with overlap
     ethr =  2.83E-08,  avg # of iterations =  2.0

     total cpu time spent up to now is       44.8 secs

     total energy              =     -30.67859409 Ry
     estimated scf accuracy    <       0.00002560 Ry

     iteration # 16     ecut=    50.00 Ry     beta= 0.01
     Davidson diagonalization with overlap
     ethr =  2.83E-08,  avg # of iterations =  2.0

     total cpu time spent up to now is       46.7 secs

     total energy              =     -30.67859431 Ry
     estimated scf accuracy    <       0.00001083 Ry

     iteration # 17     ecut=    50.00 Ry     beta= 0.01
     Davidson diagonalization with overlap
     ethr =  2.83E-08,  avg # of iterations =  1.0

     total cpu time spent up to now is       48.2 secs

     total energy              =     -30.67859370 Ry
     estimated scf accuracy    <       0.00001052 Ry

     iteration # 18     ecut=    50.00 Ry     beta= 0.01
     Davidson diagonalization with overlap
     ethr =  2.83E-08,  avg # of iterations =  1.0

     total cpu time spent up to now is       49.7 secs

     total energy              =     -30.67859447 Ry
     estimated scf accuracy    <       0.00000776 Ry

     iteration # 19     ecut=    50.00 Ry     beta= 0.01
     Davidson diagonalization with overlap
     ethr =  2.83E-08,  avg # of iterations =  1.0

     total cpu time spent up to now is       51.1 secs

     total energy              =     -30.67859472 Ry
     estimated scf accuracy    <       0.00001139 Ry

     iteration # 20     ecut=    50.00 Ry     beta= 0.01
     Davidson diagonalization with overlap
     ethr =  2.83E-08,  avg # of iterations =  1.0

     total cpu time spent up to now is       52.5 secs

     total energy              =     -30.67859460 Ry
     estimated scf accuracy    <       0.00001218 Ry

     iteration # 21     ecut=    50.00 Ry     beta= 0.01
     Davidson diagonalization with overlap
     ethr =  2.83E-08,  avg # of iterations =  1.0

     total cpu time spent up to now is       53.8 secs

     total energy              =     -30.67859298 Ry
     estimated scf accuracy    <       0.00001166 Ry

     iteration # 22     ecut=    50.00 Ry     beta= 0.01
     Davidson diagonalization with overlap
     ethr =  2.83E-08,  avg # of iterations =  1.0

     total cpu time spent up to now is       54.9 secs

     total energy              =     -30.67859168 Ry
     estimated scf accuracy    <       0.00000566 Ry

     iteration # 23     ecut=    50.00 Ry     beta= 0.01
     Davidson diagonalization with overlap
     ethr =  2.83E-08,  avg # of iterations =  2.0

     total cpu time spent up to now is       56.5 secs

     End of self-consistent calculation

          k = 0.0000 0.0000 0.0000 (   941 PWs)   bands (ev):

   -10.8175   4.9832   4.9832   4.9832

          k =-0.1000 0.1000-0.1000 (   929 PWs)   bands (ev):

   -10.7103   4.4180   4.9296   4.9296

          k =-0.2000 0.2000-0.2000 (   920 PWs)   bands (ev):

   -10.4115   3.1046   4.7978   4.7978

          k =-0.3000 0.3000-0.3000 (   932 PWs)   bands (ev):

    -9.9967   1.6668   4.6503   4.6503

          k =-0.4000 0.4000-0.4000 (   941 PWs)   bands (ev):

    -9.6106   0.5719   4.5420   4.5420

          k = 0.5000-0.5000 0.5000 (   912 PWs)   bands (ev):

    -9.4465   0.1588   4.5029   4.5029

          k = 0.0000 0.2000 0.0000 (   933 PWs)   bands (ev):

   -10.6737   4.5569   4.7341   4.7341

          k =-0.1000 0.3000-0.1000 (   926 PWs)   bands (ev):

   -10.4355   3.5178   4.4966   4.6727

          k =-0.2000 0.4000-0.2000 (   936 PWs)   bands (ev):

   -10.0521   2.1265   4.3125   4.4848

          k =-0.3000 0.5000-0.3000 (   929 PWs)   bands (ev):

    -9.6426   0.9233   4.2171   4.2433

          k = 0.6000-0.4000 0.6000 (   928 PWs)   bands (ev):

    -9.3912   0.2830   3.9793   4.3068

          k = 0.5000-0.3000 0.5000 (   933 PWs)   bands (ev):

    -9.4482   0.4281   3.8515   4.4798

          k = 0.4000-0.2000 0.4000 (   936 PWs)   bands (ev):

    -9.7764   1.3037   3.8771   4.7056

          k = 0.3000-0.1000 0.3000 (   931 PWs)   bands (ev):

   -10.1949   2.6036   4.0697   4.9048

          k = 0.2000 0.0000 0.2000 (   923 PWs)   bands (ev):

   -10.5379   3.8260   4.4561   4.9952

          k = 0.0000 0.4000 0.0000 (   926 PWs)   bands (ev):

   -10.2609   3.3716   4.1447   4.1447

          k =-0.1000 0.5000-0.1000 (   933 PWs)   bands (ev):

    -9.9279   2.3287   3.8557   3.8747

          k =-0.2000 0.6000-0.2000 (   933 PWs)   bands (ev):

    -9.5330   1.2445   3.4169   3.7668

          k = 0.7000-0.3000 0.7000 (   932 PWs)   bands (ev):

    -9.2368   0.5599   2.9523   3.8482

          k = 0.6000-0.2000 0.6000 (   931 PWs)   bands (ev):

    -9.2021   0.5355   2.6370   4.0977

          k = 0.5000-0.1000 0.5000 (   930 PWs)   bands (ev):

    -9.4499   1.1706   2.5927   4.4429

          k = 0.4000 0.0000 0.4000 (   925 PWs)   bands (ev):

    -9.8370   2.0313   3.0458   4.7603

          k = 0.0000 0.6000 0.0000 (   938 PWs)   bands (ev):

    -9.6532   1.7806   3.5109   3.5109

          k =-0.1000 0.7000-0.1000 (   937 PWs)   bands (ev):

    -9.3076   0.9963   3.0844   3.3258

          k = 0.8000-0.2000 0.8000 (   939 PWs)   bands (ev):

    -9.0262   0.5355   2.4160   3.3618

          k = 0.7000-0.1000 0.7000 (   941 PWs)   bands (ev):

    -8.9525   0.6482   1.7651   3.6116

          k = 0.6000-0.0000 0.6000 (   937 PWs)   bands (ev):

    -9.1270   1.3012   1.4144   4.0147

          k = 0.0000 0.8000 0.0000 (   942 PWs)   bands (ev):

    -9.0378   0.3770   3.0548   3.0548

          k = 0.9000-0.1000 0.9000 (   946 PWs)   bands (ev):

    -8.8357   0.0450   2.6789   3.0150

          k = 0.8000 0.0000 0.8000 (   951 PWs)   bands (ev):

    -8.8034   0.2253   2.0501   3.2147

          k = 0.0000-1.0000 0.0000 (   934 PWs)   bands (ev):

    -8.7568  -0.1995   2.8913   2.8913

          k =-0.2000 0.4000 0.0000 (   934 PWs)   bands (ev):

   -10.1504   2.7930   3.8077   4.6029

          k =-0.3000 0.5000-0.1000 (   928 PWs)   bands (ev):

    -9.7558   1.7083   3.3279   4.4133

          k = 0.6000-0.4000 0.8000 (   936 PWs)   bands (ev):

    -9.3919   0.7640   3.1216   4.1789

          k = 0.5000-0.3000 0.7000 (   938 PWs)   bands (ev):

    -9.2390   0.3961   3.0678   4.0740

          k =-0.2000 0.6000 0.0000 (   933 PWs)   bands (ev):

    -9.5843   1.6054   3.1216   3.7908

          k = 0.7000-0.3000 0.9000 (   931 PWs)   bands (ev):

    -9.2335   0.9350   2.5378   3.6197

          k = 0.6000-0.2000 0.8000 (   935 PWs)   bands (ev):

    -9.0350   0.6339   2.1038   3.6112

          k = 0.5000-0.1000 0.7000 (   932 PWs)   bands (ev):

    -9.1016   0.8793   1.9053   3.8239

          k = 0.4000 0.0000 0.6000 (   929 PWs)   bands (ev):

    -9.3920   1.3698   2.2660   4.1544

          k = 0.8000-0.2000 1.0000 (   932 PWs)   bands (ev):

    -9.0204   0.4931   2.6331   3.1685

          k = 0.7000-0.1000 0.9000 (   939 PWs)   bands (ev):

    -8.8504   0.4061   2.0006   3.1743

          k = 0.6000 0.0000 0.8000 (   930 PWs)   bands (ev):

    -8.8850   0.8308   1.4118   3.4248

          k =-0.2000-1.0000 0.0000 (   944 PWs)   bands (ev):

    -8.7679   0.0140   2.4590   2.9555

          k = 0.6000-0.2000 1.0000 (   936 PWs)   bands (ev):

    -8.9677   0.8488   1.7226   3.3757

          k = 0.5000-0.1000 0.9000 (   930 PWs)   bands (ev):

    -8.8593   0.9253   1.3181   3.2542

          k =-0.4000-1.0000 0.0000 (   940 PWs)   bands (ev):

    -8.7852   0.6263   1.5308   3.0604

     highest occupied level (ev):     4.9952

!    total energy              =     -30.67859169 Ry
     estimated scf accuracy    <       0.00000079 Ry

     The total energy is the sum of the following terms:
     one-electron contribution =       0.26412458 Ry
     hartree contribution      =       4.17541322 Ry
     xc contribution           =      -6.53174289 Ry
     ewald contribution        =     -28.58638660 Ry

     convergence has been achieved in  23 iterations
     Writing meta-gga kinetic term

     Writing all to output data dir ./input_pw/NaCl/6/pwscf.save/
     Writing meta-gga kinetic term
 
     init_run     :      1.33s CPU      3.72s WALL (       1 calls)
     electrons    :     24.33s CPU     52.70s WALL (       1 calls)

     Called by init_run:
     wfcinit      :      1.22s CPU      3.34s WALL (       1 calls)
     potinit      :      0.02s CPU      0.03s WALL (       1 calls)
     hinit0       :      0.09s CPU      0.30s WALL (       1 calls)

     Called by electrons:
     c_bands      :     19.00s CPU     41.46s WALL (      23 calls)
     sum_band     :      4.72s CPU     10.05s WALL (      23 calls)
     v_of_rho     :      0.30s CPU      0.64s WALL (      24 calls)
     mix_rho      :      0.29s CPU      0.57s WALL (      23 calls)

     Called by c_bands:
     init_us_2    :      0.28s CPU      0.62s WALL (    2209 calls)
     init_us_2:cp :      0.27s CPU      0.61s WALL (    2209 calls)
     cegterg      :     18.73s CPU     40.67s WALL (    1081 calls)

     Called by *egterg:
     cdiaghg      :      0.15s CPU      0.17s WALL (    2394 calls)
     h_psi        :     19.41s CPU     42.87s WALL (    2441 calls)
     g_psi        :      0.02s CPU      0.03s WALL (    1313 calls)

     Called by h_psi:
     h_psi:calbec :      0.08s CPU      0.15s WALL (    2441 calls)
     vloc_psi     :      4.76s CPU     10.66s WALL (    2441 calls)
     add_vuspsi   :      0.08s CPU      0.14s WALL (    2441 calls)
     h_psi_meta   :     14.44s CPU     31.80s WALL (    2441 calls)

     General routines
     calbec       :      0.08s CPU      0.13s WALL (    2441 calls)
     fft          :      0.06s CPU      0.14s WALL (     285 calls)
     ffts         :      0.11s CPU      0.28s WALL (     506 calls)
     fftw         :     20.90s CPU     45.54s WALL (   96992 calls)
     interpolate  :      0.00s CPU      0.00s WALL (      24 calls)
 
     Parallel routines
 
     PWSCF        :     25.71s CPU     56.56s WALL

 
   This run was terminated on:  14:32: 4  14Mar2023            

=------------------------------------------------------------------------------=
   JOB DONE.
=------------------------------------------------------------------------------=
