
     Program PWSCF v.7.0 starts on 21Feb2023 at 12:49:41 

     This program is part of the open-source Quantum ESPRESSO suite
     for quantum simulation of materials; please cite
         "P. Giannozzi et al., J. Phys.:Condens. Matter 21 395502 (2009);
         "P. Giannozzi et al., J. Phys.:Condens. Matter 29 465901 (2017);
         "P. Giannozzi et al., J. Chem. Phys. 152 154105 (2020);
          URL http://www.quantum-espresso.org", 
     in publications or presentations arising from this work. More details at
     http://www.quantum-espresso.org/quote

     Parallel version (MPI), running on     1 processors

     MPI processes distributed on     1 nodes
     2942 MiB available memory on the printing compute node when the environment starts
 
     Waiting for input...
     Reading input from standard input
Warning: card &CELL ignored
Warning: card / ignored

     Current dimensions of program PWSCF are:
     Max number of different atomic species (ntypx) = 10
     Max number of k-points (npk) =  40000
     Max angular momentum in pseudopotentials (lmaxx) =  4
     file Si.SCAN.UPF2: wavefunction(s)  0D renormalized

     WARNING: the MGGA functional with ID    5 has been 
     read together with other dft terms, but it should 
     stand alone in order to work properly. The other 
     terms will be ignored.

     Subspace diagonalization in iterative solution of the eigenvalue problem:
     a serial algorithm will be used

 
     G-vector sticks info
     --------------------
     sticks:   dense  smooth     PW     G-vecs:    dense   smooth      PW
     Sum        1003    1003    301                20827    20827    3479
 
     Using Slab Decomposition
 


     bravais-lattice index     =            2
     lattice parameter (alat)  =      12.0244  a.u.
     unit-cell volume          =     434.6406 (a.u.)^3
     number of atoms/cell      =            2
     number of atomic types    =            1
     number of electrons       =         8.00
     number of Kohn-Sham states=            4
     kinetic-energy cutoff     =      50.0000  Ry
     charge density cutoff     =     200.0000  Ry
     scf convergence threshold =      1.0E-06
     mixing beta               =       0.0100
     number of iterations used =            8  local-TF  mixing
     Exchange-correlation= SLA  PW   SCAN SCAN
                           (   0   0   0   0   0 263 267)

     celldm(1)=  12.024400  celldm(2)=   0.000000  celldm(3)=   0.000000
     celldm(4)=   0.000000  celldm(5)=   0.000000  celldm(6)=   0.000000

     crystal axes: (cart. coord. in units of alat)
               a(1) = (  -0.500000   0.000000   0.500000 )  
               a(2) = (   0.000000   0.500000   0.500000 )  
               a(3) = (  -0.500000   0.500000   0.000000 )  

     reciprocal axes: (cart. coord. in units 2 pi/alat)
               b(1) = ( -1.000000 -1.000000  1.000000 )  
               b(2) = (  1.000000  1.000000  1.000000 )  
               b(3) = ( -1.000000  1.000000 -1.000000 )  


     PseudoPot. # 1 for Si read from file:
     ~/Documents/TA/PWDFT.jl/pseudopotentials/scan_upf/Si.SCAN.UPF2
     MD5 check sum: Not computed, couldn't open file
     Pseudo is Norm-conserving, Zval =  4.0
     Generated by new atomic code, or converted to UPF format
     Using radial grid of 1475 points,  2 beta functions with: 
                l(1) =   0
                l(2) =   1

     atomic species   valence    mass     pseudopotential
        Si             4.00    28.08550     Si( 1.00)

     48 Sym. Ops., with inversion, found (24 have fractional translation)



   Cartesian axes

     site n.     atom                  positions (alat units)
         1           Si  tau(   1) = (   0.0000000   0.0000000   0.0000000  )
         2           Si  tau(   2) = (   0.2500000   0.2500000   0.2500000  )

     number of k points=    47
                       cart. coord. in units 2pi/alat
        k(    1) = (   0.0000000   0.0000000   0.0000000), wk =   0.0020000
        k(    2) = (  -0.1000000   0.1000000  -0.1000000), wk =   0.0160000
        k(    3) = (  -0.2000000   0.2000000  -0.2000000), wk =   0.0160000
        k(    4) = (  -0.3000000   0.3000000  -0.3000000), wk =   0.0160000
        k(    5) = (  -0.4000000   0.4000000  -0.4000000), wk =   0.0160000
        k(    6) = (   0.5000000  -0.5000000   0.5000000), wk =   0.0080000
        k(    7) = (   0.0000000   0.2000000   0.0000000), wk =   0.0120000
        k(    8) = (  -0.1000000   0.3000000  -0.1000000), wk =   0.0480000
        k(    9) = (  -0.2000000   0.4000000  -0.2000000), wk =   0.0480000
        k(   10) = (  -0.3000000   0.5000000  -0.3000000), wk =   0.0480000
        k(   11) = (   0.6000000  -0.4000000   0.6000000), wk =   0.0480000
        k(   12) = (   0.5000000  -0.3000000   0.5000000), wk =   0.0480000
        k(   13) = (   0.4000000  -0.2000000   0.4000000), wk =   0.0480000
        k(   14) = (   0.3000000  -0.1000000   0.3000000), wk =   0.0480000
        k(   15) = (   0.2000000   0.0000000   0.2000000), wk =   0.0240000
        k(   16) = (   0.0000000   0.4000000   0.0000000), wk =   0.0120000
        k(   17) = (  -0.1000000   0.5000000  -0.1000000), wk =   0.0480000
        k(   18) = (  -0.2000000   0.6000000  -0.2000000), wk =   0.0480000
        k(   19) = (   0.7000000  -0.3000000   0.7000000), wk =   0.0480000
        k(   20) = (   0.6000000  -0.2000000   0.6000000), wk =   0.0480000
        k(   21) = (   0.5000000  -0.1000000   0.5000000), wk =   0.0480000
        k(   22) = (   0.4000000   0.0000000   0.4000000), wk =   0.0240000
        k(   23) = (   0.0000000   0.6000000   0.0000000), wk =   0.0120000
        k(   24) = (  -0.1000000   0.7000000  -0.1000000), wk =   0.0480000
        k(   25) = (   0.8000000  -0.2000000   0.8000000), wk =   0.0480000
        k(   26) = (   0.7000000  -0.1000000   0.7000000), wk =   0.0480000
        k(   27) = (   0.6000000  -0.0000000   0.6000000), wk =   0.0240000
        k(   28) = (   0.0000000   0.8000000   0.0000000), wk =   0.0120000
        k(   29) = (   0.9000000  -0.1000000   0.9000000), wk =   0.0480000
        k(   30) = (   0.8000000   0.0000000   0.8000000), wk =   0.0240000
        k(   31) = (   0.0000000  -1.0000000   0.0000000), wk =   0.0060000
        k(   32) = (  -0.2000000   0.4000000   0.0000000), wk =   0.0480000
        k(   33) = (  -0.3000000   0.5000000  -0.1000000), wk =   0.0960000
        k(   34) = (   0.6000000  -0.4000000   0.8000000), wk =   0.0960000
        k(   35) = (   0.5000000  -0.3000000   0.7000000), wk =   0.0480000
        k(   36) = (  -0.2000000   0.6000000   0.0000000), wk =   0.0480000
        k(   37) = (   0.7000000  -0.3000000   0.9000000), wk =   0.0960000
        k(   38) = (   0.6000000  -0.2000000   0.8000000), wk =   0.0960000
        k(   39) = (   0.5000000  -0.1000000   0.7000000), wk =   0.0960000
        k(   40) = (   0.4000000   0.0000000   0.6000000), wk =   0.0480000
        k(   41) = (   0.8000000  -0.2000000   1.0000000), wk =   0.0480000
        k(   42) = (   0.7000000  -0.1000000   0.9000000), wk =   0.0960000
        k(   43) = (   0.6000000   0.0000000   0.8000000), wk =   0.0480000
        k(   44) = (  -0.2000000  -1.0000000   0.0000000), wk =   0.0240000
        k(   45) = (   0.6000000  -0.2000000   1.0000000), wk =   0.0480000
        k(   46) = (   0.5000000  -0.1000000   0.9000000), wk =   0.0480000
        k(   47) = (  -0.4000000  -1.0000000   0.0000000), wk =   0.0240000

     Dense  grid:    20827 G-vectors     FFT dimensions: (  40,  40,  40)

     Estimated max dynamical RAM per process >      38.94 MB

     WARNING: libxc functional with ID  263 depends
      on external parameters: check the user_guide of
      QE if you need to modify them or to check their
      default values.

     Initial potential from superposition of free atoms

     starting charge       7.9990, renormalised to       8.0000
     Starting wfcs are   18 randomized atomic wfcs

     total cpu time spent up to now is       10.3 secs

     Self-consistent Calculation

     iteration #  1     ecut=    50.00 Ry     beta= 0.01
     Davidson diagonalization with overlap
     ethr =  1.00E-02,  avg # of iterations =  1.2

     Threshold (ethr) on eigenvalues was too large:
     Diagonalizing with lowered threshold

     Davidson diagonalization with overlap
     ethr =  3.99E-04,  avg # of iterations =  2.0

     total cpu time spent up to now is       24.3 secs

     total energy              =     -15.57341585 Ry
     estimated scf accuracy    <       0.03402056 Ry

     iteration #  2     ecut=    50.00 Ry     beta= 0.01
     Davidson diagonalization with overlap
     ethr =  4.25E-04,  avg # of iterations =  1.0

     total cpu time spent up to now is       30.6 secs

     total energy              =     -15.55271171 Ry
     estimated scf accuracy    <       0.03414479 Ry

     iteration #  3     ecut=    50.00 Ry     beta= 0.01
     Davidson diagonalization with overlap
     ethr =  4.25E-04,  avg # of iterations =  1.9

     total cpu time spent up to now is       37.4 secs

     total energy              =     -15.59984182 Ry
     estimated scf accuracy    <       0.05037961 Ry

     iteration #  4     ecut=    50.00 Ry     beta= 0.01
     Davidson diagonalization with overlap
     ethr =  4.25E-04,  avg # of iterations =  1.8

     total cpu time spent up to now is       42.2 secs

     total energy              =     -15.60388809 Ry
     estimated scf accuracy    <       0.00603392 Ry

     iteration #  5     ecut=    50.00 Ry     beta= 0.01
     Davidson diagonalization with overlap
     ethr =  7.54E-05,  avg # of iterations =  2.0

     total cpu time spent up to now is       46.9 secs

     total energy              =     -15.60474132 Ry
     estimated scf accuracy    <       0.00289943 Ry

     iteration #  6     ecut=    50.00 Ry     beta= 0.01
     Davidson diagonalization with overlap
     ethr =  3.62E-05,  avg # of iterations =  1.0

     total cpu time spent up to now is       50.5 secs

     total energy              =     -15.60458788 Ry
     estimated scf accuracy    <       0.00357859 Ry

     iteration #  7     ecut=    50.00 Ry     beta= 0.01
     Davidson diagonalization with overlap
     ethr =  3.62E-05,  avg # of iterations =  1.0

     total cpu time spent up to now is       53.9 secs

     total energy              =     -15.60466829 Ry
     estimated scf accuracy    <       0.00056992 Ry

     iteration #  8     ecut=    50.00 Ry     beta= 0.01
     Davidson diagonalization with overlap
     ethr =  7.12E-06,  avg # of iterations =  2.1

     total cpu time spent up to now is       58.8 secs

     total energy              =     -15.60474632 Ry
     estimated scf accuracy    <       0.00007251 Ry

     iteration #  9     ecut=    50.00 Ry     beta= 0.01
     Davidson diagonalization with overlap
     ethr =  9.06E-07,  avg # of iterations =  1.4

     total cpu time spent up to now is       62.4 secs

     total energy              =     -15.60476097 Ry
     estimated scf accuracy    <       0.00007333 Ry

     iteration # 10     ecut=    50.00 Ry     beta= 0.01
     Davidson diagonalization with overlap
     ethr =  9.06E-07,  avg # of iterations =  1.0

     total cpu time spent up to now is       65.5 secs

     total energy              =     -15.60477935 Ry
     estimated scf accuracy    <       0.00005187 Ry

     iteration # 11     ecut=    50.00 Ry     beta= 0.01
     Davidson diagonalization with overlap
     ethr =  6.48E-07,  avg # of iterations =  2.0

     total cpu time spent up to now is       68.3 secs

     total energy              =     -15.60478999 Ry
     estimated scf accuracy    <       0.00000192 Ry

     iteration # 12     ecut=    50.00 Ry     beta= 0.01
     Davidson diagonalization with overlap
     ethr =  2.39E-08,  avg # of iterations =  2.5

     total cpu time spent up to now is       70.2 secs

     total energy              =     -15.60478990 Ry
     estimated scf accuracy    <       0.00000154 Ry

     iteration # 13     ecut=    50.00 Ry     beta= 0.01
     Davidson diagonalization with overlap
     ethr =  1.93E-08,  avg # of iterations =  2.0

     total cpu time spent up to now is       72.3 secs

     total energy              =     -15.60479009 Ry
     estimated scf accuracy    <       0.00000290 Ry

     iteration # 14     ecut=    50.00 Ry     beta= 0.01
     Davidson diagonalization with overlap
     ethr =  1.93E-08,  avg # of iterations =  2.0

     total cpu time spent up to now is       74.3 secs

     End of self-consistent calculation

          k = 0.0000 0.0000 0.0000 (  2637 PWs)   bands (ev):

    -7.6712   1.2957   2.0551   2.0551

          k =-0.1000 0.1000-0.1000 (  2637 PWs)   bands (ev):

    -7.5817   0.3147   1.9337   1.9337

          k =-0.2000 0.2000-0.2000 (  2623 PWs)   bands (ev):

    -7.3204  -0.9971   1.6775   1.6775

          k =-0.3000 0.3000-0.3000 (  2593 PWs)   bands (ev):

    -6.9161  -2.2140   1.4326   1.4326

          k =-0.4000 0.4000-0.4000 (  2584 PWs)   bands (ev):

    -6.4599  -3.1766   1.2691   1.2691

          k = 0.5000-0.5000 0.5000 (  2608 PWs)   bands (ev):

    -6.2186  -3.5894   1.2125   1.2125

          k = 0.0000 0.2000 0.0000 (  2621 PWs)   bands (ev):

    -7.5515   0.1916   1.7252   1.7252

          k =-0.1000 0.3000-0.1000 (  2610 PWs)   bands (ev):

    -7.3458  -0.7850   1.4393   1.4475

          k =-0.2000 0.4000-0.2000 (  2591 PWs)   bands (ev):

    -6.9838  -1.9311   1.1052   1.2050

          k =-0.3000 0.5000-0.3000 (  2583 PWs)   bands (ev):

    -6.5261  -2.9497   0.8008   1.0783

          k = 0.6000-0.4000 0.6000 (  2590 PWs)   bands (ev):

    -6.1664  -3.5742   0.6062   1.0759

          k = 0.5000-0.3000 0.5000 (  2585 PWs)   bands (ev):

    -6.2549  -3.4311   0.5511   1.1943

          k = 0.4000-0.2000 0.4000 (  2603 PWs)   bands (ev):

    -6.6845  -2.6337   0.6514   1.4131

          k = 0.3000-0.1000 0.3000 (  2608 PWs)   bands (ev):

    -7.1215  -1.5588   0.9219   1.6854

          k = 0.2000 0.0000 0.2000 (  2631 PWs)   bands (ev):

    -7.4343  -0.4600   1.3848   1.9105

          k = 0.0000 0.4000 0.0000 (  2601 PWs)   bands (ev):

    -7.1956  -1.1790   1.1340   1.1340

          k =-0.1000 0.5000-0.1000 (  2600 PWs)   bands (ev):

    -6.8814  -1.9991   0.7612   0.8891

          k =-0.2000 0.6000-0.2000 (  2600 PWs)   bands (ev):

    -6.4419  -2.8984   0.3080   0.7624

          k = 0.7000-0.3000 0.7000 (  2590 PWs)   bands (ev):

    -6.0065  -3.6065  -0.0472   0.7725

          k = 0.6000-0.2000 0.6000 (  2582 PWs)   bands (ev):

    -5.9303  -3.7161  -0.2189   0.9155

          k = 0.5000-0.1000 0.5000 (  2596 PWs)   bands (ev):

    -6.3094  -3.1371  -0.1556   1.1657

          k = 0.4000 0.0000 0.4000 (  2607 PWs)   bands (ev):

    -6.7666  -2.3178   0.2086   1.4631

          k = 0.0000 0.6000 0.0000 (  2614 PWs)   bands (ev):

    -6.6140  -2.4982   0.6233   0.6233

          k =-0.1000 0.7000-0.1000 (  2592 PWs)   bands (ev):

    -6.2047  -3.1923   0.2522   0.4746

          k = 0.8000-0.2000 0.8000 (  2600 PWs)   bands (ev):

    -5.7322  -3.8504  -0.2357   0.4674

          k = 0.7000-0.1000 0.7000 (  2590 PWs)   bands (ev):

    -5.5130  -4.1151  -0.5595   0.6016

          k = 0.6000-0.0000 0.6000 (  2594 PWs)   bands (ev):

    -5.8470  -3.7123  -0.5657   0.8542

          k = 0.0000 0.8000 0.0000 (  2598 PWs)   bands (ev):

    -5.8247  -3.7332   0.2954   0.2954

          k = 0.9000-0.1000 0.9000 (  2586 PWs)   bands (ev):

    -5.3425  -4.3170  -0.0117   0.2572

          k = 0.8000 0.0000 0.8000 (  2592 PWs)   bands (ev):

    -5.0951  -4.5664  -0.4251   0.3651

          k = 0.0000-1.0000 0.0000 (  2586 PWs)   bands (ev):

    -4.8535  -4.8535   0.1833   0.1833

          k =-0.2000 0.4000 0.0000 (  2602 PWs)   bands (ev):

    -7.0868  -1.5551   0.7898   1.3782

          k =-0.3000 0.5000-0.1000 (  2591 PWs)   bands (ev):

    -6.6841  -2.4883   0.3349   1.1517

          k = 0.6000-0.4000 0.8000 (  2601 PWs)   bands (ev):

    -6.2227  -3.3280   0.0878   0.9468

          k = 0.5000-0.3000 0.7000 (  2592 PWs)   bands (ev):

    -5.9717  -3.7138   0.0107   0.8685

          k =-0.2000 0.6000 0.0000 (  2592 PWs)   bands (ev):

    -6.5216  -2.6910   0.3008   0.7186

          k = 0.7000-0.3000 0.9000 (  2598 PWs)   bands (ev):

    -6.0588  -3.4265  -0.1114   0.5356

          k = 0.6000-0.2000 0.8000 (  2585 PWs)   bands (ev):

    -5.6818  -3.9362  -0.3869   0.5023

          k = 0.5000-0.1000 0.7000 (  2591 PWs)   bands (ev):

    -5.8032  -3.7794  -0.4504   0.6427

          k = 0.4000 0.0000 0.6000 (  2601 PWs)   bands (ev):

    -6.2550  -3.1551  -0.2265   0.9021

          k = 0.8000-0.2000 1.0000 (  2594 PWs)   bands (ev):

    -5.7613  -3.8003   0.0257   0.2371

          k = 0.7000-0.1000 0.9000 (  2595 PWs)   bands (ev):

    -5.3022  -4.3308  -0.3485   0.1817

          k = 0.6000 0.0000 0.8000 (  2590 PWs)   bands (ev):

    -5.3497  -4.2715  -0.5820   0.3474

          k =-0.2000-1.0000 0.0000 (  2576 PWs)   bands (ev):

    -4.8395  -4.8395   0.0011   0.0011

          k = 0.6000-0.2000 1.0000 (  2583 PWs)   bands (ev):

    -5.5879  -3.9939  -0.3937   0.2207

          k = 0.5000-0.1000 0.9000 (  2592 PWs)   bands (ev):

    -5.2756  -4.3413  -0.4774   0.0754

          k =-0.4000-1.0000 0.0000 (  2594 PWs)   bands (ev):

    -4.8163  -4.8163  -0.2444  -0.2444

     highest occupied level (ev):     2.0551

!    total energy              =     -15.60479055 Ry
     estimated scf accuracy    <       0.00000006 Ry

     The total energy is the sum of the following terms:
     one-electron contribution =       1.56417292 Ry
     hartree contribution      =       1.54104538 Ry
     xc contribution           =      -4.37436317 Ry
     ewald contribution        =     -14.33564567 Ry

     convergence has been achieved in  14 iterations
     Writing meta-gga kinetic term

     Writing all to output data dir ./input_pw/Si/14/pwscf.save/
     Writing meta-gga kinetic term
 
     init_run     :      5.25s CPU     10.30s WALL (       1 calls)
     electrons    :     45.72s CPU     63.95s WALL (       1 calls)

     Called by init_run:
     wfcinit      :      5.12s CPU     10.06s WALL (       1 calls)
     potinit      :      0.04s CPU      0.14s WALL (       1 calls)
     hinit0       :      0.06s CPU      0.08s WALL (       1 calls)

     Called by electrons:
     c_bands      :     36.56s CPU     50.94s WALL (      15 calls)
     sum_band     :      8.23s CPU     11.62s WALL (      15 calls)
     v_of_rho     :      0.56s CPU      0.89s WALL (      15 calls)
     mix_rho      :      0.39s CPU      0.60s WALL (      15 calls)

     Called by c_bands:
     init_us_2    :      0.41s CPU      0.62s WALL (    1457 calls)
     init_us_2:cp :      0.41s CPU      0.62s WALL (    1457 calls)
     cegterg      :     36.07s CPU     50.15s WALL (     705 calls)

     Called by *egterg:
     cdiaghg      :      0.10s CPU      0.17s WALL (    1830 calls)
     h_psi        :     40.41s CPU     59.02s WALL (    1924 calls)
     g_psi        :      0.03s CPU      0.03s WALL (    1172 calls)

     Called by h_psi:
     h_psi:calbec :      0.15s CPU      0.20s WALL (    1924 calls)
     vloc_psi     :      9.97s CPU     14.74s WALL (    1924 calls)
     add_vuspsi   :      0.13s CPU      0.15s WALL (    1924 calls)
     h_psi_meta   :     30.11s CPU     43.86s WALL (    1924 calls)

     General routines
     calbec       :      0.14s CPU      0.18s WALL (    1924 calls)
     fft          :      0.10s CPU      0.20s WALL (     179 calls)
     ffts         :      0.15s CPU      0.23s WALL (     263 calls)
     fftw         :     41.34s CPU     60.12s WALL (   72880 calls)
     interpolate  :      0.00s CPU      0.00s WALL (      15 calls)
 
     Parallel routines
 
     PWSCF        :     51.00s CPU   1m14.31s WALL

 
   This run was terminated on:  12:50:55  21Feb2023            

=------------------------------------------------------------------------------=
   JOB DONE.
=------------------------------------------------------------------------------=
