
     Program PWSCF v.7.0 starts on 29Mar2023 at 11:31: 6 

     This program is part of the open-source Quantum ESPRESSO suite
     for quantum simulation of materials; please cite
         "P. Giannozzi et al., J. Phys.:Condens. Matter 21 395502 (2009);
         "P. Giannozzi et al., J. Phys.:Condens. Matter 29 465901 (2017);
         "P. Giannozzi et al., J. Chem. Phys. 152 154105 (2020);
          URL http://www.quantum-espresso.org", 
     in publications or presentations arising from this work. More details at
     http://www.quantum-espresso.org/quote

     Parallel version (MPI), running on     1 processors

     MPI processes distributed on     1 nodes
     23214 MiB available memory on the printing compute node when the environment starts
 
     Waiting for input...
     Reading input from standard input
Warning: card &CELL ignored
Warning: card / ignored

     Current dimensions of program PWSCF are:
     Max number of different atomic species (ntypx) = 10
     Max number of k-points (npk) =  40000
     Max angular momentum in pseudopotentials (lmaxx) =  4
     file Si.SCAN.UPF2: wavefunction(s)  0D renormalized

     WARNING: the MGGA functional with ID    5 has been 
     read together with other dft terms, but it should 
     stand alone in order to work properly. The other 
     terms will be ignored.

     Subspace diagonalization in iterative solution of the eigenvalue problem:
     a serial algorithm will be used

 
     G-vector sticks info
     --------------------
     sticks:   dense  smooth     PW     G-vecs:    dense   smooth      PW
     Sum        1027    1027    301                21331    21331    3479
 
     Using Slab Decomposition
 


     bravais-lattice index     =            2
     lattice parameter (alat)  =      12.1263  a.u.
     unit-cell volume          =     445.7841 (a.u.)^3
     number of atoms/cell      =            2
     number of atomic types    =            1
     number of electrons       =         8.00
     number of Kohn-Sham states=            4
     kinetic-energy cutoff     =      50.0000  Ry
     charge density cutoff     =     200.0000  Ry
     scf convergence threshold =      1.0E-06
     mixing beta               =       0.0100
     number of iterations used =            8  local-TF  mixing
     Exchange-correlation= SLA  PW   SCAN SCAN
                           (   0   0   0   0   0 263 267)

     celldm(1)=  12.126297  celldm(2)=   0.000000  celldm(3)=   0.000000
     celldm(4)=   0.000000  celldm(5)=   0.000000  celldm(6)=   0.000000

     crystal axes: (cart. coord. in units of alat)
               a(1) = (  -0.500000   0.000000   0.500000 )  
               a(2) = (   0.000000   0.500000   0.500000 )  
               a(3) = (  -0.500000   0.500000   0.000000 )  

     reciprocal axes: (cart. coord. in units 2 pi/alat)
               b(1) = ( -1.000000 -1.000000  1.000000 )  
               b(2) = (  1.000000  1.000000  1.000000 )  
               b(3) = ( -1.000000  1.000000 -1.000000 )  


     PseudoPot. # 1 for Si read from file:
     ~/Documents/TA/PWDFT.jl/pseudopotentials/scan_upf/Si.SCAN.UPF2
     MD5 check sum: Not computed, couldn't open file
     Pseudo is Norm-conserving, Zval =  4.0
     Generated by new atomic code, or converted to UPF format
     Using radial grid of 1475 points,  2 beta functions with: 
                l(1) =   0
                l(2) =   1

     atomic species   valence    mass     pseudopotential
        Si             4.00    28.08550     Si( 1.00)

     48 Sym. Ops., with inversion, found (24 have fractional translation)



   Cartesian axes

     site n.     atom                  positions (alat units)
         1           Si  tau(   1) = (   0.0000000   0.0000000   0.0000000  )
         2           Si  tau(   2) = (   0.2500000   0.2500000   0.2500000  )

     number of k points=    47
                       cart. coord. in units 2pi/alat
        k(    1) = (   0.0000000   0.0000000   0.0000000), wk =   0.0020000
        k(    2) = (  -0.1000000   0.1000000  -0.1000000), wk =   0.0160000
        k(    3) = (  -0.2000000   0.2000000  -0.2000000), wk =   0.0160000
        k(    4) = (  -0.3000000   0.3000000  -0.3000000), wk =   0.0160000
        k(    5) = (  -0.4000000   0.4000000  -0.4000000), wk =   0.0160000
        k(    6) = (   0.5000000  -0.5000000   0.5000000), wk =   0.0080000
        k(    7) = (   0.0000000   0.2000000   0.0000000), wk =   0.0120000
        k(    8) = (  -0.1000000   0.3000000  -0.1000000), wk =   0.0480000
        k(    9) = (  -0.2000000   0.4000000  -0.2000000), wk =   0.0480000
        k(   10) = (  -0.3000000   0.5000000  -0.3000000), wk =   0.0480000
        k(   11) = (   0.6000000  -0.4000000   0.6000000), wk =   0.0480000
        k(   12) = (   0.5000000  -0.3000000   0.5000000), wk =   0.0480000
        k(   13) = (   0.4000000  -0.2000000   0.4000000), wk =   0.0480000
        k(   14) = (   0.3000000  -0.1000000   0.3000000), wk =   0.0480000
        k(   15) = (   0.2000000   0.0000000   0.2000000), wk =   0.0240000
        k(   16) = (   0.0000000   0.4000000   0.0000000), wk =   0.0120000
        k(   17) = (  -0.1000000   0.5000000  -0.1000000), wk =   0.0480000
        k(   18) = (  -0.2000000   0.6000000  -0.2000000), wk =   0.0480000
        k(   19) = (   0.7000000  -0.3000000   0.7000000), wk =   0.0480000
        k(   20) = (   0.6000000  -0.2000000   0.6000000), wk =   0.0480000
        k(   21) = (   0.5000000  -0.1000000   0.5000000), wk =   0.0480000
        k(   22) = (   0.4000000   0.0000000   0.4000000), wk =   0.0240000
        k(   23) = (   0.0000000   0.6000000   0.0000000), wk =   0.0120000
        k(   24) = (  -0.1000000   0.7000000  -0.1000000), wk =   0.0480000
        k(   25) = (   0.8000000  -0.2000000   0.8000000), wk =   0.0480000
        k(   26) = (   0.7000000  -0.1000000   0.7000000), wk =   0.0480000
        k(   27) = (   0.6000000  -0.0000000   0.6000000), wk =   0.0240000
        k(   28) = (   0.0000000   0.8000000   0.0000000), wk =   0.0120000
        k(   29) = (   0.9000000  -0.1000000   0.9000000), wk =   0.0480000
        k(   30) = (   0.8000000   0.0000000   0.8000000), wk =   0.0240000
        k(   31) = (   0.0000000  -1.0000000   0.0000000), wk =   0.0060000
        k(   32) = (  -0.2000000   0.4000000   0.0000000), wk =   0.0480000
        k(   33) = (  -0.3000000   0.5000000  -0.1000000), wk =   0.0960000
        k(   34) = (   0.6000000  -0.4000000   0.8000000), wk =   0.0960000
        k(   35) = (   0.5000000  -0.3000000   0.7000000), wk =   0.0480000
        k(   36) = (  -0.2000000   0.6000000   0.0000000), wk =   0.0480000
        k(   37) = (   0.7000000  -0.3000000   0.9000000), wk =   0.0960000
        k(   38) = (   0.6000000  -0.2000000   0.8000000), wk =   0.0960000
        k(   39) = (   0.5000000  -0.1000000   0.7000000), wk =   0.0960000
        k(   40) = (   0.4000000   0.0000000   0.6000000), wk =   0.0480000
        k(   41) = (   0.8000000  -0.2000000   1.0000000), wk =   0.0480000
        k(   42) = (   0.7000000  -0.1000000   0.9000000), wk =   0.0960000
        k(   43) = (   0.6000000   0.0000000   0.8000000), wk =   0.0480000
        k(   44) = (  -0.2000000  -1.0000000   0.0000000), wk =   0.0240000
        k(   45) = (   0.6000000  -0.2000000   1.0000000), wk =   0.0480000
        k(   46) = (   0.5000000  -0.1000000   0.9000000), wk =   0.0480000
        k(   47) = (  -0.4000000  -1.0000000   0.0000000), wk =   0.0240000

     Dense  grid:    21331 G-vectors     FFT dimensions: (  40,  40,  40)

     Estimated max dynamical RAM per process >      39.71 MB

     WARNING: libxc functional with ID  263 depends
      on external parameters: check the user_guide of
      QE if you need to modify them or to check their
      default values.

     Initial potential from superposition of free atoms

     starting charge       7.9990, renormalised to       8.0000
     Starting wfcs are   18 randomized atomic wfcs

     total cpu time spent up to now is       12.2 secs

     Self-consistent Calculation

     iteration #  1     ecut=    50.00 Ry     beta= 0.01
     Davidson diagonalization with overlap
     ethr =  1.00E-02,  avg # of iterations =  1.2

     Threshold (ethr) on eigenvalues was too large:
     Diagonalizing with lowered threshold

     Davidson diagonalization with overlap
     ethr =  3.88E-04,  avg # of iterations =  2.0

     total cpu time spent up to now is       27.4 secs

     total energy              =     -15.56365694 Ry
     estimated scf accuracy    <       0.03308163 Ry

     iteration #  2     ecut=    50.00 Ry     beta= 0.01
     Davidson diagonalization with overlap
     ethr =  4.14E-04,  avg # of iterations =  1.0

     total cpu time spent up to now is       34.1 secs

     total energy              =     -15.54375646 Ry
     estimated scf accuracy    <       0.03320047 Ry

     iteration #  3     ecut=    50.00 Ry     beta= 0.01
     Davidson diagonalization with overlap
     ethr =  4.14E-04,  avg # of iterations =  1.2

     total cpu time spent up to now is       39.7 secs

     total energy              =     -15.58780792 Ry
     estimated scf accuracy    <       0.04842672 Ry

     iteration #  4     ecut=    50.00 Ry     beta= 0.01
     Davidson diagonalization with overlap
     ethr =  4.14E-04,  avg # of iterations =  1.8

     total cpu time spent up to now is       44.2 secs

     total energy              =     -15.59207836 Ry
     estimated scf accuracy    <       0.00586865 Ry

     iteration #  5     ecut=    50.00 Ry     beta= 0.01
     Davidson diagonalization with overlap
     ethr =  7.34E-05,  avg # of iterations =  2.0

     total cpu time spent up to now is       49.1 secs

     total energy              =     -15.59282602 Ry
     estimated scf accuracy    <       0.00279733 Ry

     iteration #  6     ecut=    50.00 Ry     beta= 0.01
     Davidson diagonalization with overlap
     ethr =  3.50E-05,  avg # of iterations =  1.0

     total cpu time spent up to now is       53.3 secs

     total energy              =     -15.59270763 Ry
     estimated scf accuracy    <       0.00371118 Ry

     iteration #  7     ecut=    50.00 Ry     beta= 0.01
     Davidson diagonalization with overlap
     ethr =  3.50E-05,  avg # of iterations =  1.0

     total cpu time spent up to now is       57.2 secs

     total energy              =     -15.59282320 Ry
     estimated scf accuracy    <       0.00042467 Ry

     iteration #  8     ecut=    50.00 Ry     beta= 0.01
     Davidson diagonalization with overlap
     ethr =  5.31E-06,  avg # of iterations =  2.0

     total cpu time spent up to now is       61.8 secs

     total energy              =     -15.59287671 Ry
     estimated scf accuracy    <       0.00008365 Ry

     iteration #  9     ecut=    50.00 Ry     beta= 0.01
     Davidson diagonalization with overlap
     ethr =  1.05E-06,  avg # of iterations =  1.2

     total cpu time spent up to now is       65.6 secs

     total energy              =     -15.59288605 Ry
     estimated scf accuracy    <       0.00008328 Ry

     iteration # 10     ecut=    50.00 Ry     beta= 0.01
     Davidson diagonalization with overlap
     ethr =  1.04E-06,  avg # of iterations =  1.0

     total cpu time spent up to now is       69.4 secs

     total energy              =     -15.59289958 Ry
     estimated scf accuracy    <       0.00006745 Ry

     iteration # 11     ecut=    50.00 Ry     beta= 0.01
     Davidson diagonalization with overlap
     ethr =  8.43E-07,  avg # of iterations =  2.0

     total cpu time spent up to now is       72.4 secs

     total energy              =     -15.59291170 Ry
     estimated scf accuracy    <       0.00000224 Ry

     iteration # 12     ecut=    50.00 Ry     beta= 0.01
     Davidson diagonalization with overlap
     ethr =  2.80E-08,  avg # of iterations =  2.6

     total cpu time spent up to now is       74.4 secs

     total energy              =     -15.59291255 Ry
     estimated scf accuracy    <       0.00000195 Ry

     iteration # 13     ecut=    50.00 Ry     beta= 0.01
     Davidson diagonalization with overlap
     ethr =  2.44E-08,  avg # of iterations =  1.6

     total cpu time spent up to now is       76.1 secs

     total energy              =     -15.59291186 Ry
     estimated scf accuracy    <       0.00000321 Ry

     iteration # 14     ecut=    50.00 Ry     beta= 0.01
     Davidson diagonalization with overlap
     ethr =  2.44E-08,  avg # of iterations =  2.0

     total cpu time spent up to now is       78.1 secs

     End of self-consistent calculation

          k = 0.0000 0.0000 0.0000 (  2685 PWs)   bands (ev):

    -7.7316   0.9171   1.8914   1.8914

          k =-0.1000 0.1000-0.1000 (  2697 PWs)   bands (ev):

    -7.6444   0.0448   1.7730   1.7730

          k =-0.2000 0.2000-0.2000 (  2677 PWs)   bands (ev):

    -7.3896  -1.2104   1.5225   1.5225

          k =-0.3000 0.3000-0.3000 (  2668 PWs)   bands (ev):

    -6.9962  -2.3877   1.2826   1.2826

          k =-0.4000 0.4000-0.4000 (  2656 PWs)   bands (ev):

    -6.5537  -3.3204   1.1222   1.1222

          k = 0.5000-0.5000 0.5000 (  2638 PWs)   bands (ev):

    -6.3210  -3.7194   1.0667   1.0667

          k = 0.0000 0.2000 0.0000 (  2693 PWs)   bands (ev):

    -7.6148  -0.0812   1.5708   1.5708

          k =-0.1000 0.3000-0.1000 (  2672 PWs)   bands (ev):

    -7.4143  -1.0152   1.2918   1.2952

          k =-0.2000 0.4000-0.2000 (  2665 PWs)   bands (ev):

    -7.0618  -2.1206   0.9566   1.0623

          k =-0.3000 0.5000-0.3000 (  2669 PWs)   bands (ev):

    -6.6172  -3.1064   0.6569   0.9374

          k = 0.6000-0.4000 0.6000 (  2655 PWs)   bands (ev):

    -6.2696  -3.7101   0.4665   0.9342

          k = 0.5000-0.3000 0.5000 (  2665 PWs)   bands (ev):

    -6.3549  -3.5719   0.4145   1.0493

          k = 0.4000-0.2000 0.4000 (  2661 PWs)   bands (ev):

    -6.7709  -2.8004   0.5163   1.2628

          k = 0.3000-0.1000 0.3000 (  2668 PWs)   bands (ev):

    -7.1958  -1.7603   0.7854   1.5289

          k = 0.2000 0.0000 0.2000 (  2677 PWs)   bands (ev):

    -7.5006  -0.6994   1.2399   1.7490

          k = 0.0000 0.4000 0.0000 (  2666 PWs)   bands (ev):

    -7.2678  -1.4057   0.9943   0.9943

          k =-0.1000 0.5000-0.1000 (  2660 PWs)   bands (ev):

    -6.9616  -2.2001   0.6290   0.7548

          k =-0.2000 0.6000-0.2000 (  2664 PWs)   bands (ev):

    -6.5340  -3.0708   0.1848   0.6303

          k = 0.7000-0.3000 0.7000 (  2654 PWs)   bands (ev):

    -6.1122  -3.7556  -0.1625   0.6393

          k = 0.6000-0.2000 0.6000 (  2656 PWs)   bands (ev):

    -6.0389  -3.8610  -0.3286   0.7783

          k = 0.5000-0.1000 0.5000 (  2664 PWs)   bands (ev):

    -6.4059  -3.3008  -0.2634   1.0221

          k = 0.4000 0.0000 0.4000 (  2666 PWs)   bands (ev):

    -6.8503  -2.5043   0.0940   1.3118

          k = 0.0000 0.6000 0.0000 (  2650 PWs)   bands (ev):

    -6.7007  -2.6897   0.4953   0.4953

          k =-0.1000 0.7000-0.1000 (  2666 PWs)   bands (ev):

    -6.3019  -3.3651   0.1345   0.3496

          k = 0.8000-0.2000 0.8000 (  2658 PWs)   bands (ev):

    -5.8430  -4.0047  -0.3389   0.3421

          k = 0.7000-0.1000 0.7000 (  2658 PWs)   bands (ev):

    -5.6318  -4.2603  -0.6527   0.4727

          k = 0.6000-0.0000 0.6000 (  2662 PWs)   bands (ev):

    -5.9564  -3.8672  -0.6584   0.7187

          k = 0.0000 0.8000 0.0000 (  2666 PWs)   bands (ev):

    -5.9312  -3.8930   0.1746   0.1746

          k = 0.9000-0.1000 0.9000 (  2668 PWs)   bands (ev):

    -5.4618  -4.4621  -0.1223   0.1370

          k = 0.8000 0.0000 0.8000 (  2642 PWs)   bands (ev):

    -5.2235  -4.7035  -0.5213   0.2421

          k = 0.0000-1.0000 0.0000 (  2698 PWs)   bands (ev):

    -4.9847  -4.9847   0.0649   0.0649

          k =-0.2000 0.4000 0.0000 (  2663 PWs)   bands (ev):

    -7.1619  -1.7645   0.6599   1.2283

          k =-0.3000 0.5000-0.1000 (  2660 PWs)   bands (ev):

    -6.7699  -2.6695   0.2136   1.0081

          k = 0.6000-0.4000 0.8000 (  2665 PWs)   bands (ev):

    -6.3221  -3.4821  -0.0320   0.8093

          k = 0.5000-0.3000 0.7000 (  2660 PWs)   bands (ev):

    -6.0797  -3.8546  -0.1091   0.7335

          k =-0.2000 0.6000 0.0000 (  2664 PWs)   bands (ev):

    -6.6110  -2.8749   0.1826   0.5878

          k = 0.7000-0.3000 0.9000 (  2665 PWs)   bands (ev):

    -6.1611  -3.5901  -0.2193   0.4104

          k = 0.6000-0.2000 0.8000 (  2658 PWs)   bands (ev):

    -5.7960  -4.0838  -0.4878   0.3782

          k = 0.5000-0.1000 0.7000 (  2657 PWs)   bands (ev):

    -5.9139  -3.9316  -0.5483   0.5144

          k = 0.4000 0.0000 0.6000 (  2659 PWs)   bands (ev):

    -6.3525  -3.3238  -0.3295   0.7661

          k = 0.8000-0.2000 1.0000 (  2658 PWs)   bands (ev):

    -5.8701  -3.9584  -0.0859   0.1200

          k = 0.7000-0.1000 0.9000 (  2657 PWs)   bands (ev):

    -5.4243  -4.4752  -0.4473   0.0662

          k = 0.6000 0.0000 0.8000 (  2657 PWs)   bands (ev):

    -5.4723  -4.4157  -0.6732   0.2273

          k =-0.2000-1.0000 0.0000 (  2658 PWs)   bands (ev):

    -4.9719  -4.9719  -0.1098  -0.1098

          k = 0.6000-0.2000 1.0000 (  2663 PWs)   bands (ev):

    -5.7030  -4.1463  -0.4915   0.1058

          k = 0.5000-0.1000 0.9000 (  2654 PWs)   bands (ev):

    -5.3997  -4.4851  -0.5722  -0.0351

          k =-0.4000-1.0000 0.0000 (  2664 PWs)   bands (ev):

    -4.9506  -4.9506  -0.3456  -0.3456

     highest occupied level (ev):     1.8914

!    total energy              =     -15.59291280 Ry
     estimated scf accuracy    <       0.00000007 Ry

     The total energy is the sum of the following terms:
     one-electron contribution =       1.40855976 Ry
     hartree contribution      =       1.56762611 Ry
     xc contribution           =      -4.35391505 Ry
     ewald contribution        =     -14.21518362 Ry

     convergence has been achieved in  14 iterations
     Writing meta-gga kinetic term

     Writing all to output data dir ./input_pw/Si/14/pwscf.save/
     Writing meta-gga kinetic term
 
     init_run     :      5.52s CPU     12.19s WALL (       1 calls)
     electrons    :     46.66s CPU     65.91s WALL (       1 calls)

     Called by init_run:
     wfcinit      :      5.39s CPU     11.84s WALL (       1 calls)
     potinit      :      0.04s CPU      0.13s WALL (       1 calls)
     hinit0       :      0.07s CPU      0.16s WALL (       1 calls)

     Called by electrons:
     c_bands      :     37.04s CPU     53.19s WALL (      15 calls)
     sum_band     :      8.63s CPU     11.55s WALL (      15 calls)
     v_of_rho     :      0.56s CPU      0.74s WALL (      15 calls)
     mix_rho      :      0.44s CPU      0.53s WALL (      15 calls)

     Called by c_bands:
     init_us_2    :      0.42s CPU      0.59s WALL (    1457 calls)
     init_us_2:cp :      0.42s CPU      0.59s WALL (    1457 calls)
     cegterg      :     36.54s CPU     52.47s WALL (     705 calls)

     Called by *egterg:
     cdiaghg      :      0.10s CPU      0.18s WALL (    1770 calls)
     h_psi        :     41.15s CPU     62.91s WALL (    1864 calls)
     g_psi        :      0.03s CPU      0.05s WALL (    1112 calls)

     Called by h_psi:
     h_psi:calbec :      0.16s CPU      0.22s WALL (    1864 calls)
     vloc_psi     :     10.15s CPU     15.41s WALL (    1864 calls)
     add_vuspsi   :      0.13s CPU      0.23s WALL (    1864 calls)
     h_psi_meta   :     30.65s CPU     46.96s WALL (    1864 calls)

     General routines
     calbec       :      0.15s CPU      0.21s WALL (    1864 calls)
     fft          :      0.11s CPU      0.17s WALL (     179 calls)
     ffts         :      0.16s CPU      0.18s WALL (     267 calls)
     fftw         :     41.90s CPU     62.88s WALL (   70912 calls)
     interpolate  :      0.00s CPU      0.00s WALL (      15 calls)
 
     Parallel routines
 
     PWSCF        :     52.21s CPU   1m18.17s WALL

 
   This run was terminated on:  11:32:24  29Mar2023            

=------------------------------------------------------------------------------=
   JOB DONE.
=------------------------------------------------------------------------------=
