
     Program PWSCF v.7.0 starts on 10Apr2023 at  9:43:45 

     This program is part of the open-source Quantum ESPRESSO suite
     for quantum simulation of materials; please cite
         "P. Giannozzi et al., J. Phys.:Condens. Matter 21 395502 (2009);
         "P. Giannozzi et al., J. Phys.:Condens. Matter 29 465901 (2017);
         "P. Giannozzi et al., J. Chem. Phys. 152 154105 (2020);
          URL http://www.quantum-espresso.org", 
     in publications or presentations arising from this work. More details at
     http://www.quantum-espresso.org/quote

     Parallel version (MPI), running on     1 processors

     MPI processes distributed on     1 nodes
     19219 MiB available memory on the printing compute node when the environment starts
 
     Waiting for input...
     Reading input from standard input
Warning: card &CELL ignored
Warning: card / ignored

     Current dimensions of program PWSCF are:
     Max number of different atomic species (ntypx) = 10
     Max number of k-points (npk) =  40000
     Max angular momentum in pseudopotentials (lmaxx) =  4

     WARNING: the MGGA functional with ID    5 has been 
     read together with other dft terms, but it should 
     stand alone in order to work properly. The other 
     terms will be ignored.

     WARNING: the MGGA functional with ID    5 has been 
     read together with other dft terms, but it should 
     stand alone in order to work properly. The other 
     terms will be ignored.

     Subspace diagonalization in iterative solution of the eigenvalue problem:
     a serial algorithm will be used

 
     G-vector sticks info
     --------------------
     sticks:   dense  smooth     PW     G-vecs:    dense   smooth      PW
     Sum         379     379    121                 4957     4957     941
 
     Using Slab Decomposition
 


     bravais-lattice index     =            2
     lattice parameter (alat)  =       7.4682  a.u.
     unit-cell volume          =     104.1328 (a.u.)^3
     number of atoms/cell      =            2
     number of atomic types    =            2
     number of electrons       =         8.00
     number of Kohn-Sham states=            4
     kinetic-energy cutoff     =      50.0000  Ry
     charge density cutoff     =     200.0000  Ry
     scf convergence threshold =      1.0E-06
     mixing beta               =       0.0100
     number of iterations used =            8  local-TF  mixing
     Exchange-correlation= SLA  PW   SCAN SCAN
                           (   0   0   0   0   0 263 267)

     celldm(1)=   7.468198  celldm(2)=   0.000000  celldm(3)=   0.000000
     celldm(4)=   0.000000  celldm(5)=   0.000000  celldm(6)=   0.000000

     crystal axes: (cart. coord. in units of alat)
               a(1) = (  -0.500000   0.000000   0.500000 )  
               a(2) = (   0.000000   0.500000   0.500000 )  
               a(3) = (  -0.500000   0.500000   0.000000 )  

     reciprocal axes: (cart. coord. in units 2 pi/alat)
               b(1) = ( -1.000000 -1.000000  1.000000 )  
               b(2) = (  1.000000  1.000000  1.000000 )  
               b(3) = ( -1.000000  1.000000 -1.000000 )  


     PseudoPot. # 1 for Li read from file:
     ~/Documents/TA/PWDFT.jl/pseudopotentials/scan_upf/Li.SCAN.UPF2
     MD5 check sum: Not computed, couldn't open file
     Pseudo is Norm-conserving, Zval =  1.0
     Generated by new atomic code, or converted to UPF format
     Using radial grid of 1321 points,  1 beta functions with: 
                l(1) =   0

     PseudoPot. # 2 for F  read from file:
     ~/Documents/TA/PWDFT.jl/pseudopotentials/scan_upf/F.SCAN.UPF2
     MD5 check sum: Not computed, couldn't open file
     Pseudo is Norm-conserving, Zval =  7.0
     Generated by new atomic code, or converted to UPF format
     Using radial grid of 1431 points,  1 beta functions with: 
                l(1) =   0

     atomic species   valence    mass     pseudopotential
        Li             1.00     6.94100     Li( 1.00)
        F              7.00    18.99800     F ( 1.00)

     48 Sym. Ops., with inversion, found



   Cartesian axes

     site n.     atom                  positions (alat units)
         1           Li  tau(   1) = (   0.0000000   0.0000000   0.0000000  )
         2           F   tau(   2) = (   0.5000000   0.5000000   0.5000000  )

     number of k points=    47
                       cart. coord. in units 2pi/alat
        k(    1) = (   0.0000000   0.0000000   0.0000000), wk =   0.0020000
        k(    2) = (  -0.1000000   0.1000000  -0.1000000), wk =   0.0160000
        k(    3) = (  -0.2000000   0.2000000  -0.2000000), wk =   0.0160000
        k(    4) = (  -0.3000000   0.3000000  -0.3000000), wk =   0.0160000
        k(    5) = (  -0.4000000   0.4000000  -0.4000000), wk =   0.0160000
        k(    6) = (   0.5000000  -0.5000000   0.5000000), wk =   0.0080000
        k(    7) = (   0.0000000   0.2000000   0.0000000), wk =   0.0120000
        k(    8) = (  -0.1000000   0.3000000  -0.1000000), wk =   0.0480000
        k(    9) = (  -0.2000000   0.4000000  -0.2000000), wk =   0.0480000
        k(   10) = (  -0.3000000   0.5000000  -0.3000000), wk =   0.0480000
        k(   11) = (   0.6000000  -0.4000000   0.6000000), wk =   0.0480000
        k(   12) = (   0.5000000  -0.3000000   0.5000000), wk =   0.0480000
        k(   13) = (   0.4000000  -0.2000000   0.4000000), wk =   0.0480000
        k(   14) = (   0.3000000  -0.1000000   0.3000000), wk =   0.0480000
        k(   15) = (   0.2000000   0.0000000   0.2000000), wk =   0.0240000
        k(   16) = (   0.0000000   0.4000000   0.0000000), wk =   0.0120000
        k(   17) = (  -0.1000000   0.5000000  -0.1000000), wk =   0.0480000
        k(   18) = (  -0.2000000   0.6000000  -0.2000000), wk =   0.0480000
        k(   19) = (   0.7000000  -0.3000000   0.7000000), wk =   0.0480000
        k(   20) = (   0.6000000  -0.2000000   0.6000000), wk =   0.0480000
        k(   21) = (   0.5000000  -0.1000000   0.5000000), wk =   0.0480000
        k(   22) = (   0.4000000   0.0000000   0.4000000), wk =   0.0240000
        k(   23) = (   0.0000000   0.6000000   0.0000000), wk =   0.0120000
        k(   24) = (  -0.1000000   0.7000000  -0.1000000), wk =   0.0480000
        k(   25) = (   0.8000000  -0.2000000   0.8000000), wk =   0.0480000
        k(   26) = (   0.7000000  -0.1000000   0.7000000), wk =   0.0480000
        k(   27) = (   0.6000000  -0.0000000   0.6000000), wk =   0.0240000
        k(   28) = (   0.0000000   0.8000000   0.0000000), wk =   0.0120000
        k(   29) = (   0.9000000  -0.1000000   0.9000000), wk =   0.0480000
        k(   30) = (   0.8000000   0.0000000   0.8000000), wk =   0.0240000
        k(   31) = (   0.0000000  -1.0000000   0.0000000), wk =   0.0060000
        k(   32) = (  -0.2000000   0.4000000   0.0000000), wk =   0.0480000
        k(   33) = (  -0.3000000   0.5000000  -0.1000000), wk =   0.0960000
        k(   34) = (   0.6000000  -0.4000000   0.8000000), wk =   0.0960000
        k(   35) = (   0.5000000  -0.3000000   0.7000000), wk =   0.0480000
        k(   36) = (  -0.2000000   0.6000000   0.0000000), wk =   0.0480000
        k(   37) = (   0.7000000  -0.3000000   0.9000000), wk =   0.0960000
        k(   38) = (   0.6000000  -0.2000000   0.8000000), wk =   0.0960000
        k(   39) = (   0.5000000  -0.1000000   0.7000000), wk =   0.0960000
        k(   40) = (   0.4000000   0.0000000   0.6000000), wk =   0.0480000
        k(   41) = (   0.8000000  -0.2000000   1.0000000), wk =   0.0480000
        k(   42) = (   0.7000000  -0.1000000   0.9000000), wk =   0.0960000
        k(   43) = (   0.6000000   0.0000000   0.8000000), wk =   0.0480000
        k(   44) = (  -0.2000000  -1.0000000   0.0000000), wk =   0.0240000
        k(   45) = (   0.6000000  -0.2000000   1.0000000), wk =   0.0480000
        k(   46) = (   0.5000000  -0.1000000   0.9000000), wk =   0.0480000
        k(   47) = (  -0.4000000  -1.0000000   0.0000000), wk =   0.0240000

     Dense  grid:     4957 G-vectors     FFT dimensions: (  24,  24,  24)

     Estimated max dynamical RAM per process >       9.21 MB

     WARNING: libxc functional with ID  263 depends
      on external parameters: check the user_guide of
      QE if you need to modify them or to check their
      default values.

     Initial potential from superposition of free atoms

     starting charge       7.9953, renormalised to       8.0000
     Starting wfcs are    8 randomized atomic wfcs

     total cpu time spent up to now is        1.1 secs

     Self-consistent Calculation

     iteration #  1     ecut=    50.00 Ry     beta= 0.01
     Davidson diagonalization with overlap
     ethr =  1.00E-02,  avg # of iterations =  2.0

     total cpu time spent up to now is        2.8 secs

     total energy              =     -48.49831750 Ry
     estimated scf accuracy    <      17.60139002 Ry

     iteration #  2     ecut=    50.00 Ry     beta= 0.01
     Davidson diagonalization with overlap
     ethr =  1.00E-02,  avg # of iterations =  1.0

     total cpu time spent up to now is        4.2 secs

     total energy              =     -48.58986038 Ry
     estimated scf accuracy    <      17.14082313 Ry

     iteration #  3     ecut=    50.00 Ry     beta= 0.01
     Davidson diagonalization with overlap
     ethr =  1.00E-02,  avg # of iterations =  1.0

     total cpu time spent up to now is        5.7 secs

     total energy              =     -48.58518559 Ry
     estimated scf accuracy    <       2.55639209 Ry

     iteration #  4     ecut=    50.00 Ry     beta= 0.01
     Davidson diagonalization with overlap
     ethr =  1.00E-02,  avg # of iterations =  1.0

     total cpu time spent up to now is        7.0 secs

     total energy              =     -48.58543224 Ry
     estimated scf accuracy    <       0.00824660 Ry

     iteration #  5     ecut=    50.00 Ry     beta= 0.01
     Davidson diagonalization with overlap
     ethr =  1.03E-04,  avg # of iterations =  1.0

     total cpu time spent up to now is        8.4 secs

     total energy              =     -48.58521524 Ry
     estimated scf accuracy    <       0.00730467 Ry

     iteration #  6     ecut=    50.00 Ry     beta= 0.01
     Davidson diagonalization with overlap
     ethr =  9.13E-05,  avg # of iterations =  1.0

     total cpu time spent up to now is        9.8 secs

     total energy              =     -48.58458820 Ry
     estimated scf accuracy    <       0.00351514 Ry

     iteration #  7     ecut=    50.00 Ry     beta= 0.01
     Davidson diagonalization with overlap
     ethr =  4.39E-05,  avg # of iterations =  2.0

     total cpu time spent up to now is       11.5 secs

     total energy              =     -48.58608014 Ry
     estimated scf accuracy    <       0.03620588 Ry

     iteration #  8     ecut=    50.00 Ry     beta= 0.01
     Davidson diagonalization with overlap
     ethr =  4.39E-05,  avg # of iterations =  1.0

     total cpu time spent up to now is       13.0 secs

     total energy              =     -48.58533833 Ry
     estimated scf accuracy    <       0.03747239 Ry

     iteration #  9     ecut=    50.00 Ry     beta= 0.01
     Davidson diagonalization with overlap
     ethr =  4.39E-05,  avg # of iterations =  1.0

     total cpu time spent up to now is       14.3 secs

     total energy              =     -48.58554456 Ry
     estimated scf accuracy    <       0.00207079 Ry

     iteration # 10     ecut=    50.00 Ry     beta= 0.01
     Davidson diagonalization with overlap
     ethr =  2.59E-05,  avg # of iterations =  1.0

     total cpu time spent up to now is       15.6 secs

     total energy              =     -48.58555595 Ry
     estimated scf accuracy    <       0.00085220 Ry

     iteration # 11     ecut=    50.00 Ry     beta= 0.01
     Davidson diagonalization with overlap
     ethr =  1.07E-05,  avg # of iterations =  1.0

     total cpu time spent up to now is       16.9 secs

     total energy              =     -48.58555697 Ry
     estimated scf accuracy    <       0.00076189 Ry

     iteration # 12     ecut=    50.00 Ry     beta= 0.01
     Davidson diagonalization with overlap
     ethr =  9.52E-06,  avg # of iterations =  1.0

     total cpu time spent up to now is       18.2 secs

     total energy              =     -48.58553720 Ry
     estimated scf accuracy    <       0.00050357 Ry

     iteration # 13     ecut=    50.00 Ry     beta= 0.01
     Davidson diagonalization with overlap
     ethr =  6.29E-06,  avg # of iterations =  1.0

     total cpu time spent up to now is       19.5 secs

     total energy              =     -48.58554688 Ry
     estimated scf accuracy    <       0.00001280 Ry

     iteration # 14     ecut=    50.00 Ry     beta= 0.01
     Davidson diagonalization with overlap
     ethr =  1.60E-07,  avg # of iterations =  1.0

     total cpu time spent up to now is       20.5 secs

     total energy              =     -48.58554711 Ry
     estimated scf accuracy    <       0.00001506 Ry

     iteration # 15     ecut=    50.00 Ry     beta= 0.01
     Davidson diagonalization with overlap
     ethr =  1.60E-07,  avg # of iterations =  1.0

     total cpu time spent up to now is       21.6 secs

     total energy              =     -48.58554703 Ry
     estimated scf accuracy    <       0.00001235 Ry

     iteration # 16     ecut=    50.00 Ry     beta= 0.01
     Davidson diagonalization with overlap
     ethr =  1.54E-07,  avg # of iterations =  1.0

     total cpu time spent up to now is       22.9 secs

     total energy              =     -48.58554696 Ry
     estimated scf accuracy    <       0.00000573 Ry

     iteration # 17     ecut=    50.00 Ry     beta= 0.01
     Davidson diagonalization with overlap
     ethr =  7.16E-08,  avg # of iterations =  1.0

     total cpu time spent up to now is       23.9 secs

     total energy              =     -48.58554706 Ry
     estimated scf accuracy    <       0.00000402 Ry

     iteration # 18     ecut=    50.00 Ry     beta= 0.01
     Davidson diagonalization with overlap
     ethr =  5.03E-08,  avg # of iterations =  1.0

     total cpu time spent up to now is       25.0 secs

     total energy              =     -48.58554708 Ry
     estimated scf accuracy    <       0.00000135 Ry

     iteration # 19     ecut=    50.00 Ry     beta= 0.01
     Davidson diagonalization with overlap
     ethr =  1.69E-08,  avg # of iterations =  1.0

     total cpu time spent up to now is       26.3 secs

     total energy              =     -48.58554706 Ry
     estimated scf accuracy    <       0.00000136 Ry

     iteration # 20     ecut=    50.00 Ry     beta= 0.01
     Davidson diagonalization with overlap
     ethr =  1.69E-08,  avg # of iterations =  1.0

     total cpu time spent up to now is       27.0 secs

     End of self-consistent calculation

          k = 0.0000 0.0000 0.0000 (   609 PWs)   bands (ev):

   -21.8143   0.4688   0.4688   0.4688

          k =-0.1000 0.1000-0.1000 (   618 PWs)   bands (ev):

   -21.7637   0.1119   0.3984   0.3984

          k =-0.2000 0.2000-0.2000 (   622 PWs)   bands (ev):

   -21.6271  -0.6928   0.3227   0.3227

          k =-0.3000 0.3000-0.3000 (   613 PWs)   bands (ev):

   -21.4510  -1.5516   0.3005   0.3005

          k =-0.4000 0.4000-0.4000 (   610 PWs)   bands (ev):

   -21.3029  -2.1667   0.2477   0.2477

          k = 0.5000-0.5000 0.5000 (   610 PWs)   bands (ev):

   -21.2452  -2.4051   0.2320   0.2320

          k = 0.0000 0.2000 0.0000 (   613 PWs)   bands (ev):

   -21.7455   0.1582   0.3424   0.3424

          k =-0.1000 0.3000-0.1000 (   611 PWs)   bands (ev):

   -21.6352  -0.4238   0.2409   0.2908

          k =-0.2000 0.4000-0.2000 (   613 PWs)   bands (ev):

   -21.4700  -1.2962   0.1656   0.1806

          k =-0.3000 0.5000-0.3000 (   616 PWs)   bands (ev):

   -21.3100  -2.0081   0.0352   0.1036

          k = 0.6000-0.4000 0.6000 (   620 PWs)   bands (ev):

   -21.2208  -2.3761  -0.0894   0.0985

          k = 0.5000-0.3000 0.5000 (   621 PWs)   bands (ev):

   -21.2409  -2.2991  -0.1600   0.1829

          k = 0.4000-0.2000 0.4000 (   614 PWs)   bands (ev):

   -21.3610  -1.7614  -0.1298   0.3330

          k = 0.3000-0.1000 0.3000 (   620 PWs)   bands (ev):

   -21.5314  -1.0223  -0.0173   0.3748

          k = 0.2000 0.0000 0.2000 (   612 PWs)   bands (ev):

   -21.6828  -0.2113   0.2066   0.4354

          k = 0.0000 0.4000 0.0000 (   613 PWs)   bands (ev):

   -21.5546  -0.6131   0.0401   0.0401

          k =-0.1000 0.5000-0.1000 (   616 PWs)   bands (ev):

   -21.4117  -1.2827  -0.1348  -0.1080

          k =-0.2000 0.6000-0.2000 (   617 PWs)   bands (ev):

   -21.2575  -1.9059  -0.3903  -0.1557

          k = 0.7000-0.3000 0.7000 (   620 PWs)   bands (ev):

   -21.1534  -2.2348  -0.6936  -0.1216

          k = 0.6000-0.2000 0.6000 (   624 PWs)   bands (ev):

   -21.1438  -2.2132  -0.9131   0.0014

          k = 0.5000-0.1000 0.5000 (   620 PWs)   bands (ev):

   -21.2321  -1.8439  -0.9046   0.1934

          k = 0.4000 0.0000 0.4000 (   626 PWs)   bands (ev):

   -21.3819  -1.3878  -0.6306   0.2925

          k = 0.0000 0.6000 0.0000 (   620 PWs)   bands (ev):

   -21.2961  -1.7070  -0.3391  -0.3391

          k =-0.1000 0.7000-0.1000 (   626 PWs)   bands (ev):

   -21.1647  -2.2161  -0.6024  -0.4496

          k = 0.8000-0.2000 0.8000 (   623 PWs)   bands (ev):

   -21.0684  -2.4158  -0.9663  -0.3959

          k = 0.7000-0.1000 0.7000 (   630 PWs)   bands (ev):

   -21.0486  -2.2412  -1.4263  -0.2883

          k = 0.6000-0.0000 0.6000 (   618 PWs)   bands (ev):

   -21.1112  -1.7264  -1.6385   0.0045

          k = 0.0000 0.8000 0.0000 (   620 PWs)   bands (ev):

   -21.0644  -2.5862  -0.6209  -0.6209

          k = 0.9000-0.1000 0.9000 (   623 PWs)   bands (ev):

   -20.9977  -2.8014  -0.8073  -0.6390

          k = 0.8000 0.0000 0.8000 (   628 PWs)   bands (ev):

   -20.9919  -2.6177  -1.2115  -0.5151

          k = 0.0000-1.0000 0.0000 (   636 PWs)   bands (ev):

   -20.9716  -3.0352  -0.7659  -0.7659

          k =-0.2000 0.4000 0.0000 (   616 PWs)   bands (ev):

   -21.5091  -0.9407  -0.1356   0.2527

          k =-0.3000 0.5000-0.1000 (   618 PWs)   bands (ev):

   -21.3474  -1.5873  -0.4257   0.1614

          k = 0.6000-0.4000 0.8000 (   619 PWs)   bands (ev):

   -21.2118  -2.0893  -0.5929   0.0552

          k = 0.5000-0.3000 0.7000 (   622 PWs)   bands (ev):

   -21.1592  -2.3146  -0.6173  -0.0102

          k =-0.2000 0.6000 0.0000 (   616 PWs)   bands (ev):

   -21.2726  -1.7557  -0.5371  -0.1282

          k = 0.7000-0.3000 0.9000 (   628 PWs)   bands (ev):

   -21.1449  -2.1334  -0.9539  -0.2569

          k = 0.6000-0.2000 0.8000 (   623 PWs)   bands (ev):

   -21.0781  -2.1904  -1.2288  -0.2367

          k = 0.5000-0.1000 0.7000 (   625 PWs)   bands (ev):

   -21.1026  -2.0079  -1.3838  -0.1230

          k = 0.4000 0.0000 0.6000 (   623 PWs)   bands (ev):

   -21.2067  -1.7829  -1.0902   0.0348

          k = 0.8000-0.2000 1.0000 (   629 PWs)   bands (ev):

   -21.0630  -2.5231  -0.8715  -0.5316

          k = 0.7000-0.1000 0.9000 (   628 PWs)   bands (ev):

   -21.0084  -2.4910  -1.2567  -0.4983

          k = 0.6000 0.0000 0.8000 (   625 PWs)   bands (ev):

   -21.0237  -2.1133  -1.6345  -0.3386

          k =-0.2000-1.0000 0.0000 (   622 PWs)   bands (ev):

   -20.9766  -2.7836  -0.9742  -0.6113

          k = 0.6000-0.2000 1.0000 (   635 PWs)   bands (ev):

   -21.0517  -2.1891  -1.4865  -0.3726

          k = 0.5000-0.1000 0.9000 (   624 PWs)   bands (ev):

   -21.0143  -1.9777  -1.7820  -0.3999

          k =-0.4000-1.0000 0.0000 (   620 PWs)   bands (ev):

   -20.9868  -2.2515  -1.5719  -0.4809

     highest occupied level (ev):     0.4688

!    total energy              =     -48.58554706 Ry
     estimated scf accuracy    <       0.00000027 Ry

     The total energy is the sum of the following terms:
     one-electron contribution =     -21.90488433 Ry
     hartree contribution      =      15.95404871 Ry
     xc contribution           =      -9.89597365 Ry
     ewald contribution        =     -32.73873779 Ry

     convergence has been achieved in  20 iterations
     Writing meta-gga kinetic term

     Writing all to output data dir ./input_pw/LiF/8/pwscf.save/
     Writing meta-gga kinetic term
 
     init_run     :      0.58s CPU      1.07s WALL (       1 calls)
     electrons    :     13.27s CPU     25.92s WALL (       1 calls)

     Called by init_run:
     wfcinit      :      0.51s CPU      0.90s WALL (       1 calls)
     potinit      :      0.00s CPU      0.02s WALL (       1 calls)
     hinit0       :      0.06s CPU      0.15s WALL (       1 calls)

     Called by electrons:
     c_bands      :     10.36s CPU     20.25s WALL (      20 calls)
     sum_band     :      2.58s CPU      5.01s WALL (      20 calls)
     v_of_rho     :      0.17s CPU      0.38s WALL (      21 calls)
     mix_rho      :      0.16s CPU      0.27s WALL (      20 calls)

     Called by c_bands:
     init_us_2    :      0.06s CPU      0.09s WALL (    1927 calls)
     init_us_2:cp :      0.06s CPU      0.08s WALL (    1927 calls)
     cegterg      :     10.29s CPU     20.15s WALL (     940 calls)

     Called by *egterg:
     cdiaghg      :      0.08s CPU      0.15s WALL (    1974 calls)
     h_psi        :     10.55s CPU     20.52s WALL (    2021 calls)
     g_psi        :      0.01s CPU      0.04s WALL (    1034 calls)

     Called by h_psi:
     h_psi:calbec :      0.02s CPU      0.04s WALL (    2021 calls)
     vloc_psi     :      2.60s CPU      5.12s WALL (    2021 calls)
     add_vuspsi   :      0.03s CPU      0.06s WALL (    2021 calls)
     h_psi_meta   :      7.87s CPU     15.23s WALL (    2021 calls)

     General routines
     calbec       :      0.01s CPU      0.03s WALL (    2021 calls)
     fft          :      0.04s CPU      0.09s WALL (     249 calls)
     ffts         :      0.08s CPU      0.14s WALL (     555 calls)
     fftw         :     11.70s CPU     22.81s WALL (   80752 calls)
     interpolate  :      0.00s CPU      0.00s WALL (      21 calls)
 
     Parallel routines
 
     PWSCF        :     13.91s CPU     27.05s WALL

 
   This run was terminated on:   9:44:12  10Apr2023            

=------------------------------------------------------------------------------=
   JOB DONE.
=------------------------------------------------------------------------------=
