
     Program PWSCF v.7.0 starts on  7Jul2023 at 14:23:45 

     This program is part of the open-source Quantum ESPRESSO suite
     for quantum simulation of materials; please cite
         "P. Giannozzi et al., J. Phys.:Condens. Matter 21 395502 (2009);
         "P. Giannozzi et al., J. Phys.:Condens. Matter 29 465901 (2017);
         "P. Giannozzi et al., J. Chem. Phys. 152 154105 (2020);
          URL http://www.quantum-espresso.org", 
     in publications or presentations arising from this work. More details at
     http://www.quantum-espresso.org/quote

     Parallel version (MPI), running on     1 processors

     MPI processes distributed on     1 nodes
     27483 MiB available memory on the printing compute node when the environment starts
 
     Waiting for input...
     Reading input from standard input
Warning: card &CELL ignored
Warning: card / ignored

     Current dimensions of program PWSCF are:
     Max number of different atomic species (ntypx) = 10
     Max number of k-points (npk) =  40000
     Max angular momentum in pseudopotentials (lmaxx) =  4

     WARNING: the MGGA functional with ID    5 has been 
     read together with other dft terms, but it should 
     stand alone in order to work properly. The other 
     terms will be ignored.

     WARNING: the MGGA functional with ID    5 has been 
     read together with other dft terms, but it should 
     stand alone in order to work properly. The other 
     terms will be ignored.

     Subspace diagonalization in iterative solution of the eigenvalue problem:
     a serial algorithm will be used

 
     G-vector sticks info
     --------------------
     sticks:   dense  smooth     PW     G-vecs:    dense   smooth      PW
     Sum         463     463    151                 6615     6615    1243
 
     Using Slab Decomposition
 


     bravais-lattice index     =            2
     lattice parameter (alat)  =       8.2342  a.u.
     unit-cell volume          =     139.5722 (a.u.)^3
     number of atoms/cell      =            2
     number of atomic types    =            2
     number of electrons       =         8.00
     number of Kohn-Sham states=            4
     kinetic-energy cutoff     =      50.0000  Ry
     charge density cutoff     =     200.0000  Ry
     scf convergence threshold =      2.0E-05
     mixing beta               =       0.2000
     number of iterations used =            8  local-TF  mixing
     Exchange-correlation= SLA  PW   SCAN SCAN
                           (   0   0   0   0   0 263 267)

     celldm(1)=   8.234167  celldm(2)=   0.000000  celldm(3)=   0.000000
     celldm(4)=   0.000000  celldm(5)=   0.000000  celldm(6)=   0.000000

     crystal axes: (cart. coord. in units of alat)
               a(1) = (  -0.500000   0.000000   0.500000 )  
               a(2) = (   0.000000   0.500000   0.500000 )  
               a(3) = (  -0.500000   0.500000   0.000000 )  

     reciprocal axes: (cart. coord. in units 2 pi/alat)
               b(1) = ( -1.000000 -1.000000  1.000000 )  
               b(2) = (  1.000000  1.000000  1.000000 )  
               b(3) = ( -1.000000  1.000000 -1.000000 )  


     PseudoPot. # 1 for Li read from file:
     ~/Documents/TA/PWDFT.jl/pseudopotentials/scan_upf/Li.SCAN.UPF2
     MD5 check sum: Not computed, couldn't open file
     Pseudo is Norm-conserving, Zval =  1.0
     Generated by new atomic code, or converted to UPF format
     Using radial grid of 1321 points,  1 beta functions with: 
                l(1) =   0

     PseudoPot. # 2 for F  read from file:
     ~/Documents/TA/PWDFT.jl/pseudopotentials/scan_upf/F.SCAN.UPF2
     MD5 check sum: Not computed, couldn't open file
     Pseudo is Norm-conserving, Zval =  7.0
     Generated by new atomic code, or converted to UPF format
     Using radial grid of 1431 points,  1 beta functions with: 
                l(1) =   0

     atomic species   valence    mass     pseudopotential
        Li             1.00     6.94100     Li( 1.00)
        F              7.00    18.99800     F ( 1.00)

     48 Sym. Ops., with inversion, found



   Cartesian axes

     site n.     atom                  positions (alat units)
         1           Li  tau(   1) = (   0.0000000   0.0000000   0.0000000  )
         2           F   tau(   2) = (   0.5000000   0.5000000   0.5000000  )

     number of k points=    47
                       cart. coord. in units 2pi/alat
        k(    1) = (   0.0000000   0.0000000   0.0000000), wk =   0.0020000
        k(    2) = (  -0.1000000   0.1000000  -0.1000000), wk =   0.0160000
        k(    3) = (  -0.2000000   0.2000000  -0.2000000), wk =   0.0160000
        k(    4) = (  -0.3000000   0.3000000  -0.3000000), wk =   0.0160000
        k(    5) = (  -0.4000000   0.4000000  -0.4000000), wk =   0.0160000
        k(    6) = (   0.5000000  -0.5000000   0.5000000), wk =   0.0080000
        k(    7) = (   0.0000000   0.2000000   0.0000000), wk =   0.0120000
        k(    8) = (  -0.1000000   0.3000000  -0.1000000), wk =   0.0480000
        k(    9) = (  -0.2000000   0.4000000  -0.2000000), wk =   0.0480000
        k(   10) = (  -0.3000000   0.5000000  -0.3000000), wk =   0.0480000
        k(   11) = (   0.6000000  -0.4000000   0.6000000), wk =   0.0480000
        k(   12) = (   0.5000000  -0.3000000   0.5000000), wk =   0.0480000
        k(   13) = (   0.4000000  -0.2000000   0.4000000), wk =   0.0480000
        k(   14) = (   0.3000000  -0.1000000   0.3000000), wk =   0.0480000
        k(   15) = (   0.2000000   0.0000000   0.2000000), wk =   0.0240000
        k(   16) = (   0.0000000   0.4000000   0.0000000), wk =   0.0120000
        k(   17) = (  -0.1000000   0.5000000  -0.1000000), wk =   0.0480000
        k(   18) = (  -0.2000000   0.6000000  -0.2000000), wk =   0.0480000
        k(   19) = (   0.7000000  -0.3000000   0.7000000), wk =   0.0480000
        k(   20) = (   0.6000000  -0.2000000   0.6000000), wk =   0.0480000
        k(   21) = (   0.5000000  -0.1000000   0.5000000), wk =   0.0480000
        k(   22) = (   0.4000000   0.0000000   0.4000000), wk =   0.0240000
        k(   23) = (   0.0000000   0.6000000   0.0000000), wk =   0.0120000
        k(   24) = (  -0.1000000   0.7000000  -0.1000000), wk =   0.0480000
        k(   25) = (   0.8000000  -0.2000000   0.8000000), wk =   0.0480000
        k(   26) = (   0.7000000  -0.1000000   0.7000000), wk =   0.0480000
        k(   27) = (   0.6000000  -0.0000000   0.6000000), wk =   0.0240000
        k(   28) = (   0.0000000   0.8000000   0.0000000), wk =   0.0120000
        k(   29) = (   0.9000000  -0.1000000   0.9000000), wk =   0.0480000
        k(   30) = (   0.8000000   0.0000000   0.8000000), wk =   0.0240000
        k(   31) = (   0.0000000  -1.0000000   0.0000000), wk =   0.0060000
        k(   32) = (  -0.2000000   0.4000000   0.0000000), wk =   0.0480000
        k(   33) = (  -0.3000000   0.5000000  -0.1000000), wk =   0.0960000
        k(   34) = (   0.6000000  -0.4000000   0.8000000), wk =   0.0960000
        k(   35) = (   0.5000000  -0.3000000   0.7000000), wk =   0.0480000
        k(   36) = (  -0.2000000   0.6000000   0.0000000), wk =   0.0480000
        k(   37) = (   0.7000000  -0.3000000   0.9000000), wk =   0.0960000
        k(   38) = (   0.6000000  -0.2000000   0.8000000), wk =   0.0960000
        k(   39) = (   0.5000000  -0.1000000   0.7000000), wk =   0.0960000
        k(   40) = (   0.4000000   0.0000000   0.6000000), wk =   0.0480000
        k(   41) = (   0.8000000  -0.2000000   1.0000000), wk =   0.0480000
        k(   42) = (   0.7000000  -0.1000000   0.9000000), wk =   0.0960000
        k(   43) = (   0.6000000   0.0000000   0.8000000), wk =   0.0480000
        k(   44) = (  -0.2000000  -1.0000000   0.0000000), wk =   0.0240000
        k(   45) = (   0.6000000  -0.2000000   1.0000000), wk =   0.0480000
        k(   46) = (   0.5000000  -0.1000000   0.9000000), wk =   0.0480000
        k(   47) = (  -0.4000000  -1.0000000   0.0000000), wk =   0.0240000

     Dense  grid:     6615 G-vectors     FFT dimensions: (  27,  27,  27)

     Estimated max dynamical RAM per process >      12.44 MB

     WARNING: libxc functional with ID  263 depends
      on external parameters: check the user_guide of
      QE if you need to modify them or to check their
      default values.

     Initial potential from superposition of free atoms

     starting charge       7.9953, renormalised to       8.0000
     Starting wfcs are    8 randomized atomic wfcs

     total cpu time spent up to now is        1.8 secs

     Self-consistent Calculation

     iteration #  1     ecut=    50.00 Ry     beta= 0.20
     Davidson diagonalization with overlap
     ethr =  1.00E-02,  avg # of iterations =  2.0

     total cpu time spent up to now is        4.3 secs

     total energy              =     -48.60129165 Ry
     estimated scf accuracy    <      17.63405390 Ry

     iteration #  2     ecut=    50.00 Ry     beta= 0.20
     Davidson diagonalization with overlap
     ethr =  1.00E-02,  avg # of iterations =  1.0

     total cpu time spent up to now is        6.2 secs

     total energy              =     -48.60811742 Ry
     estimated scf accuracy    <      11.31747171 Ry

     iteration #  3     ecut=    50.00 Ry     beta= 0.20
     Davidson diagonalization with overlap
     ethr =  1.00E-02,  avg # of iterations =  1.0

     total cpu time spent up to now is        8.2 secs

     total energy              =     -48.61135622 Ry
     estimated scf accuracy    <       0.01128537 Ry

     iteration #  4     ecut=    50.00 Ry     beta= 0.20
     Davidson diagonalization with overlap
     ethr =  1.41E-04,  avg # of iterations =  1.0

     total cpu time spent up to now is       10.1 secs

     total energy              =     -48.61148162 Ry
     estimated scf accuracy    <       0.01461255 Ry

     iteration #  5     ecut=    50.00 Ry     beta= 0.20
     Davidson diagonalization with overlap
     ethr =  1.41E-04,  avg # of iterations =  1.0

     total cpu time spent up to now is       12.0 secs

     total energy              =     -48.61255499 Ry
     estimated scf accuracy    <       0.01919536 Ry

     iteration #  6     ecut=    50.00 Ry     beta= 0.20
     Davidson diagonalization with overlap
     ethr =  1.41E-04,  avg # of iterations =  1.0

     total cpu time spent up to now is       13.3 secs

     total energy              =     -48.61272535 Ry
     estimated scf accuracy    <       0.00123352 Ry

     iteration #  7     ecut=    50.00 Ry     beta= 0.20
     Davidson diagonalization with overlap
     ethr =  1.54E-05,  avg # of iterations =  1.0

     total cpu time spent up to now is       14.6 secs

     total energy              =     -48.61277093 Ry
     estimated scf accuracy    <       0.00056315 Ry

     iteration #  8     ecut=    50.00 Ry     beta= 0.20
     Davidson diagonalization with overlap
     ethr =  7.04E-06,  avg # of iterations =  1.0

     total cpu time spent up to now is       15.6 secs

     total energy              =     -48.61277937 Ry
     estimated scf accuracy    <       0.00041200 Ry

     iteration #  9     ecut=    50.00 Ry     beta= 0.20
     Davidson diagonalization with overlap
     ethr =  5.15E-06,  avg # of iterations =  1.0

     total cpu time spent up to now is       16.6 secs

     total energy              =     -48.61277122 Ry
     estimated scf accuracy    <       0.00028397 Ry

     iteration # 10     ecut=    50.00 Ry     beta= 0.20
     Davidson diagonalization with overlap
     ethr =  3.55E-06,  avg # of iterations =  1.0

     total cpu time spent up to now is       17.6 secs

     total energy              =     -48.61277215 Ry
     estimated scf accuracy    <       0.00006646 Ry

     iteration # 11     ecut=    50.00 Ry     beta= 0.20
     Davidson diagonalization with overlap
     ethr =  8.31E-07,  avg # of iterations =  1.0

     total cpu time spent up to now is       18.6 secs

     total energy              =     -48.61276954 Ry
     estimated scf accuracy    <       0.00004570 Ry

     iteration # 12     ecut=    50.00 Ry     beta= 0.20
     Davidson diagonalization with overlap
     ethr =  5.71E-07,  avg # of iterations =  1.0

     total cpu time spent up to now is       19.1 secs

     End of self-consistent calculation

          k = 0.0000 0.0000 0.0000 (   869 PWs)   bands (ev):

   -22.9662  -1.6811  -1.6811  -1.6811

          k =-0.1000 0.1000-0.1000 (   854 PWs)   bands (ev):

   -22.9388  -1.7996  -1.6651  -1.6651

          k =-0.2000 0.2000-0.2000 (   833 PWs)   bands (ev):

   -22.8674  -2.2823  -1.6299  -1.6299

          k =-0.3000 0.3000-0.3000 (   839 PWs)   bands (ev):

   -22.7795  -2.8902  -1.7094  -1.7094

          k =-0.4000 0.4000-0.4000 (   826 PWs)   bands (ev):

   -22.7056  -3.2666  -1.7133  -1.7133

          k = 0.5000-0.5000 0.5000 (   832 PWs)   bands (ev):

   -22.6778  -3.4474  -1.7460  -1.7460

          k = 0.0000 0.2000 0.0000 (   865 PWs)   bands (ev):

   -22.9304  -1.8166  -1.7633  -1.7633

          k =-0.1000 0.3000-0.1000 (   850 PWs)   bands (ev):

   -22.8735  -2.1952  -1.7880  -1.7278

          k =-0.2000 0.4000-0.2000 (   846 PWs)   bands (ev):

   -22.7901  -2.7425  -1.8233  -1.7961

          k =-0.3000 0.5000-0.3000 (   835 PWs)   bands (ev):

   -22.7105  -3.1684  -1.8448  -1.8250

          k = 0.6000-0.4000 0.6000 (   832 PWs)   bands (ev):

   -22.6666  -3.3850  -1.9179  -1.8082

          k = 0.5000-0.3000 0.5000 (   833 PWs)   bands (ev):

   -22.6763  -3.3557  -1.9416  -1.7479

          k = 0.4000-0.2000 0.4000 (   831 PWs)   bands (ev):

   -22.7351  -3.0403  -1.9103  -1.6523

          k = 0.3000-0.1000 0.3000 (   840 PWs)   bands (ev):

   -22.8199  -2.5534  -1.8676  -1.6230

          k = 0.2000 0.0000 0.2000 (   839 PWs)   bands (ev):

   -22.8967  -2.0147  -1.7579  -1.5941

          k = 0.0000 0.4000 0.0000 (   849 PWs)   bands (ev):

   -22.8337  -2.3276  -1.8878  -1.8878

          k =-0.1000 0.5000-0.1000 (   838 PWs)   bands (ev):

   -22.7626  -2.7256  -1.9426  -1.9367

          k =-0.2000 0.6000-0.2000 (   835 PWs)   bands (ev):

   -22.6874  -3.0835  -2.1192  -1.9606

          k = 0.7000-0.3000 0.7000 (   830 PWs)   bands (ev):

   -22.6370  -3.2874  -2.2698  -1.9222

          k = 0.6000-0.2000 0.6000 (   838 PWs)   bands (ev):

   -22.6323  -3.2955  -2.4095  -1.8766

          k = 0.5000-0.1000 0.5000 (   835 PWs)   bands (ev):

   -22.6739  -3.0563  -2.3993  -1.7657

          k = 0.4000 0.0000 0.4000 (   831 PWs)   bands (ev):

   -22.7456  -2.7781  -2.1777  -1.6380

          k = 0.0000 0.6000 0.0000 (   833 PWs)   bands (ev):

   -22.7075  -2.9814  -2.0401  -2.0401

          k =-0.1000 0.7000-0.1000 (   833 PWs)   bands (ev):

   -22.6454  -3.2449  -2.2152  -2.1056

          k = 0.8000-0.2000 0.8000 (   832 PWs)   bands (ev):

   -22.6000  -3.3595  -2.4549  -2.0849

          k = 0.7000-0.1000 0.7000 (   831 PWs)   bands (ev):

   -22.5895  -3.2395  -2.7258  -1.9896

          k = 0.6000-0.0000 0.6000 (   830 PWs)   bands (ev):

   -22.6177  -2.9953  -2.8198  -1.8651

          k = 0.0000 0.8000 0.0000 (   822 PWs)   bands (ev):

   -22.5997  -3.4719  -2.1826  -2.1826

          k = 0.9000-0.1000 0.9000 (   818 PWs)   bands (ev):

   -22.5688  -3.5409  -2.3122  -2.1954

          k = 0.8000 0.0000 0.8000 (   818 PWs)   bands (ev):

   -22.5647  -3.4012  -2.5639  -2.1071

          k = 0.0000-1.0000 0.0000 (   806 PWs)   bands (ev):

   -22.5562  -3.6525  -2.1836  -2.1836

          k =-0.2000 0.4000 0.0000 (   841 PWs)   bands (ev):

   -22.8098  -2.5085  -1.9463  -1.7373

          k =-0.3000 0.5000-0.1000 (   836 PWs)   bands (ev):

   -22.7298  -2.9112  -2.1079  -1.7720

          k = 0.6000-0.4000 0.8000 (   829 PWs)   bands (ev):

   -22.6639  -3.2060  -2.1891  -1.8255

          k = 0.5000-0.3000 0.7000 (   828 PWs)   bands (ev):

   -22.6385  -3.3248  -2.2236  -1.8494

          k =-0.2000 0.6000 0.0000 (   838 PWs)   bands (ev):

   -22.6958  -3.0133  -2.1948  -1.9643

          k = 0.7000-0.3000 0.9000 (   836 PWs)   bands (ev):

   -22.6346  -3.2071  -2.4049  -2.0257

          k = 0.6000-0.2000 0.8000 (   836 PWs)   bands (ev):

   -22.6032  -3.2413  -2.6080  -2.0299

          k = 0.5000-0.1000 0.7000 (   831 PWs)   bands (ev):

   -22.6137  -3.1258  -2.6681  -1.9396

          k = 0.4000 0.0000 0.6000 (   836 PWs)   bands (ev):

   -22.6627  -3.0235  -2.5085  -1.8392

          k = 0.8000-0.2000 1.0000 (   830 PWs)   bands (ev):

   -22.5981  -3.3961  -2.3409  -2.1832

          k = 0.7000-0.1000 0.9000 (   833 PWs)   bands (ev):

   -22.5727  -3.3717  -2.6135  -2.1677

          k = 0.6000 0.0000 0.8000 (   830 PWs)   bands (ev):

   -22.5785  -3.1174  -2.8799  -2.0626

          k =-0.2000-1.0000 0.0000 (   830 PWs)   bands (ev):

   -22.5597  -3.5698  -2.4130  -2.2517

          k = 0.6000-0.2000 1.0000 (   828 PWs)   bands (ev):

   -22.5909  -3.1582  -2.7007  -2.0868

          k = 0.5000-0.1000 0.9000 (   838 PWs)   bands (ev):

   -22.5749  -3.1053  -2.9214  -2.1523

          k =-0.4000-1.0000 0.0000 (   828 PWs)   bands (ev):

   -22.5626  -3.2342  -2.7842  -2.1740

     highest occupied level (ev):    -1.5941

!    total energy              =     -48.61277127 Ry
     estimated scf accuracy    <       0.00000130 Ry

     The total energy is the sum of the following terms:
     one-electron contribution =     -27.21440899 Ry
     hartree contribution      =      18.08216953 Ry
     xc contribution           =      -9.78725798 Ry
     ewald contribution        =     -29.69327382 Ry

     convergence has been achieved in  12 iterations
     Writing meta-gga kinetic term

     Writing all to output data dir ./input_pw/LiF/8/pwscf.save/
     Writing meta-gga kinetic term
 
     init_run     :      0.84s CPU      1.77s WALL (       1 calls)
     electrons    :     11.43s CPU     17.28s WALL (       1 calls)

     Called by init_run:
     wfcinit      :      0.75s CPU      1.54s WALL (       1 calls)
     potinit      :      0.01s CPU      0.03s WALL (       1 calls)
     hinit0       :      0.06s CPU      0.18s WALL (       1 calls)

     Called by electrons:
     c_bands      :      8.86s CPU     13.56s WALL (      12 calls)
     sum_band     :      2.28s CPU      3.33s WALL (      12 calls)
     v_of_rho     :      0.15s CPU      0.19s WALL (      13 calls)
     mix_rho      :      0.15s CPU      0.21s WALL (      12 calls)

     Called by c_bands:
     init_us_2    :      0.05s CPU      0.08s WALL (    1175 calls)
     init_us_2:cp :      0.04s CPU      0.08s WALL (    1175 calls)
     cegterg      :      8.81s CPU     13.52s WALL (     564 calls)

     Called by *egterg:
     cdiaghg      :      0.05s CPU      0.13s WALL (    1175 calls)
     h_psi        :      9.38s CPU     14.50s WALL (    1222 calls)
     g_psi        :      0.01s CPU      0.02s WALL (     611 calls)

     Called by h_psi:
     h_psi:calbec :      0.02s CPU      0.03s WALL (    1222 calls)
     vloc_psi     :      2.32s CPU      4.00s WALL (    1222 calls)
     add_vuspsi   :      0.02s CPU      0.02s WALL (    1222 calls)
     h_psi_meta   :      7.00s CPU     10.40s WALL (    1222 calls)

     General routines
     calbec       :      0.01s CPU      0.03s WALL (    1222 calls)
     fft          :      0.03s CPU      0.05s WALL (     153 calls)
     ffts         :      0.08s CPU      0.13s WALL (     355 calls)
     fftw         :     10.46s CPU     15.99s WALL (   49152 calls)
     interpolate  :      0.00s CPU      0.00s WALL (      13 calls)
 
     Parallel routines
 
     PWSCF        :     12.32s CPU     19.14s WALL

 
   This run was terminated on:  14:24: 4   7Jul2023            

=------------------------------------------------------------------------------=
   JOB DONE.
=------------------------------------------------------------------------------=
