
     Program PWSCF v.7.0 starts on 29Mar2023 at 11:45:50 

     This program is part of the open-source Quantum ESPRESSO suite
     for quantum simulation of materials; please cite
         "P. Giannozzi et al., J. Phys.:Condens. Matter 21 395502 (2009);
         "P. Giannozzi et al., J. Phys.:Condens. Matter 29 465901 (2017);
         "P. Giannozzi et al., J. Chem. Phys. 152 154105 (2020);
          URL http://www.quantum-espresso.org", 
     in publications or presentations arising from this work. More details at
     http://www.quantum-espresso.org/quote

     Parallel version (MPI), running on     1 processors

     MPI processes distributed on     1 nodes
     23685 MiB available memory on the printing compute node when the environment starts
 
     Waiting for input...
     Reading input from standard input
Warning: card &CELL ignored
Warning: card / ignored

     Current dimensions of program PWSCF are:
     Max number of different atomic species (ntypx) = 10
     Max number of k-points (npk) =  40000
     Max angular momentum in pseudopotentials (lmaxx) =  4
     file Ge.SCAN.UPF2: wavefunction(s)  0D renormalized

     WARNING: the MGGA functional with ID    5 has been 
     read together with other dft terms, but it should 
     stand alone in order to work properly. The other 
     terms will be ignored.

     Subspace diagonalization in iterative solution of the eigenvalue problem:
     a serial algorithm will be used

 
     G-vector sticks info
     --------------------
     sticks:   dense  smooth     PW     G-vecs:    dense   smooth      PW
     Sum         673     673    211                11311    11311    1989
 
     Using Slab Decomposition
 


     bravais-lattice index     =            2
     lattice parameter (alat)  =       9.8307  a.u.
     unit-cell volume          =     237.5154 (a.u.)^3
     number of atoms/cell      =            2
     number of atomic types    =            1
     number of electrons       =         8.00
     number of Kohn-Sham states=            4
     kinetic-energy cutoff     =      50.0000  Ry
     charge density cutoff     =     200.0000  Ry
     scf convergence threshold =      1.0E-06
     mixing beta               =       0.0100
     number of iterations used =            8  local-TF  mixing
     Exchange-correlation= SLA  PW  SCAN SCAN
                           (   0   0   0   0   0 263 267)

     celldm(1)=   9.830688  celldm(2)=   0.000000  celldm(3)=   0.000000
     celldm(4)=   0.000000  celldm(5)=   0.000000  celldm(6)=   0.000000

     crystal axes: (cart. coord. in units of alat)
               a(1) = (  -0.500000   0.000000   0.500000 )  
               a(2) = (   0.000000   0.500000   0.500000 )  
               a(3) = (  -0.500000   0.500000   0.000000 )  

     reciprocal axes: (cart. coord. in units 2 pi/alat)
               b(1) = ( -1.000000 -1.000000  1.000000 )  
               b(2) = (  1.000000  1.000000  1.000000 )  
               b(3) = ( -1.000000  1.000000 -1.000000 )  


     PseudoPot. # 1 for Ge read from file:
     ~/Documents/TA/PWDFT.jl/pseudopotentials/scan_upf/Ge.SCAN.UPF2
     MD5 check sum: Not computed, couldn't open file
     Pseudo is Norm-conserving, Zval =  4.0
     Generated by new atomic code, or converted to UPF format
     Using radial grid of 1557 points,  2 beta functions with: 
                l(1) =   0
                l(2) =   1

     atomic species   valence    mass     pseudopotential
        Ge             4.00    72.64000     Ge( 1.00)

     48 Sym. Ops., with inversion, found (24 have fractional translation)



   Cartesian axes

     site n.     atom                  positions (alat units)
         1           Ge  tau(   1) = (   0.0000000   0.0000000   0.0000000  )
         2           Ge  tau(   2) = (   0.2500000   0.2500000   0.2500000  )

     number of k points=    47
                       cart. coord. in units 2pi/alat
        k(    1) = (   0.0000000   0.0000000   0.0000000), wk =   0.0020000
        k(    2) = (  -0.1000000   0.1000000  -0.1000000), wk =   0.0160000
        k(    3) = (  -0.2000000   0.2000000  -0.2000000), wk =   0.0160000
        k(    4) = (  -0.3000000   0.3000000  -0.3000000), wk =   0.0160000
        k(    5) = (  -0.4000000   0.4000000  -0.4000000), wk =   0.0160000
        k(    6) = (   0.5000000  -0.5000000   0.5000000), wk =   0.0080000
        k(    7) = (   0.0000000   0.2000000   0.0000000), wk =   0.0120000
        k(    8) = (  -0.1000000   0.3000000  -0.1000000), wk =   0.0480000
        k(    9) = (  -0.2000000   0.4000000  -0.2000000), wk =   0.0480000
        k(   10) = (  -0.3000000   0.5000000  -0.3000000), wk =   0.0480000
        k(   11) = (   0.6000000  -0.4000000   0.6000000), wk =   0.0480000
        k(   12) = (   0.5000000  -0.3000000   0.5000000), wk =   0.0480000
        k(   13) = (   0.4000000  -0.2000000   0.4000000), wk =   0.0480000
        k(   14) = (   0.3000000  -0.1000000   0.3000000), wk =   0.0480000
        k(   15) = (   0.2000000   0.0000000   0.2000000), wk =   0.0240000
        k(   16) = (   0.0000000   0.4000000   0.0000000), wk =   0.0120000
        k(   17) = (  -0.1000000   0.5000000  -0.1000000), wk =   0.0480000
        k(   18) = (  -0.2000000   0.6000000  -0.2000000), wk =   0.0480000
        k(   19) = (   0.7000000  -0.3000000   0.7000000), wk =   0.0480000
        k(   20) = (   0.6000000  -0.2000000   0.6000000), wk =   0.0480000
        k(   21) = (   0.5000000  -0.1000000   0.5000000), wk =   0.0480000
        k(   22) = (   0.4000000   0.0000000   0.4000000), wk =   0.0240000
        k(   23) = (   0.0000000   0.6000000   0.0000000), wk =   0.0120000
        k(   24) = (  -0.1000000   0.7000000  -0.1000000), wk =   0.0480000
        k(   25) = (   0.8000000  -0.2000000   0.8000000), wk =   0.0480000
        k(   26) = (   0.7000000  -0.1000000   0.7000000), wk =   0.0480000
        k(   27) = (   0.6000000  -0.0000000   0.6000000), wk =   0.0240000
        k(   28) = (   0.0000000   0.8000000   0.0000000), wk =   0.0120000
        k(   29) = (   0.9000000  -0.1000000   0.9000000), wk =   0.0480000
        k(   30) = (   0.8000000   0.0000000   0.8000000), wk =   0.0240000
        k(   31) = (   0.0000000  -1.0000000   0.0000000), wk =   0.0060000
        k(   32) = (  -0.2000000   0.4000000   0.0000000), wk =   0.0480000
        k(   33) = (  -0.3000000   0.5000000  -0.1000000), wk =   0.0960000
        k(   34) = (   0.6000000  -0.4000000   0.8000000), wk =   0.0960000
        k(   35) = (   0.5000000  -0.3000000   0.7000000), wk =   0.0480000
        k(   36) = (  -0.2000000   0.6000000   0.0000000), wk =   0.0480000
        k(   37) = (   0.7000000  -0.3000000   0.9000000), wk =   0.0960000
        k(   38) = (   0.6000000  -0.2000000   0.8000000), wk =   0.0960000
        k(   39) = (   0.5000000  -0.1000000   0.7000000), wk =   0.0960000
        k(   40) = (   0.4000000   0.0000000   0.6000000), wk =   0.0480000
        k(   41) = (   0.8000000  -0.2000000   1.0000000), wk =   0.0480000
        k(   42) = (   0.7000000  -0.1000000   0.9000000), wk =   0.0960000
        k(   43) = (   0.6000000   0.0000000   0.8000000), wk =   0.0480000
        k(   44) = (  -0.2000000  -1.0000000   0.0000000), wk =   0.0240000
        k(   45) = (   0.6000000  -0.2000000   1.0000000), wk =   0.0480000
        k(   46) = (   0.5000000  -0.1000000   0.9000000), wk =   0.0480000
        k(   47) = (  -0.4000000  -1.0000000   0.0000000), wk =   0.0240000

     Dense  grid:    11311 G-vectors     FFT dimensions: (  32,  32,  32)

     Estimated max dynamical RAM per process >      20.99 MB

     WARNING: libxc functional with ID  263 depends
      on external parameters: check the user_guide of
      QE if you need to modify them or to check their
      default values.

     Initial potential from superposition of free atoms

     starting charge       7.9987, renormalised to       8.0000
     Starting wfcs are   18 randomized atomic wfcs

     total cpu time spent up to now is        3.6 secs

     Self-consistent Calculation

     iteration #  1     ecut=    50.00 Ry     beta= 0.01
     Davidson diagonalization with overlap
     ethr =  1.00E-02,  avg # of iterations =  1.9

     Threshold (ethr) on eigenvalues was too large:
     Diagonalizing with lowered threshold

     Davidson diagonalization with overlap
     ethr =  5.48E-04,  avg # of iterations =  6.2

     total cpu time spent up to now is       11.2 secs

     total energy              =     -15.64344169 Ry
     estimated scf accuracy    <       0.05306926 Ry

     iteration #  2     ecut=    50.00 Ry     beta= 0.01
     Davidson diagonalization with overlap
     ethr =  6.63E-04,  avg # of iterations =  1.0

     total cpu time spent up to now is       13.4 secs

     total energy              =     -15.65764011 Ry
     estimated scf accuracy    <       0.05305695 Ry

     iteration #  3     ecut=    50.00 Ry     beta= 0.01
     Davidson diagonalization with overlap
     ethr =  6.63E-04,  avg # of iterations =  1.0

     total cpu time spent up to now is       15.7 secs

     total energy              =     -15.75095220 Ry
     estimated scf accuracy    <       0.05211619 Ry

     iteration #  4     ecut=    50.00 Ry     beta= 0.01
     Davidson diagonalization with overlap
     ethr =  6.51E-04,  avg # of iterations =  1.1

     total cpu time spent up to now is       17.9 secs

     total energy              =     -15.75377380 Ry
     estimated scf accuracy    <       0.00441023 Ry

     iteration #  5     ecut=    50.00 Ry     beta= 0.01
     Davidson diagonalization with overlap
     c_bands:  3 eigenvalues not converged
     ethr =  5.51E-05,  avg # of iterations =  6.9

     total cpu time spent up to now is       23.2 secs

     total energy              =     -15.75882571 Ry
     estimated scf accuracy    <       0.00561543 Ry

     iteration #  6     ecut=    50.00 Ry     beta= 0.01
     Davidson diagonalization with overlap
     ethr =  5.51E-05,  avg # of iterations =  1.4

     total cpu time spent up to now is       25.5 secs

     total energy              =     -15.75568054 Ry
     estimated scf accuracy    <       0.00651200 Ry

     iteration #  7     ecut=    50.00 Ry     beta= 0.01
     Davidson diagonalization with overlap
     ethr =  5.51E-05,  avg # of iterations =  3.0

     total cpu time spent up to now is       28.5 secs

     total energy              =     -15.75663570 Ry
     estimated scf accuracy    <       0.00063372 Ry

     iteration #  8     ecut=    50.00 Ry     beta= 0.01
     Davidson diagonalization with overlap
     ethr =  7.92E-06,  avg # of iterations =  8.5

     total cpu time spent up to now is       35.0 secs

     total energy              =     -15.75771101 Ry
     estimated scf accuracy    <       0.00049527 Ry

     iteration #  9     ecut=    50.00 Ry     beta= 0.01
     Davidson diagonalization with overlap
     ethr =  6.19E-06,  avg # of iterations =  1.7

     total cpu time spent up to now is       37.5 secs

     total energy              =     -15.75795382 Ry
     estimated scf accuracy    <       0.00043769 Ry

     iteration # 10     ecut=    50.00 Ry     beta= 0.01
     Davidson diagonalization with overlap
     ethr =  5.47E-06,  avg # of iterations =  1.0

     total cpu time spent up to now is       39.7 secs

     total energy              =     -15.75815212 Ry
     estimated scf accuracy    <       0.00018628 Ry

     iteration # 11     ecut=    50.00 Ry     beta= 0.01
     Davidson diagonalization with overlap
     ethr =  2.33E-06,  avg # of iterations =  3.1

     total cpu time spent up to now is       42.7 secs

     total energy              =     -15.75819529 Ry
     estimated scf accuracy    <       0.00004057 Ry

     iteration # 12     ecut=    50.00 Ry     beta= 0.01
     Davidson diagonalization with overlap
     ethr =  5.07E-07,  avg # of iterations =  5.9

     total cpu time spent up to now is       47.2 secs

     total energy              =     -15.75825076 Ry
     estimated scf accuracy    <       0.00004623 Ry

     iteration # 13     ecut=    50.00 Ry     beta= 0.01
     Davidson diagonalization with overlap
     ethr =  5.07E-07,  avg # of iterations =  1.3

     total cpu time spent up to now is       49.5 secs

     total energy              =     -15.75827700 Ry
     estimated scf accuracy    <       0.00003322 Ry

     iteration # 14     ecut=    50.00 Ry     beta= 0.01
     Davidson diagonalization with overlap
     ethr =  4.15E-07,  avg # of iterations =  1.9

     total cpu time spent up to now is       52.0 secs

     total energy              =     -15.75828514 Ry
     estimated scf accuracy    <       0.00001318 Ry

     iteration # 15     ecut=    50.00 Ry     beta= 0.01
     Davidson diagonalization with overlap
     ethr =  1.65E-07,  avg # of iterations =  3.8

     total cpu time spent up to now is       55.3 secs

     total energy              =     -15.75829087 Ry
     estimated scf accuracy    <       0.00001310 Ry

     iteration # 16     ecut=    50.00 Ry     beta= 0.01
     Davidson diagonalization with overlap
     ethr =  1.64E-07,  avg # of iterations =  1.1

     total cpu time spent up to now is       57.1 secs

     total energy              =     -15.75829178 Ry
     estimated scf accuracy    <       0.00001541 Ry

     iteration # 17     ecut=    50.00 Ry     beta= 0.01
     Davidson diagonalization with overlap
     ethr =  1.64E-07,  avg # of iterations =  2.9

     total cpu time spent up to now is       60.1 secs

     total energy              =     -15.75829695 Ry
     estimated scf accuracy    <       0.00000150 Ry

     iteration # 18     ecut=    50.00 Ry     beta= 0.01
     Davidson diagonalization with overlap
     ethr =  1.87E-08,  avg # of iterations = 10.2

     total cpu time spent up to now is       67.8 secs

     total energy              =     -15.75830033 Ry
     estimated scf accuracy    <       0.00000365 Ry

     iteration # 19     ecut=    50.00 Ry     beta= 0.01
     Davidson diagonalization with overlap
     ethr =  1.87E-08,  avg # of iterations =  3.3

     total cpu time spent up to now is       71.1 secs

     End of self-consistent calculation

          k = 0.0000 0.0000 0.0000 (  1411 PWs)   bands (ev):

    -6.6043   8.4502   8.4502   8.4502

          k =-0.1000 0.1000-0.1000 (  1423 PWs)   bands (ev):

    -6.4499   6.8228   8.1411   8.1411

          k =-0.2000 0.2000-0.2000 (  1414 PWs)   bands (ev):

    -5.9927   4.3673   7.5706   7.5706

          k =-0.3000 0.3000-0.3000 (  1423 PWs)   bands (ev):

    -5.2609   2.0886   7.0782   7.0782

          k =-0.4000 0.4000-0.4000 (  1422 PWs)   bands (ev):

    -4.3646   0.2385   6.7666   6.7666

          k = 0.5000-0.5000 0.5000 (  1404 PWs)   bands (ev):

    -3.8164  -0.6307   6.6613   6.6613

          k = 0.0000 0.2000 0.0000 (  1419 PWs)   bands (ev):

    -6.3980   7.1257   7.5860   7.5860

          k =-0.1000 0.3000-0.1000 (  1416 PWs)   bands (ev):

    -6.0404   5.0986   6.9620   7.2099

          k =-0.2000 0.4000-0.2000 (  1410 PWs)   bands (ev):

    -5.3948   2.8295   6.5055   6.6028

          k =-0.3000 0.5000-0.3000 (  1418 PWs)   bands (ev):

    -4.5285   0.8465   6.0381   6.2888

          k = 0.6000-0.4000 0.6000 (  1425 PWs)   bands (ev):

    -3.7531  -0.4470   5.6446   6.3255

          k = 0.5000-0.3000 0.5000 (  1423 PWs)   bands (ev):

    -3.9566  -0.1370   5.4738   6.6014

          k = 0.4000-0.2000 0.4000 (  1418 PWs)   bands (ev):

    -4.8351   1.4658   5.5580   7.0780

          k = 0.3000-0.1000 0.3000 (  1405 PWs)   bands (ev):

    -5.6415   3.5583   5.9304   7.6719

          k = 0.2000 0.0000 0.2000 (  1412 PWs)   bands (ev):

    -6.1939   5.6526   6.7574   8.1678

          k = 0.0000 0.4000 0.0000 (  1419 PWs)   bands (ev):

    -5.7822   4.9059   6.2987   6.2987

          k =-0.1000 0.5000-0.1000 (  1417 PWs)   bands (ev):

    -5.2287   3.2858   5.6224   5.8134

          k =-0.2000 0.6000-0.2000 (  1422 PWs)   bands (ev):

    -4.4211   1.4558   4.8075   5.5861

          k = 0.7000-0.3000 0.7000 (  1427 PWs)   bands (ev):

    -3.5384  -0.0276   4.1498   5.6385

          k = 0.6000-0.2000 0.6000 (  1430 PWs)   bands (ev):

    -3.3519  -0.2873   3.7643   5.9609

          k = 0.5000-0.1000 0.5000 (  1418 PWs)   bands (ev):

    -4.1436   0.9465   3.7333   6.5106

          k = 0.4000 0.0000 0.4000 (  1412 PWs)   bands (ev):

    -5.0042   2.5092   4.3101   7.1753

          k = 0.0000 0.6000 0.0000 (  1411 PWs)   bands (ev):

    -4.7665   2.6078   5.2753   5.2753

          k =-0.1000 0.7000-0.1000 (  1408 PWs)   bands (ev):

    -4.0323   1.3339   4.4658   4.9921

          k = 0.8000-0.2000 0.8000 (  1425 PWs)   bands (ev):

    -3.1264   0.0729   3.4213   4.9960

          k = 0.7000-0.1000 0.7000 (  1427 PWs)   bands (ev):

    -2.6146  -0.5203   2.7262   5.2849

          k = 0.6000-0.0000 0.6000 (  1428 PWs)   bands (ev):

    -3.2683   0.2110   2.6938   5.8238

          k = 0.0000 0.8000 0.0000 (  1411 PWs)   bands (ev):

    -3.3709   0.3915   4.6385   4.6385

          k = 0.9000-0.1000 0.9000 (  1408 PWs)   bands (ev):

    -2.4878  -0.6507   3.9031   4.5704

          k = 0.8000 0.0000 0.8000 (  1418 PWs)   bands (ev):

    -1.9047  -1.1710   2.9309   4.7943

          k = 0.0000-1.0000 0.0000 (  1428 PWs)   bands (ev):

    -1.6314  -1.6314   4.4234   4.4234

          k =-0.2000 0.4000 0.0000 (  1405 PWs)   bands (ev):

    -5.5857   3.9155   5.5081   7.0146

          k =-0.3000 0.5000-0.1000 (  1415 PWs)   bands (ev):

    -4.8569   2.1150   4.7409   6.4836

          k = 0.6000-0.4000 0.8000 (  1419 PWs)   bands (ev):

    -3.9592   0.4019   4.4461   5.9961

          k = 0.5000-0.3000 0.7000 (  1418 PWs)   bands (ev):

    -3.4014  -0.4431   4.3714   5.8049

          k =-0.2000 0.6000 0.0000 (  1413 PWs)   bands (ev):

    -4.5869   2.1463   4.5395   5.4823

          k = 0.7000-0.3000 0.9000 (  1418 PWs)   bands (ev):

    -3.7214   0.7579   3.7561   5.0420

          k = 0.6000-0.2000 0.8000 (  1417 PWs)   bands (ev):

    -2.9325  -0.3201   3.2449   4.9658

          k = 0.5000-0.1000 0.7000 (  1427 PWs)   bands (ev):

    -3.1775   0.0032   3.0514   5.2864

          k = 0.4000 0.0000 0.6000 (  1419 PWs)   bands (ev):

    -4.0660   1.1895   3.4279   5.8787

          k = 0.8000-0.2000 1.0000 (  1415 PWs)   bands (ev):

    -3.2272   0.2830   3.9924   4.4068

          k = 0.7000-0.1000 0.9000 (  1415 PWs)   bands (ev):

    -2.3304  -0.6772   3.1150   4.2923

          k = 0.6000 0.0000 0.8000 (  1421 PWs)   bands (ev):

    -2.3348  -0.6472   2.5972   4.6476

          k =-0.2000-1.0000 0.0000 (  1414 PWs)   bands (ev):

    -1.5659  -1.5659   3.9279   3.9279

          k = 0.6000-0.2000 1.0000 (  1414 PWs)   bands (ev):

    -2.8368  -0.0902   3.0461   4.2999

          k = 0.5000-0.1000 0.9000 (  1418 PWs)   bands (ev):

    -2.2145  -0.7197   2.8492   3.9763

          k =-0.4000-1.0000 0.0000 (  1420 PWs)   bands (ev):

    -1.4504  -1.4504   3.2990   3.2990

     highest occupied level (ev):     8.4502

!    total energy              =     -15.75830179 Ry
     estimated scf accuracy    <       0.00000061 Ry

     The total energy is the sum of the following terms:
     one-electron contribution =       5.73528495 Ry
     hartree contribution      =       0.97621699 Ry
     xc contribution           =      -4.93516733 Ry
     ewald contribution        =     -17.53463640 Ry

     convergence has been achieved in  19 iterations
     Writing meta-gga kinetic term

     Writing all to output data dir ./input_pw/Ge/2/pwscf.save/
     Writing meta-gga kinetic term
 
     init_run     :      1.87s CPU      3.52s WALL (       1 calls)
     electrons    :     33.54s CPU     67.55s WALL (       1 calls)

     Called by init_run:
     wfcinit      :      1.76s CPU      3.23s WALL (       1 calls)
     potinit      :      0.03s CPU      0.06s WALL (       1 calls)
     hinit0       :      0.07s CPU      0.19s WALL (       1 calls)

     Called by electrons:
     c_bands      :     28.18s CPU     56.81s WALL (      20 calls)
     sum_band     :      4.58s CPU      9.16s WALL (      20 calls)
     v_of_rho     :      0.44s CPU      0.92s WALL (      20 calls)
     mix_rho      :      0.34s CPU      0.67s WALL (      20 calls)

     Called by c_bands:
     init_us_2    :      0.37s CPU      0.79s WALL (    1927 calls)
     init_us_2:cp :      0.36s CPU      0.79s WALL (    1927 calls)
     cegterg      :     27.72s CPU     55.92s WALL (     940 calls)

     Called by *egterg:
     cdiaghg      :      0.31s CPU      0.62s WALL (    4051 calls)
     h_psi        :     28.06s CPU     56.19s WALL (    4145 calls)
     g_psi        :      0.05s CPU      0.08s WALL (    3158 calls)

     Called by h_psi:
     h_psi:calbec :      0.29s CPU      0.61s WALL (    4145 calls)
     vloc_psi     :      6.87s CPU     14.06s WALL (    4145 calls)
     add_vuspsi   :      0.19s CPU      0.38s WALL (    4145 calls)
     h_psi_meta   :     20.61s CPU     40.78s WALL (    4145 calls)

     General routines
     calbec       :      0.27s CPU      0.58s WALL (    4145 calls)
     fft          :      0.05s CPU      0.14s WALL (     239 calls)
     ffts         :      0.07s CPU      0.17s WALL (     332 calls)
     fftw         :     24.46s CPU     48.38s WALL (  125576 calls)
     interpolate  :      0.00s CPU      0.00s WALL (      20 calls)
 
     Parallel routines
 
     PWSCF        :     35.46s CPU   1m11.16s WALL

 
   This run was terminated on:  11:47: 1  29Mar2023            

=------------------------------------------------------------------------------=
   JOB DONE.
=------------------------------------------------------------------------------=
