
     Program PWSCF v.7.0 starts on  7Jul2023 at 14:25:48 

     This program is part of the open-source Quantum ESPRESSO suite
     for quantum simulation of materials; please cite
         "P. Giannozzi et al., J. Phys.:Condens. Matter 21 395502 (2009);
         "P. Giannozzi et al., J. Phys.:Condens. Matter 29 465901 (2017);
         "P. Giannozzi et al., J. Chem. Phys. 152 154105 (2020);
          URL http://www.quantum-espresso.org", 
     in publications or presentations arising from this work. More details at
     http://www.quantum-espresso.org/quote

     Parallel version (MPI), running on     1 processors

     MPI processes distributed on     1 nodes
     27491 MiB available memory on the printing compute node when the environment starts
 
     Waiting for input...
     Reading input from standard input
Warning: card &CELL ignored
Warning: card / ignored

     Current dimensions of program PWSCF are:
     Max number of different atomic species (ntypx) = 10
     Max number of k-points (npk) =  40000
     Max angular momentum in pseudopotentials (lmaxx) =  4
     file Ge.SCAN.UPF2: wavefunction(s)  0D renormalized

     WARNING: the MGGA functional with ID    5 has been 
     read together with other dft terms, but it should 
     stand alone in order to work properly. The other 
     terms will be ignored.

     Subspace diagonalization in iterative solution of the eigenvalue problem:
     a serial algorithm will be used

 
     G-vector sticks info
     --------------------
     sticks:   dense  smooth     PW     G-vecs:    dense   smooth      PW
     Sum         673     673    211                11311    11311    1989
 
     Using Slab Decomposition
 


     bravais-lattice index     =            2
     lattice parameter (alat)  =       9.8307  a.u.
     unit-cell volume          =     237.5154 (a.u.)^3
     number of atoms/cell      =            2
     number of atomic types    =            1
     number of electrons       =         8.00
     number of Kohn-Sham states=            4
     kinetic-energy cutoff     =      50.0000  Ry
     charge density cutoff     =     200.0000  Ry
     scf convergence threshold =      2.0E-05
     mixing beta               =       0.2000
     number of iterations used =            8  local-TF  mixing
     Exchange-correlation= SLA  PW  SCAN SCAN
                           (   0   0   0   0   0 263 267)

     celldm(1)=   9.830688  celldm(2)=   0.000000  celldm(3)=   0.000000
     celldm(4)=   0.000000  celldm(5)=   0.000000  celldm(6)=   0.000000

     crystal axes: (cart. coord. in units of alat)
               a(1) = (  -0.500000   0.000000   0.500000 )  
               a(2) = (   0.000000   0.500000   0.500000 )  
               a(3) = (  -0.500000   0.500000   0.000000 )  

     reciprocal axes: (cart. coord. in units 2 pi/alat)
               b(1) = ( -1.000000 -1.000000  1.000000 )  
               b(2) = (  1.000000  1.000000  1.000000 )  
               b(3) = ( -1.000000  1.000000 -1.000000 )  


     PseudoPot. # 1 for Ge read from file:
     ~/Documents/TA/PWDFT.jl/pseudopotentials/scan_upf/Ge.SCAN.UPF2
     MD5 check sum: Not computed, couldn't open file
     Pseudo is Norm-conserving, Zval =  4.0
     Generated by new atomic code, or converted to UPF format
     Using radial grid of 1557 points,  2 beta functions with: 
                l(1) =   0
                l(2) =   1

     atomic species   valence    mass     pseudopotential
        Ge             4.00    72.64000     Ge( 1.00)

     48 Sym. Ops., with inversion, found (24 have fractional translation)



   Cartesian axes

     site n.     atom                  positions (alat units)
         1           Ge  tau(   1) = (   0.0000000   0.0000000   0.0000000  )
         2           Ge  tau(   2) = (   0.2500000   0.2500000   0.2500000  )

     number of k points=    47
                       cart. coord. in units 2pi/alat
        k(    1) = (   0.0000000   0.0000000   0.0000000), wk =   0.0020000
        k(    2) = (  -0.1000000   0.1000000  -0.1000000), wk =   0.0160000
        k(    3) = (  -0.2000000   0.2000000  -0.2000000), wk =   0.0160000
        k(    4) = (  -0.3000000   0.3000000  -0.3000000), wk =   0.0160000
        k(    5) = (  -0.4000000   0.4000000  -0.4000000), wk =   0.0160000
        k(    6) = (   0.5000000  -0.5000000   0.5000000), wk =   0.0080000
        k(    7) = (   0.0000000   0.2000000   0.0000000), wk =   0.0120000
        k(    8) = (  -0.1000000   0.3000000  -0.1000000), wk =   0.0480000
        k(    9) = (  -0.2000000   0.4000000  -0.2000000), wk =   0.0480000
        k(   10) = (  -0.3000000   0.5000000  -0.3000000), wk =   0.0480000
        k(   11) = (   0.6000000  -0.4000000   0.6000000), wk =   0.0480000
        k(   12) = (   0.5000000  -0.3000000   0.5000000), wk =   0.0480000
        k(   13) = (   0.4000000  -0.2000000   0.4000000), wk =   0.0480000
        k(   14) = (   0.3000000  -0.1000000   0.3000000), wk =   0.0480000
        k(   15) = (   0.2000000   0.0000000   0.2000000), wk =   0.0240000
        k(   16) = (   0.0000000   0.4000000   0.0000000), wk =   0.0120000
        k(   17) = (  -0.1000000   0.5000000  -0.1000000), wk =   0.0480000
        k(   18) = (  -0.2000000   0.6000000  -0.2000000), wk =   0.0480000
        k(   19) = (   0.7000000  -0.3000000   0.7000000), wk =   0.0480000
        k(   20) = (   0.6000000  -0.2000000   0.6000000), wk =   0.0480000
        k(   21) = (   0.5000000  -0.1000000   0.5000000), wk =   0.0480000
        k(   22) = (   0.4000000   0.0000000   0.4000000), wk =   0.0240000
        k(   23) = (   0.0000000   0.6000000   0.0000000), wk =   0.0120000
        k(   24) = (  -0.1000000   0.7000000  -0.1000000), wk =   0.0480000
        k(   25) = (   0.8000000  -0.2000000   0.8000000), wk =   0.0480000
        k(   26) = (   0.7000000  -0.1000000   0.7000000), wk =   0.0480000
        k(   27) = (   0.6000000  -0.0000000   0.6000000), wk =   0.0240000
        k(   28) = (   0.0000000   0.8000000   0.0000000), wk =   0.0120000
        k(   29) = (   0.9000000  -0.1000000   0.9000000), wk =   0.0480000
        k(   30) = (   0.8000000   0.0000000   0.8000000), wk =   0.0240000
        k(   31) = (   0.0000000  -1.0000000   0.0000000), wk =   0.0060000
        k(   32) = (  -0.2000000   0.4000000   0.0000000), wk =   0.0480000
        k(   33) = (  -0.3000000   0.5000000  -0.1000000), wk =   0.0960000
        k(   34) = (   0.6000000  -0.4000000   0.8000000), wk =   0.0960000
        k(   35) = (   0.5000000  -0.3000000   0.7000000), wk =   0.0480000
        k(   36) = (  -0.2000000   0.6000000   0.0000000), wk =   0.0480000
        k(   37) = (   0.7000000  -0.3000000   0.9000000), wk =   0.0960000
        k(   38) = (   0.6000000  -0.2000000   0.8000000), wk =   0.0960000
        k(   39) = (   0.5000000  -0.1000000   0.7000000), wk =   0.0960000
        k(   40) = (   0.4000000   0.0000000   0.6000000), wk =   0.0480000
        k(   41) = (   0.8000000  -0.2000000   1.0000000), wk =   0.0480000
        k(   42) = (   0.7000000  -0.1000000   0.9000000), wk =   0.0960000
        k(   43) = (   0.6000000   0.0000000   0.8000000), wk =   0.0480000
        k(   44) = (  -0.2000000  -1.0000000   0.0000000), wk =   0.0240000
        k(   45) = (   0.6000000  -0.2000000   1.0000000), wk =   0.0480000
        k(   46) = (   0.5000000  -0.1000000   0.9000000), wk =   0.0480000
        k(   47) = (  -0.4000000  -1.0000000   0.0000000), wk =   0.0240000

     Dense  grid:    11311 G-vectors     FFT dimensions: (  32,  32,  32)

     Estimated max dynamical RAM per process >      20.99 MB

     WARNING: libxc functional with ID  263 depends
      on external parameters: check the user_guide of
      QE if you need to modify them or to check their
      default values.

     Initial potential from superposition of free atoms

     starting charge       7.9987, renormalised to       8.0000
     Starting wfcs are   18 randomized atomic wfcs

     total cpu time spent up to now is        3.6 secs

     Self-consistent Calculation

     iteration #  1     ecut=    50.00 Ry     beta= 0.20
     Davidson diagonalization with overlap
     ethr =  1.00E-02,  avg # of iterations =  1.9

     Threshold (ethr) on eigenvalues was too large:
     Diagonalizing with lowered threshold

     Davidson diagonalization with overlap
     ethr =  5.48E-04,  avg # of iterations =  6.2

     total cpu time spent up to now is       11.4 secs

     total energy              =     -15.69553556 Ry
     estimated scf accuracy    <       0.05306926 Ry

     iteration #  2     ecut=    50.00 Ry     beta= 0.20
     Davidson diagonalization with overlap
     ethr =  6.63E-04,  avg # of iterations =  1.6

     total cpu time spent up to now is       13.8 secs

     total energy              =     -15.74955824 Ry
     estimated scf accuracy    <       0.04133824 Ry

     iteration #  3     ecut=    50.00 Ry     beta= 0.20
     Davidson diagonalization with overlap
     ethr =  5.17E-04,  avg # of iterations =  1.1

     total cpu time spent up to now is       16.0 secs

     total energy              =     -15.75224971 Ry
     estimated scf accuracy    <       0.00339743 Ry

     iteration #  4     ecut=    50.00 Ry     beta= 0.20
     Davidson diagonalization with overlap
     c_bands:  3 eigenvalues not converged
     ethr =  4.25E-05,  avg # of iterations =  8.6

     total cpu time spent up to now is       22.8 secs

     total energy              =     -15.75696351 Ry
     estimated scf accuracy    <       0.00395889 Ry

     iteration #  5     ecut=    50.00 Ry     beta= 0.20
     Davidson diagonalization with overlap
     ethr =  4.25E-05,  avg # of iterations =  2.0

     total cpu time spent up to now is       25.3 secs

     total energy              =     -15.75727808 Ry
     estimated scf accuracy    <       0.00025592 Ry

     iteration #  6     ecut=    50.00 Ry     beta= 0.20
     Davidson diagonalization with overlap
     c_bands:  3 eigenvalues not converged
     ethr =  3.20E-06,  avg # of iterations = 11.6

     total cpu time spent up to now is       34.1 secs

     total energy              =     -15.75815847 Ry
     estimated scf accuracy    <       0.00006296 Ry

     iteration #  7     ecut=    50.00 Ry     beta= 0.20
     Davidson diagonalization with overlap
     c_bands:  3 eigenvalues not converged
     ethr =  7.87E-07,  avg # of iterations =  5.6

     total cpu time spent up to now is       38.8 secs

     total energy              =     -15.75825496 Ry
     estimated scf accuracy    <       0.00007727 Ry

     iteration #  8     ecut=    50.00 Ry     beta= 0.20
     Davidson diagonalization with overlap
     ethr =  7.87E-07,  avg # of iterations =  4.0

     total cpu time spent up to now is       42.4 secs

     End of self-consistent calculation

          k = 0.0000 0.0000 0.0000 (  1411 PWs)   bands (ev):

    -6.6028   8.4599   8.4599   8.4599

          k =-0.1000 0.1000-0.1000 (  1423 PWs)   bands (ev):

    -6.4484   6.8290   8.1496   8.1496

          k =-0.2000 0.2000-0.2000 (  1414 PWs)   bands (ev):

    -5.9911   4.3715   7.5777   7.5777

          k =-0.3000 0.3000-0.3000 (  1423 PWs)   bands (ev):

    -5.2591   2.0919   7.0846   7.0846

          k =-0.4000 0.4000-0.4000 (  1422 PWs)   bands (ev):

    -4.3624   0.2411   6.7728   6.7728

          k = 0.5000-0.5000 0.5000 (  1404 PWs)   bands (ev):

    -3.8140  -0.6286   6.6674   6.6675

          k = 0.0000 0.2000 0.0000 (  1419 PWs)   bands (ev):

    -6.3965   7.1330   7.5928   7.5929

          k =-0.1000 0.3000-0.1000 (  1416 PWs)   bands (ev):

    -6.0388   5.1036   6.9679   7.2162

          k =-0.2000 0.4000-0.2000 (  1410 PWs)   bands (ev):

    -5.3930   2.8332   6.5110   6.6082

          k =-0.3000 0.5000-0.3000 (  1418 PWs)   bands (ev):

    -4.5264   0.8494   6.0431   6.2942

          k = 0.6000-0.4000 0.6000 (  1425 PWs)   bands (ev):

    -3.7506  -0.4447   5.6492   6.3310

          k = 0.5000-0.3000 0.5000 (  1423 PWs)   bands (ev):

    -3.9542  -0.1346   5.4782   6.6073

          k = 0.4000-0.2000 0.4000 (  1418 PWs)   bands (ev):

    -4.8331   1.4689   5.5623   7.0846

          k = 0.3000-0.1000 0.3000 (  1405 PWs)   bands (ev):

    -5.6398   3.5624   5.9348   7.6795

          k = 0.2000 0.0000 0.2000 (  1412 PWs)   bands (ev):

    -6.1923   5.6581   6.7624   8.1766

          k = 0.0000 0.4000 0.0000 (  1419 PWs)   bands (ev):

    -5.7805   4.9115   6.3037   6.3037

          k =-0.1000 0.5000-0.1000 (  1417 PWs)   bands (ev):

    -5.2269   3.2903   5.6267   5.8180

          k =-0.2000 0.6000-0.2000 (  1422 PWs)   bands (ev):

    -4.4190   1.4594   4.8111   5.5907

          k = 0.7000-0.3000 0.7000 (  1427 PWs)   bands (ev):

    -3.5360  -0.0247   4.1531   5.6432

          k = 0.6000-0.2000 0.6000 (  1430 PWs)   bands (ev):

    -3.3493  -0.2846   3.7673   5.9660

          k = 0.5000-0.1000 0.5000 (  1418 PWs)   bands (ev):

    -4.1414   0.9498   3.7362   6.5162

          k = 0.4000 0.0000 0.4000 (  1412 PWs)   bands (ev):

    -5.0023   2.5133   4.3130   7.1820

          k = 0.0000 0.6000 0.0000 (  1411 PWs)   bands (ev):

    -4.7645   2.6123   5.2796   5.2796

          k =-0.1000 0.7000-0.1000 (  1408 PWs)   bands (ev):

    -4.0302   1.3379   4.4691   4.9963

          k = 0.8000-0.2000 0.8000 (  1425 PWs)   bands (ev):

    -3.1239   0.0763   3.4238   5.0001

          k = 0.7000-0.1000 0.7000 (  1427 PWs)   bands (ev):

    -2.6119  -0.5173   2.7283   5.2894

          k = 0.6000-0.0000 0.6000 (  1428 PWs)   bands (ev):

    -3.2658   0.2144   2.6958   5.8286

          k = 0.0000 0.8000 0.0000 (  1411 PWs)   bands (ev):

    -3.3685   0.3951   4.6424   4.6424

          k = 0.9000-0.1000 0.9000 (  1408 PWs)   bands (ev):

    -2.4852  -0.6474   3.9062   4.5743

          k = 0.8000 0.0000 0.8000 (  1418 PWs)   bands (ev):

    -1.9017  -1.1680   2.9331   4.7983

          k = 0.0000-1.0000 0.0000 (  1428 PWs)   bands (ev):

    -1.6285  -1.6285   4.4272   4.4272

          k =-0.2000 0.4000 0.0000 (  1405 PWs)   bands (ev):

    -5.5839   3.9202   5.5119   7.0209

          k =-0.3000 0.5000-0.1000 (  1415 PWs)   bands (ev):

    -4.8549   2.1187   4.7444   6.4890

          k = 0.6000-0.4000 0.8000 (  1419 PWs)   bands (ev):

    -3.9569   0.4048   4.4496   6.0010

          k = 0.5000-0.3000 0.7000 (  1418 PWs)   bands (ev):

    -3.3989  -0.4406   4.3750   5.8096

          k =-0.2000 0.6000 0.0000 (  1413 PWs)   bands (ev):

    -4.5849   2.1505   4.5428   5.4866

          k = 0.7000-0.3000 0.9000 (  1418 PWs)   bands (ev):

    -3.7191   0.7615   3.7589   5.0459

          k = 0.6000-0.2000 0.8000 (  1417 PWs)   bands (ev):

    -2.9299  -0.3171   3.2475   4.9696

          k = 0.5000-0.1000 0.7000 (  1427 PWs)   bands (ev):

    -3.1749   0.0064   3.0538   5.2904

          k = 0.4000 0.0000 0.6000 (  1419 PWs)   bands (ev):

    -4.0637   1.1932   3.4304   5.8834

          k = 0.8000-0.2000 1.0000 (  1415 PWs)   bands (ev):

    -3.2247   0.2866   3.9954   4.4102

          k = 0.7000-0.1000 0.9000 (  1415 PWs)   bands (ev):

    -2.3277  -0.6740   3.1173   4.2956

          k = 0.6000 0.0000 0.8000 (  1421 PWs)   bands (ev):

    -2.3319  -0.6439   2.5991   4.6511

          k =-0.2000-1.0000 0.0000 (  1414 PWs)   bands (ev):

    -1.5630  -1.5630   3.9309   3.9309

          k = 0.6000-0.2000 1.0000 (  1414 PWs)   bands (ev):

    -2.8342  -0.0867   3.0483   4.3029

          k = 0.5000-0.1000 0.9000 (  1418 PWs)   bands (ev):

    -2.2116  -0.7165   2.8513   3.9791

          k =-0.4000-1.0000 0.0000 (  1420 PWs)   bands (ev):

    -1.4473  -1.4473   3.3013   3.3013

     highest occupied level (ev):     8.4599

!    total energy              =     -15.75828235 Ry
     estimated scf accuracy    <       0.00000203 Ry

     The total energy is the sum of the following terms:
     one-electron contribution =       5.73544861 Ry
     hartree contribution      =       0.97563253 Ry
     xc contribution           =      -4.93472709 Ry
     ewald contribution        =     -17.53463640 Ry

     convergence has been achieved in   8 iterations
     Writing meta-gga kinetic term

     Writing all to output data dir ./input_pw/Ge/2/pwscf.save/
     Writing meta-gga kinetic term
 
     init_run     :      1.88s CPU      3.48s WALL (       1 calls)
     electrons    :     19.18s CPU     38.86s WALL (       1 calls)

     Called by init_run:
     wfcinit      :      1.77s CPU      3.22s WALL (       1 calls)
     potinit      :      0.03s CPU      0.06s WALL (       1 calls)
     hinit0       :      0.07s CPU      0.16s WALL (       1 calls)

     Called by electrons:
     c_bands      :     16.81s CPU     34.04s WALL (       9 calls)
     sum_band     :      2.08s CPU      4.24s WALL (       9 calls)
     v_of_rho     :      0.20s CPU      0.39s WALL (       9 calls)
     mix_rho      :      0.10s CPU      0.21s WALL (       9 calls)

     Called by c_bands:
     init_us_2    :      0.17s CPU      0.32s WALL (     893 calls)
     init_us_2:cp :      0.17s CPU      0.32s WALL (     893 calls)
     cegterg      :     16.60s CPU     33.58s WALL (     423 calls)

     Called by *egterg:
     cdiaghg      :      0.19s CPU      0.38s WALL (    2383 calls)
     h_psi        :     17.46s CPU     34.96s WALL (    2477 calls)
     g_psi        :      0.03s CPU      0.03s WALL (    2007 calls)

     Called by h_psi:
     h_psi:calbec :      0.17s CPU      0.32s WALL (    2477 calls)
     vloc_psi     :      4.25s CPU      8.64s WALL (    2477 calls)
     add_vuspsi   :      0.12s CPU      0.28s WALL (    2477 calls)
     h_psi_meta   :     12.86s CPU     25.56s WALL (    2477 calls)

     General routines
     calbec       :      0.16s CPU      0.31s WALL (    2477 calls)
     fft          :      0.02s CPU      0.06s WALL (     107 calls)
     ffts         :      0.03s CPU      0.07s WALL (     129 calls)
     fftw         :     14.87s CPU     29.57s WALL (   75064 calls)
     interpolate  :      0.00s CPU      0.00s WALL (       9 calls)
 
     Parallel routines
 
     PWSCF        :     21.10s CPU     42.48s WALL

 
   This run was terminated on:  14:26:31   7Jul2023            

=------------------------------------------------------------------------------=
   JOB DONE.
=------------------------------------------------------------------------------=
