
     Program PWSCF v.7.0 starts on 14Mar2023 at 11:36:59 

     This program is part of the open-source Quantum ESPRESSO suite
     for quantum simulation of materials; please cite
         "P. Giannozzi et al., J. Phys.:Condens. Matter 21 395502 (2009);
         "P. Giannozzi et al., J. Phys.:Condens. Matter 29 465901 (2017);
         "P. Giannozzi et al., J. Chem. Phys. 152 154105 (2020);
          URL http://www.quantum-espresso.org", 
     in publications or presentations arising from this work. More details at
     http://www.quantum-espresso.org/quote

     Parallel version (MPI), running on     1 processors

     MPI processes distributed on     1 nodes
     27003 MiB available memory on the printing compute node when the environment starts
 
     Waiting for input...
     Reading input from standard input
Warning: card &CELL ignored
Warning: card / ignored

     Current dimensions of program PWSCF are:
     Max number of different atomic species (ntypx) = 10
     Max number of k-points (npk) =  40000
     Max angular momentum in pseudopotentials (lmaxx) =  4
     file Ge.SCAN.UPF2: wavefunction(s)  0D renormalized

     WARNING: the MGGA functional with ID    5 has been 
     read together with other dft terms, but it should 
     stand alone in order to work properly. The other 
     terms will be ignored.

     Subspace diagonalization in iterative solution of the eigenvalue problem:
     a serial algorithm will be used

 
     G-vector sticks info
     --------------------
     sticks:   dense  smooth     PW     G-vecs:    dense   smooth      PW
     Sum         673     673    211                11575    11575    1989
 
     Using Slab Decomposition
 


     bravais-lattice index     =            2
     lattice parameter (alat)  =       9.8760  a.u.
     unit-cell volume          =     240.8148 (a.u.)^3
     number of atoms/cell      =            2
     number of atomic types    =            1
     number of electrons       =         8.00
     number of Kohn-Sham states=            4
     kinetic-energy cutoff     =      50.0000  Ry
     charge density cutoff     =     200.0000  Ry
     scf convergence threshold =      1.0E-06
     mixing beta               =       0.0100
     number of iterations used =            8  local-TF  mixing
     Exchange-correlation= SLA  PW  SCAN SCAN
                           (   0   0   0   0   0 263 267)

     celldm(1)=   9.876000  celldm(2)=   0.000000  celldm(3)=   0.000000
     celldm(4)=   0.000000  celldm(5)=   0.000000  celldm(6)=   0.000000

     crystal axes: (cart. coord. in units of alat)
               a(1) = (  -0.500000   0.000000   0.500000 )  
               a(2) = (   0.000000   0.500000   0.500000 )  
               a(3) = (  -0.500000   0.500000   0.000000 )  

     reciprocal axes: (cart. coord. in units 2 pi/alat)
               b(1) = ( -1.000000 -1.000000  1.000000 )  
               b(2) = (  1.000000  1.000000  1.000000 )  
               b(3) = ( -1.000000  1.000000 -1.000000 )  


     PseudoPot. # 1 for Ge read from file:
     ~/Documents/TA/PWDFT.jl/pseudopotentials/scan_upf/Ge.SCAN.UPF2
     MD5 check sum: Not computed, couldn't open file
     Pseudo is Norm-conserving, Zval =  4.0
     Generated by new atomic code, or converted to UPF format
     Using radial grid of 1557 points,  2 beta functions with: 
                l(1) =   0
                l(2) =   1

     atomic species   valence    mass     pseudopotential
        Ge             4.00    72.64000     Ge( 1.00)

     48 Sym. Ops., with inversion, found (24 have fractional translation)



   Cartesian axes

     site n.     atom                  positions (alat units)
         1           Ge  tau(   1) = (   0.0000000   0.0000000   0.0000000  )
         2           Ge  tau(   2) = (   0.2500000   0.2500000   0.2500000  )

     number of k points=    47
                       cart. coord. in units 2pi/alat
        k(    1) = (   0.0000000   0.0000000   0.0000000), wk =   0.0020000
        k(    2) = (  -0.1000000   0.1000000  -0.1000000), wk =   0.0160000
        k(    3) = (  -0.2000000   0.2000000  -0.2000000), wk =   0.0160000
        k(    4) = (  -0.3000000   0.3000000  -0.3000000), wk =   0.0160000
        k(    5) = (  -0.4000000   0.4000000  -0.4000000), wk =   0.0160000
        k(    6) = (   0.5000000  -0.5000000   0.5000000), wk =   0.0080000
        k(    7) = (   0.0000000   0.2000000   0.0000000), wk =   0.0120000
        k(    8) = (  -0.1000000   0.3000000  -0.1000000), wk =   0.0480000
        k(    9) = (  -0.2000000   0.4000000  -0.2000000), wk =   0.0480000
        k(   10) = (  -0.3000000   0.5000000  -0.3000000), wk =   0.0480000
        k(   11) = (   0.6000000  -0.4000000   0.6000000), wk =   0.0480000
        k(   12) = (   0.5000000  -0.3000000   0.5000000), wk =   0.0480000
        k(   13) = (   0.4000000  -0.2000000   0.4000000), wk =   0.0480000
        k(   14) = (   0.3000000  -0.1000000   0.3000000), wk =   0.0480000
        k(   15) = (   0.2000000   0.0000000   0.2000000), wk =   0.0240000
        k(   16) = (   0.0000000   0.4000000   0.0000000), wk =   0.0120000
        k(   17) = (  -0.1000000   0.5000000  -0.1000000), wk =   0.0480000
        k(   18) = (  -0.2000000   0.6000000  -0.2000000), wk =   0.0480000
        k(   19) = (   0.7000000  -0.3000000   0.7000000), wk =   0.0480000
        k(   20) = (   0.6000000  -0.2000000   0.6000000), wk =   0.0480000
        k(   21) = (   0.5000000  -0.1000000   0.5000000), wk =   0.0480000
        k(   22) = (   0.4000000   0.0000000   0.4000000), wk =   0.0240000
        k(   23) = (   0.0000000   0.6000000   0.0000000), wk =   0.0120000
        k(   24) = (  -0.1000000   0.7000000  -0.1000000), wk =   0.0480000
        k(   25) = (   0.8000000  -0.2000000   0.8000000), wk =   0.0480000
        k(   26) = (   0.7000000  -0.1000000   0.7000000), wk =   0.0480000
        k(   27) = (   0.6000000  -0.0000000   0.6000000), wk =   0.0240000
        k(   28) = (   0.0000000   0.8000000   0.0000000), wk =   0.0120000
        k(   29) = (   0.9000000  -0.1000000   0.9000000), wk =   0.0480000
        k(   30) = (   0.8000000   0.0000000   0.8000000), wk =   0.0240000
        k(   31) = (   0.0000000  -1.0000000   0.0000000), wk =   0.0060000
        k(   32) = (  -0.2000000   0.4000000   0.0000000), wk =   0.0480000
        k(   33) = (  -0.3000000   0.5000000  -0.1000000), wk =   0.0960000
        k(   34) = (   0.6000000  -0.4000000   0.8000000), wk =   0.0960000
        k(   35) = (   0.5000000  -0.3000000   0.7000000), wk =   0.0480000
        k(   36) = (  -0.2000000   0.6000000   0.0000000), wk =   0.0480000
        k(   37) = (   0.7000000  -0.3000000   0.9000000), wk =   0.0960000
        k(   38) = (   0.6000000  -0.2000000   0.8000000), wk =   0.0960000
        k(   39) = (   0.5000000  -0.1000000   0.7000000), wk =   0.0960000
        k(   40) = (   0.4000000   0.0000000   0.6000000), wk =   0.0480000
        k(   41) = (   0.8000000  -0.2000000   1.0000000), wk =   0.0480000
        k(   42) = (   0.7000000  -0.1000000   0.9000000), wk =   0.0960000
        k(   43) = (   0.6000000   0.0000000   0.8000000), wk =   0.0480000
        k(   44) = (  -0.2000000  -1.0000000   0.0000000), wk =   0.0240000
        k(   45) = (   0.6000000  -0.2000000   1.0000000), wk =   0.0480000
        k(   46) = (   0.5000000  -0.1000000   0.9000000), wk =   0.0480000
        k(   47) = (  -0.4000000  -1.0000000   0.0000000), wk =   0.0240000

     Dense  grid:    11575 G-vectors     FFT dimensions: (  32,  32,  32)

     Estimated max dynamical RAM per process >      21.35 MB

     WARNING: libxc functional with ID  263 depends
      on external parameters: check the user_guide of
      QE if you need to modify them or to check their
      default values.

     Initial potential from superposition of free atoms

     starting charge       7.9987, renormalised to       8.0000
     Starting wfcs are   18 randomized atomic wfcs

     total cpu time spent up to now is        3.9 secs

     Self-consistent Calculation

     iteration #  1     ecut=    50.00 Ry     beta= 0.01
     Davidson diagonalization with overlap
     ethr =  1.00E-02,  avg # of iterations =  1.9

     Threshold (ethr) on eigenvalues was too large:
     Diagonalizing with lowered threshold

     Davidson diagonalization with overlap
     ethr =  5.37E-04,  avg # of iterations =  6.0

     total cpu time spent up to now is       11.5 secs

     total energy              =     -15.65171003 Ry
     estimated scf accuracy    <       0.05209964 Ry

     iteration #  2     ecut=    50.00 Ry     beta= 0.01
     Davidson diagonalization with overlap
     ethr =  6.51E-04,  avg # of iterations =  1.0

     total cpu time spent up to now is       13.6 secs

     total energy              =     -15.66804372 Ry
     estimated scf accuracy    <       0.05208254 Ry

     iteration #  3     ecut=    50.00 Ry     beta= 0.01
     Davidson diagonalization with overlap
     ethr =  6.51E-04,  avg # of iterations =  1.0

     total cpu time spent up to now is       15.8 secs

     total energy              =     -15.75867018 Ry
     estimated scf accuracy    <       0.05083142 Ry

     iteration #  4     ecut=    50.00 Ry     beta= 0.01
     Davidson diagonalization with overlap
     ethr =  6.35E-04,  avg # of iterations =  1.1

     total cpu time spent up to now is       18.0 secs

     total energy              =     -15.76141661 Ry
     estimated scf accuracy    <       0.00428092 Ry

     iteration #  5     ecut=    50.00 Ry     beta= 0.01
     Davidson diagonalization with overlap
     c_bands:  3 eigenvalues not converged
     ethr =  5.35E-05,  avg # of iterations =  7.0

     total cpu time spent up to now is       23.7 secs

     total energy              =     -15.76641444 Ry
     estimated scf accuracy    <       0.00547602 Ry

     iteration #  6     ecut=    50.00 Ry     beta= 0.01
     Davidson diagonalization with overlap
     ethr =  5.35E-05,  avg # of iterations =  1.4

     total cpu time spent up to now is       26.1 secs

     total energy              =     -15.76372930 Ry
     estimated scf accuracy    <       0.00641575 Ry

     iteration #  7     ecut=    50.00 Ry     beta= 0.01
     Davidson diagonalization with overlap
     ethr =  5.35E-05,  avg # of iterations =  3.1

     total cpu time spent up to now is       28.7 secs

     total energy              =     -15.76460021 Ry
     estimated scf accuracy    <       0.00054446 Ry

     iteration #  8     ecut=    50.00 Ry     beta= 0.01
     Davidson diagonalization with overlap
     ethr =  6.81E-06,  avg # of iterations =  8.8

     total cpu time spent up to now is       35.2 secs

     total energy              =     -15.76563238 Ry
     estimated scf accuracy    <       0.00033354 Ry

     iteration #  9     ecut=    50.00 Ry     beta= 0.01
     Davidson diagonalization with overlap
     ethr =  4.17E-06,  avg # of iterations =  2.7

     total cpu time spent up to now is       38.0 secs

     total energy              =     -15.76579776 Ry
     estimated scf accuracy    <       0.00031202 Ry

     iteration # 10     ecut=    50.00 Ry     beta= 0.01
     Davidson diagonalization with overlap
     ethr =  3.90E-06,  avg # of iterations =  1.1

     total cpu time spent up to now is       40.2 secs

     total energy              =     -15.76596574 Ry
     estimated scf accuracy    <       0.00017100 Ry

     iteration # 11     ecut=    50.00 Ry     beta= 0.01
     Davidson diagonalization with overlap
     ethr =  2.14E-06,  avg # of iterations =  3.1

     total cpu time spent up to now is       43.3 secs

     total energy              =     -15.76600346 Ry
     estimated scf accuracy    <       0.00003484 Ry

     iteration # 12     ecut=    50.00 Ry     beta= 0.01
     Davidson diagonalization with overlap
     ethr =  4.35E-07,  avg # of iterations =  6.0

     total cpu time spent up to now is       48.2 secs

     total energy              =     -15.76603710 Ry
     estimated scf accuracy    <       0.00003227 Ry

     iteration # 13     ecut=    50.00 Ry     beta= 0.01
     Davidson diagonalization with overlap
     ethr =  4.03E-07,  avg # of iterations =  1.3

     total cpu time spent up to now is       49.9 secs

     total energy              =     -15.76607784 Ry
     estimated scf accuracy    <       0.00003037 Ry

     iteration # 14     ecut=    50.00 Ry     beta= 0.01
     Davidson diagonalization with overlap
     ethr =  3.80E-07,  avg # of iterations =  2.1

     total cpu time spent up to now is       51.9 secs

     total energy              =     -15.76608198 Ry
     estimated scf accuracy    <       0.00000578 Ry

     iteration # 15     ecut=    50.00 Ry     beta= 0.01
     Davidson diagonalization with overlap
     ethr =  7.23E-08,  avg # of iterations =  5.9

     total cpu time spent up to now is       55.4 secs

     total energy              =     -15.76607721 Ry
     estimated scf accuracy    <       0.00000583 Ry

     iteration # 16     ecut=    50.00 Ry     beta= 0.01
     Davidson diagonalization with overlap
     ethr =  7.23E-08,  avg # of iterations =  1.1

     total cpu time spent up to now is       57.1 secs

     total energy              =     -15.76608795 Ry
     estimated scf accuracy    <       0.00000624 Ry

     iteration # 17     ecut=    50.00 Ry     beta= 0.01
     Davidson diagonalization with overlap
     ethr =  7.23E-08,  avg # of iterations =  2.2

     total cpu time spent up to now is       59.4 secs

     total energy              =     -15.76608972 Ry
     estimated scf accuracy    <       0.00000224 Ry

     iteration # 18     ecut=    50.00 Ry     beta= 0.01
     Davidson diagonalization with overlap
     ethr =  2.80E-08,  avg # of iterations =  6.4

     total cpu time spent up to now is       64.1 secs

     End of self-consistent calculation

          k = 0.0000 0.0000 0.0000 (  1459 PWs)   bands (ev):

    -6.6564   8.2690   8.2690   8.2690

          k =-0.1000 0.1000-0.1000 (  1435 PWs)   bands (ev):

    -6.5037   6.6477   7.9656   7.9656

          k =-0.2000 0.2000-0.2000 (  1429 PWs)   bands (ev):

    -6.0519   4.2158   7.4035   7.4035

          k =-0.3000 0.3000-0.3000 (  1435 PWs)   bands (ev):

    -5.3293   1.9627   6.9172   6.9172

          k =-0.4000 0.4000-0.4000 (  1423 PWs)   bands (ev):

    -4.4465   0.1365   6.6090   6.6090

          k = 0.5000-0.5000 0.5000 (  1458 PWs)   bands (ev):

    -3.9095  -0.7182   6.5048   6.5048

          k = 0.0000 0.2000 0.0000 (  1435 PWs)   bands (ev):

    -6.4524   6.9303   7.4213   7.4213

          k =-0.1000 0.3000-0.1000 (  1424 PWs)   bands (ev):

    -6.0989   4.9322   6.8064   7.0404

          k =-0.2000 0.4000-0.2000 (  1432 PWs)   bands (ev):

    -5.4612   2.6910   6.3553   6.4397

          k =-0.3000 0.5000-0.3000 (  1436 PWs)   bands (ev):

    -4.6070   0.7333   5.8821   6.1403

          k = 0.6000-0.4000 0.6000 (  1446 PWs)   bands (ev):

    -3.8458  -0.5399   5.4945   6.1753

          k = 0.5000-0.3000 0.5000 (  1442 PWs)   bands (ev):

    -4.0450  -0.2355   5.3278   6.4464

          k = 0.4000-0.2000 0.4000 (  1432 PWs)   bands (ev):

    -4.9091   1.3444   5.4136   6.9158

          k = 0.3000-0.1000 0.3000 (  1429 PWs)   bands (ev):

    -5.7049   3.4103   5.7853   7.5008

          k = 0.2000 0.0000 0.2000 (  1432 PWs)   bands (ev):

    -6.2507   5.4797   6.6063   7.9894

          k = 0.0000 0.4000 0.0000 (  1435 PWs)   bands (ev):

    -5.8436   4.7208   6.1529   6.1529

          k =-0.1000 0.5000-0.1000 (  1437 PWs)   bands (ev):

    -5.2967   3.1250   5.4800   5.6737

          k =-0.2000 0.6000-0.2000 (  1429 PWs)   bands (ev):

    -4.4997   1.3226   4.6723   5.4487

          k = 0.7000-0.3000 0.7000 (  1448 PWs)   bands (ev):

    -3.6313  -0.1371   4.0222   5.4996

          k = 0.6000-0.2000 0.6000 (  1444 PWs)   bands (ev):

    -3.4489  -0.3914   3.6432   5.8168

          k = 0.5000-0.1000 0.5000 (  1438 PWs)   bands (ev):

    -4.2268   0.8212   3.6173   6.3579

          k = 0.4000 0.0000 0.4000 (  1432 PWs)   bands (ev):

    -5.0755   2.3617   4.1923   7.0121

          k = 0.0000 0.6000 0.0000 (  1435 PWs)   bands (ev):

    -4.8398   2.4455   5.1428   5.1428

          k =-0.1000 0.7000-0.1000 (  1429 PWs)   bands (ev):

    -4.1147   1.1873   4.3453   4.8631

          k = 0.8000-0.2000 0.8000 (  1440 PWs)   bands (ev):

    -3.2219  -0.0560   3.3160   4.8664

          k = 0.7000-0.1000 0.7000 (  1445 PWs)   bands (ev):

    -2.7208  -0.6375   2.6314   5.1510

          k = 0.6000-0.0000 0.6000 (  1448 PWs)   bands (ev):

    -3.3641   0.0836   2.6003   5.6819

          k = 0.0000 0.8000 0.0000 (  1423 PWs)   bands (ev):

    -3.4608   0.2553   4.5140   4.5140

          k = 0.9000-0.1000 0.9000 (  1433 PWs)   bands (ev):

    -2.5893  -0.7747   3.7917   4.4466

          k = 0.8000 0.0000 0.8000 (  1432 PWs)   bands (ev):

    -2.0183  -1.2863   2.8368   4.6673

          k = 0.0000-1.0000 0.0000 (  1428 PWs)   bands (ev):

    -1.7426  -1.7426   4.3015   4.3015

          k =-0.2000 0.4000 0.0000 (  1427 PWs)   bands (ev):

    -5.6496   3.7526   5.3741   6.8517

          k =-0.3000 0.5000-0.1000 (  1430 PWs)   bands (ev):

    -4.9300   1.9764   4.6109   6.3304

          k = 0.6000-0.4000 0.8000 (  1439 PWs)   bands (ev):

    -4.0456   0.2889   4.3141   5.8521

          k = 0.5000-0.3000 0.7000 (  1442 PWs)   bands (ev):

    -3.4988  -0.5411   4.2381   5.6648

          k =-0.2000 0.6000 0.0000 (  1431 PWs)   bands (ev):

    -4.6628   1.9933   4.4182   5.3463

          k = 0.7000-0.3000 0.9000 (  1444 PWs)   bands (ev):

    -3.8091   0.6239   3.6424   4.9146

          k = 0.6000-0.2000 0.8000 (  1448 PWs)   bands (ev):

    -3.0340  -0.4349   3.1361   4.8397

          k = 0.5000-0.1000 0.7000 (  1440 PWs)   bands (ev):

    -3.2748  -0.1173   2.9477   5.1546

          k = 0.4000 0.0000 0.6000 (  1433 PWs)   bands (ev):

    -4.1495   1.0513   3.3225   5.7369

          k = 0.8000-0.2000 1.0000 (  1439 PWs)   bands (ev):

    -3.3198   0.1473   3.8787   4.2890

          k = 0.7000-0.1000 0.9000 (  1438 PWs)   bands (ev):

    -2.4367  -0.8012   3.0172   4.1757

          k = 0.6000 0.0000 0.8000 (  1441 PWs)   bands (ev):

    -2.4440  -0.7689   2.5079   4.5256

          k =-0.2000-1.0000 0.0000 (  1440 PWs)   bands (ev):

    -1.6795  -1.6795   3.8161   3.8161

          k = 0.6000-0.2000 1.0000 (  1452 PWs)   bands (ev):

    -2.9370  -0.2209   2.9479   4.1854

          k = 0.5000-0.1000 0.9000 (  1446 PWs)   bands (ev):

    -2.3249  -0.8420   2.7545   3.8670

          k =-0.4000-1.0000 0.0000 (  1436 PWs)   bands (ev):

    -1.5682  -1.5682   3.1997   3.1997

     highest occupied level (ev):     8.2690

!    total energy              =     -15.76609189 Ry
     estimated scf accuracy    <       0.00000008 Ry

     The total energy is the sum of the following terms:
     one-electron contribution =       5.61956985 Ry
     hartree contribution      =       0.98861165 Ry
     xc contribution           =      -4.92008772 Ry
     ewald contribution        =     -17.45418567 Ry

     convergence has been achieved in  18 iterations
     Writing meta-gga kinetic term

     Writing all to output data dir ./input_pw/Ge/2/pwscf.save/
     Writing meta-gga kinetic term
 
     init_run     :      1.90s CPU      3.92s WALL (       1 calls)
     electrons    :     32.43s CPU     60.19s WALL (       1 calls)

     Called by init_run:
     wfcinit      :      1.81s CPU      3.78s WALL (       1 calls)
     potinit      :      0.02s CPU      0.06s WALL (       1 calls)
     hinit0       :      0.06s CPU      0.06s WALL (       1 calls)

     Called by electrons:
     c_bands      :     27.33s CPU     50.78s WALL (      19 calls)
     sum_band     :      4.41s CPU      8.17s WALL (      19 calls)
     v_of_rho     :      0.40s CPU      0.77s WALL (      19 calls)
     mix_rho      :      0.29s CPU      0.49s WALL (      19 calls)

     Called by c_bands:
     init_us_2    :      0.35s CPU      0.59s WALL (    1833 calls)
     init_us_2:cp :      0.34s CPU      0.59s WALL (    1833 calls)
     cegterg      :     26.90s CPU     49.95s WALL (     893 calls)

     Called by *egterg:
     cdiaghg      :      0.28s CPU      0.63s WALL (    3828 calls)
     h_psi        :     27.42s CPU     51.30s WALL (    3922 calls)
     g_psi        :      0.05s CPU      0.07s WALL (    2982 calls)

     Called by h_psi:
     h_psi:calbec :      0.25s CPU      0.49s WALL (    3922 calls)
     vloc_psi     :      6.64s CPU     12.63s WALL (    3922 calls)
     add_vuspsi   :      0.17s CPU      0.31s WALL (    3922 calls)
     h_psi_meta   :     20.26s CPU     37.72s WALL (    3922 calls)

     General routines
     calbec       :      0.24s CPU      0.48s WALL (    3922 calls)
     fft          :      0.05s CPU      0.11s WALL (     227 calls)
     ffts         :      0.07s CPU      0.10s WALL (     313 calls)
     fftw         :     24.60s CPU     46.52s WALL (  118776 calls)
     interpolate  :      0.00s CPU      0.00s WALL (      19 calls)
 
     Parallel routines
 
     PWSCF        :     34.37s CPU   1m 4.19s WALL

 
   This run was terminated on:  11:38: 3  14Mar2023            

=------------------------------------------------------------------------------=
   JOB DONE.
=------------------------------------------------------------------------------=
