
     Program PWSCF v.7.0 starts on  7Jul2023 at 14:30:57 

     This program is part of the open-source Quantum ESPRESSO suite
     for quantum simulation of materials; please cite
         "P. Giannozzi et al., J. Phys.:Condens. Matter 21 395502 (2009);
         "P. Giannozzi et al., J. Phys.:Condens. Matter 29 465901 (2017);
         "P. Giannozzi et al., J. Chem. Phys. 152 154105 (2020);
          URL http://www.quantum-espresso.org", 
     in publications or presentations arising from this work. More details at
     http://www.quantum-espresso.org/quote

     Parallel version (MPI), running on     1 processors

     MPI processes distributed on     1 nodes
     27326 MiB available memory on the printing compute node when the environment starts
 
     Waiting for input...
     Reading input from standard input
Warning: card &CELL ignored
Warning: card / ignored

     Current dimensions of program PWSCF are:
     Max number of different atomic species (ntypx) = 10
     Max number of k-points (npk) =  40000
     Max angular momentum in pseudopotentials (lmaxx) =  4
     file Si.SCAN.UPF2: wavefunction(s)  0D renormalized

     WARNING: the MGGA functional with ID    5 has been 
     read together with other dft terms, but it should 
     stand alone in order to work properly. The other 
     terms will be ignored.

     WARNING: the MGGA functional with ID    5 has been 
     read together with other dft terms, but it should 
     stand alone in order to work properly. The other 
     terms will be ignored.

     Subspace diagonalization in iterative solution of the eigenvalue problem:
     a serial algorithm will be used

 
     G-vector sticks info
     --------------------
     sticks:   dense  smooth     PW     G-vecs:    dense   smooth      PW
     Sum         433     433    151                 5961     5961    1139
 
     Using Slab Decomposition
 


     bravais-lattice index     =            2
     lattice parameter (alat)  =       7.9368  a.u.
     unit-cell volume          =     124.9927 (a.u.)^3
     number of atoms/cell      =            2
     number of atomic types    =            2
     number of electrons       =         8.00
     number of Kohn-Sham states=            4
     kinetic-energy cutoff     =      50.0000  Ry
     charge density cutoff     =     200.0000  Ry
     scf convergence threshold =      2.0E-05
     mixing beta               =       0.2000
     number of iterations used =            8  local-TF  mixing
     Exchange-correlation= SLA  PW   SCAN SCAN
                           (   0   0   0   0   0 263 267)

     celldm(1)=   7.936850  celldm(2)=   0.000000  celldm(3)=   0.000000
     celldm(4)=   0.000000  celldm(5)=   0.000000  celldm(6)=   0.000000

     crystal axes: (cart. coord. in units of alat)
               a(1) = (  -0.500000   0.000000   0.500000 )  
               a(2) = (   0.000000   0.500000   0.500000 )  
               a(3) = (  -0.500000   0.500000   0.000000 )  

     reciprocal axes: (cart. coord. in units 2 pi/alat)
               b(1) = ( -1.000000 -1.000000  1.000000 )  
               b(2) = (  1.000000  1.000000  1.000000 )  
               b(3) = ( -1.000000  1.000000 -1.000000 )  


     PseudoPot. # 1 for Si read from file:
     ~/Documents/TA/PWDFT.jl/pseudopotentials/scan_upf/Si.SCAN.UPF2
     MD5 check sum: Not computed, couldn't open file
     Pseudo is Norm-conserving, Zval =  4.0
     Generated by new atomic code, or converted to UPF format
     Using radial grid of 1475 points,  2 beta functions with: 
                l(1) =   0
                l(2) =   1

     PseudoPot. # 2 for C  read from file:
     ~/Documents/TA/PWDFT.jl/pseudopotentials/scan_upf/C.SCAN.UPF2
     MD5 check sum: Not computed, couldn't open file
     Pseudo is Norm-conserving, Zval =  4.0
     Generated by new atomic code, or converted to UPF format
     Using radial grid of 1389 points,  1 beta functions with: 
                l(1) =   0

     atomic species   valence    mass     pseudopotential
        Si             4.00    28.08550     Si( 1.00)
        C              4.00    12.01100     C ( 1.00)

     24 Sym. Ops. (no inversion) found



   Cartesian axes

     site n.     atom                  positions (alat units)
         1           Si  tau(   1) = (   0.0000000   0.0000000   0.0000000  )
         2           C   tau(   2) = (   0.2500000   0.2500000   0.2500000  )

     number of k points=    47
                       cart. coord. in units 2pi/alat
        k(    1) = (   0.0000000   0.0000000   0.0000000), wk =   0.0020000
        k(    2) = (  -0.1000000   0.1000000  -0.1000000), wk =   0.0160000
        k(    3) = (  -0.2000000   0.2000000  -0.2000000), wk =   0.0160000
        k(    4) = (  -0.3000000   0.3000000  -0.3000000), wk =   0.0160000
        k(    5) = (  -0.4000000   0.4000000  -0.4000000), wk =   0.0160000
        k(    6) = (   0.5000000  -0.5000000   0.5000000), wk =   0.0080000
        k(    7) = (   0.0000000   0.2000000   0.0000000), wk =   0.0120000
        k(    8) = (  -0.1000000   0.3000000  -0.1000000), wk =   0.0480000
        k(    9) = (  -0.2000000   0.4000000  -0.2000000), wk =   0.0480000
        k(   10) = (  -0.3000000   0.5000000  -0.3000000), wk =   0.0480000
        k(   11) = (   0.6000000  -0.4000000   0.6000000), wk =   0.0480000
        k(   12) = (   0.5000000  -0.3000000   0.5000000), wk =   0.0480000
        k(   13) = (   0.4000000  -0.2000000   0.4000000), wk =   0.0480000
        k(   14) = (   0.3000000  -0.1000000   0.3000000), wk =   0.0480000
        k(   15) = (   0.2000000   0.0000000   0.2000000), wk =   0.0240000
        k(   16) = (   0.0000000   0.4000000   0.0000000), wk =   0.0120000
        k(   17) = (  -0.1000000   0.5000000  -0.1000000), wk =   0.0480000
        k(   18) = (  -0.2000000   0.6000000  -0.2000000), wk =   0.0480000
        k(   19) = (   0.7000000  -0.3000000   0.7000000), wk =   0.0480000
        k(   20) = (   0.6000000  -0.2000000   0.6000000), wk =   0.0480000
        k(   21) = (   0.5000000  -0.1000000   0.5000000), wk =   0.0480000
        k(   22) = (   0.4000000   0.0000000   0.4000000), wk =   0.0240000
        k(   23) = (   0.0000000   0.6000000   0.0000000), wk =   0.0120000
        k(   24) = (  -0.1000000   0.7000000  -0.1000000), wk =   0.0480000
        k(   25) = (   0.8000000  -0.2000000   0.8000000), wk =   0.0480000
        k(   26) = (   0.7000000  -0.1000000   0.7000000), wk =   0.0480000
        k(   27) = (   0.6000000  -0.0000000   0.6000000), wk =   0.0240000
        k(   28) = (   0.0000000   0.8000000   0.0000000), wk =   0.0120000
        k(   29) = (   0.9000000  -0.1000000   0.9000000), wk =   0.0480000
        k(   30) = (   0.8000000   0.0000000   0.8000000), wk =   0.0240000
        k(   31) = (   0.0000000  -1.0000000   0.0000000), wk =   0.0060000
        k(   32) = (  -0.2000000   0.4000000   0.0000000), wk =   0.0480000
        k(   33) = (  -0.3000000   0.5000000  -0.1000000), wk =   0.0960000
        k(   34) = (   0.6000000  -0.4000000   0.8000000), wk =   0.0960000
        k(   35) = (   0.5000000  -0.3000000   0.7000000), wk =   0.0480000
        k(   36) = (  -0.2000000   0.6000000   0.0000000), wk =   0.0480000
        k(   37) = (   0.7000000  -0.3000000   0.9000000), wk =   0.0960000
        k(   38) = (   0.6000000  -0.2000000   0.8000000), wk =   0.0960000
        k(   39) = (   0.5000000  -0.1000000   0.7000000), wk =   0.0960000
        k(   40) = (   0.4000000   0.0000000   0.6000000), wk =   0.0480000
        k(   41) = (   0.8000000  -0.2000000   1.0000000), wk =   0.0480000
        k(   42) = (   0.7000000  -0.1000000   0.9000000), wk =   0.0960000
        k(   43) = (   0.6000000   0.0000000   0.8000000), wk =   0.0480000
        k(   44) = (  -0.2000000  -1.0000000   0.0000000), wk =   0.0240000
        k(   45) = (   0.6000000  -0.2000000   1.0000000), wk =   0.0480000
        k(   46) = (   0.5000000  -0.1000000   0.9000000), wk =   0.0480000
        k(   47) = (  -0.4000000  -1.0000000   0.0000000), wk =   0.0240000

     Dense  grid:     5961 G-vectors     FFT dimensions: (  25,  25,  25)

     Estimated max dynamical RAM per process >      11.16 MB

     WARNING: libxc functional with ID  263 depends
      on external parameters: check the user_guide of
      QE if you need to modify them or to check their
      default values.

     Initial potential from superposition of free atoms

     starting charge       7.9995, renormalised to       8.0000
     Starting wfcs are   13 randomized atomic wfcs

     total cpu time spent up to now is        1.9 secs

     Self-consistent Calculation

     iteration #  1     ecut=    50.00 Ry     beta= 0.20
     Davidson diagonalization with overlap
     ethr =  1.00E-02,  avg # of iterations =  2.0

     total cpu time spent up to now is        3.8 secs

     total energy              =     -19.36324872 Ry
     estimated scf accuracy    <       2.44040655 Ry

     iteration #  2     ecut=    50.00 Ry     beta= 0.20
     Davidson diagonalization with overlap
     ethr =  1.00E-02,  avg # of iterations =  1.0

     total cpu time spent up to now is        5.3 secs

     total energy              =     -19.21232955 Ry
     estimated scf accuracy    <       1.51308474 Ry

     iteration #  3     ecut=    50.00 Ry     beta= 0.20
     Davidson diagonalization with overlap
     ethr =  1.00E-02,  avg # of iterations =  1.1

     total cpu time spent up to now is        6.7 secs

     total energy              =     -19.27637299 Ry
     estimated scf accuracy    <       0.04601834 Ry

     iteration #  4     ecut=    50.00 Ry     beta= 0.20
     Davidson diagonalization with overlap
     ethr =  5.75E-04,  avg # of iterations =  2.0

     total cpu time spent up to now is        8.7 secs

     total energy              =     -19.28592421 Ry
     estimated scf accuracy    <       0.01974582 Ry

     iteration #  5     ecut=    50.00 Ry     beta= 0.20
     Davidson diagonalization with overlap
     ethr =  2.47E-04,  avg # of iterations =  1.0

     total cpu time spent up to now is       10.2 secs

     total energy              =     -19.28423187 Ry
     estimated scf accuracy    <       0.03802718 Ry

     iteration #  6     ecut=    50.00 Ry     beta= 0.20
     Davidson diagonalization with overlap
     ethr =  2.47E-04,  avg # of iterations =  1.6

     total cpu time spent up to now is       11.7 secs

     total energy              =     -19.28589773 Ry
     estimated scf accuracy    <       0.00284484 Ry

     iteration #  7     ecut=    50.00 Ry     beta= 0.20
     Davidson diagonalization with overlap
     ethr =  3.56E-05,  avg # of iterations =  1.2

     total cpu time spent up to now is       13.2 secs

     total energy              =     -19.28609230 Ry
     estimated scf accuracy    <       0.00314274 Ry

     iteration #  8     ecut=    50.00 Ry     beta= 0.20
     Davidson diagonalization with overlap
     ethr =  3.56E-05,  avg # of iterations =  1.0

     total cpu time spent up to now is       14.7 secs

     total energy              =     -19.28617046 Ry
     estimated scf accuracy    <       0.00007887 Ry

     iteration #  9     ecut=    50.00 Ry     beta= 0.20
     Davidson diagonalization with overlap
     ethr =  9.86E-07,  avg # of iterations =  2.0

     total cpu time spent up to now is       16.6 secs

     total energy              =     -19.28618238 Ry
     estimated scf accuracy    <       0.00028562 Ry

     iteration # 10     ecut=    50.00 Ry     beta= 0.20
     Davidson diagonalization with overlap
     ethr =  9.86E-07,  avg # of iterations =  1.0

     total cpu time spent up to now is       17.7 secs

     total energy              =     -19.28617408 Ry
     estimated scf accuracy    <       0.00015208 Ry

     iteration # 11     ecut=    50.00 Ry     beta= 0.20
     Davidson diagonalization with overlap
     ethr =  9.86E-07,  avg # of iterations =  1.0

     total cpu time spent up to now is       19.0 secs

     End of self-consistent calculation

          k = 0.0000 0.0000 0.0000 (   725 PWs)   bands (ev):

    -6.3285  10.7455  10.7455  10.7455

          k =-0.1000 0.1000-0.1000 (   737 PWs)   bands (ev):

    -6.1076   9.6834  10.6001  10.6001

          k =-0.2000 0.2000-0.2000 (   751 PWs)   bands (ev):

    -5.4540   7.3732  10.2684  10.2684

          k =-0.3000 0.3000-0.3000 (   757 PWs)   bands (ev):

    -4.4070   4.8055   9.9259   9.9259

          k =-0.4000 0.4000-0.4000 (   763 PWs)   bands (ev):

    -3.1054   2.4995   9.6857   9.6857

          k = 0.5000-0.5000 0.5000 (   754 PWs)   bands (ev):

    -2.2645   1.3118   9.6037   9.6037

          k = 0.0000 0.2000 0.0000 (   737 PWs)   bands (ev):

    -6.0339   9.9976  10.2219  10.2219

          k =-0.1000 0.3000-0.1000 (   752 PWs)   bands (ev):

    -5.5243   8.1804   9.7448  10.0976

          k =-0.2000 0.4000-0.2000 (   752 PWs)   bands (ev):

    -4.6057   5.7406   9.3732   9.7143

          k =-0.3000 0.5000-0.3000 (   750 PWs)   bands (ev):

    -3.3675   3.3539   9.2073   9.2313

          k = 0.6000-0.4000 0.6000 (   747 PWs)   bands (ev):

    -2.2216   1.6535   8.8278   9.2754

          k = 0.5000-0.3000 0.5000 (   745 PWs)   bands (ev):

    -2.5285   2.0744   8.6120   9.5536

          k = 0.4000-0.2000 0.4000 (   754 PWs)   bands (ev):

    -3.8056   4.1173   8.6404   9.9698

          k = 0.3000-0.1000 0.3000 (   745 PWs)   bands (ev):

    -4.9551   6.5526   8.9547  10.4038

          k = 0.2000 0.0000 0.2000 (   747 PWs)   bands (ev):

    -5.7422   8.6788   9.6517  10.6695

          k = 0.0000 0.4000 0.0000 (   745 PWs)   bands (ev):

    -5.1622   8.2955   9.1368   9.1368

          k =-0.1000 0.5000-0.1000 (   742 PWs)   bands (ev):

    -4.3863   6.5643   8.6733   8.6983

          k =-0.2000 0.6000-0.2000 (   750 PWs)   bands (ev):

    -3.2608   4.4093   7.9573   8.4666

          k = 0.7000-0.3000 0.7000 (   744 PWs)   bands (ev):

    -2.0339   2.5471   7.2094   8.5533

          k = 0.6000-0.2000 0.6000 (   747 PWs)   bands (ev):

    -1.7611   2.1927   6.7021   8.9151

          k = 0.5000-0.1000 0.5000 (   751 PWs)   bands (ev):

    -2.8560   3.7511   6.5872   9.4727

          k = 0.4000 0.0000 0.4000 (   746 PWs)   bands (ev):

    -4.0572   5.5588   7.2213  10.0597

          k = 0.0000 0.6000 0.0000 (   745 PWs)   bands (ev):

    -3.7603   6.1678   8.1072   8.1072

          k =-0.1000 0.7000-0.1000 (   752 PWs)   bands (ev):

    -2.7797   4.8006   7.2512   7.8133

          k = 0.8000-0.2000 0.8000 (   746 PWs)   bands (ev):

    -1.6256   3.4201   5.9296   7.8404

          k = 0.7000-0.1000 0.7000 (   735 PWs)   bands (ev):

    -1.0086   2.8155   4.9377   8.1821

          k = 0.6000-0.0000 0.6000 (   740 PWs)   bands (ev):

    -1.7229   3.4737   4.9078   8.7772

          k = 0.0000 0.8000 0.0000 (   749 PWs)   bands (ev):

    -1.9753   3.8552   7.4204   7.4204

          k = 0.9000-0.1000 0.9000 (   745 PWs)   bands (ev):

    -1.0481   2.9227   6.4666   7.3529

          k = 0.8000 0.0000 0.8000 (   746 PWs)   bands (ev):

    -0.6047   2.8364   4.9719   7.6184

          k = 0.0000-1.0000 0.0000 (   740 PWs)   bands (ev):

    -0.6929   2.3705   7.1826   7.1826

          k =-0.2000 0.4000 0.0000 (   752 PWs)   bands (ev):

    -4.8810   7.0714   8.4926   9.9232

          k =-0.3000 0.5000-0.1000 (   754 PWs)   bands (ev):

    -3.8543   5.0730   7.7641   9.4751

          k = 0.6000-0.4000 0.8000 (   752 PWs)   bands (ev):

    -2.5909   2.9674   7.5405   8.9616

          k = 0.5000-0.3000 0.7000 (   746 PWs)   bands (ev):

    -1.7935   1.8626   7.5118   8.7305

          k =-0.2000 0.6000 0.0000 (   750 PWs)   bands (ev):

    -3.5037   5.5015   7.4072   8.4028

          k = 0.7000-0.3000 0.9000 (   742 PWs)   bands (ev):

    -2.3387   3.9411   6.5646   7.8485

          k = 0.6000-0.2000 0.8000 (   737 PWs)   bands (ev):

    -1.3249   2.6456   5.9504   7.7572

          k = 0.5000-0.1000 0.7000 (   745 PWs)   bands (ev):

    -1.6098   3.0192   5.6220   8.1663

          k = 0.4000 0.0000 0.6000 (   748 PWs)   bands (ev):

    -2.7716   4.3397   6.0669   8.8522

          k = 0.8000-0.2000 1.0000 (   743 PWs)   bands (ev):

    -1.7793   3.8112   6.6926   7.0297

          k = 0.7000-0.1000 0.9000 (   743 PWs)   bands (ev):

    -0.8424   3.1218   5.3187   6.9401

          k = 0.6000 0.0000 0.8000 (   740 PWs)   bands (ev):

    -0.7812   3.2373   4.4464   7.3984

          k =-0.2000-1.0000 0.0000 (   746 PWs)   bands (ev):

    -0.6036   2.6195   6.4835   6.4987

          k = 0.6000-0.2000 1.0000 (   737 PWs)   bands (ev):

    -1.2793   3.5418   5.3616   6.8755

          k = 0.5000-0.1000 0.9000 (   738 PWs)   bands (ev):

    -0.6961   3.1976   4.9751   6.4314

          k =-0.4000-1.0000 0.0000 (   746 PWs)   bands (ev):

    -0.4451   3.2312   5.3163   5.6237

     highest occupied level (ev):    10.7455

!    total energy              =     -19.28617838 Ry
     estimated scf accuracy    <       0.00000352 Ry

     The total energy is the sum of the following terms:
     one-electron contribution =       6.40607221 Ry
     hartree contribution      =       2.29408596 Ry
     xc contribution           =      -6.26770212 Ry
     ewald contribution        =     -21.71863443 Ry

     convergence has been achieved in  11 iterations
     Writing meta-gga kinetic term

     Writing all to output data dir ./input_pw/SiC/5/pwscf.save/
     Writing meta-gga kinetic term
 
     init_run     :      0.98s CPU      1.79s WALL (       1 calls)
     electrons    :      8.72s CPU     17.09s WALL (       1 calls)

     Called by init_run:
     wfcinit      :      0.87s CPU      1.44s WALL (       1 calls)
     potinit      :      0.01s CPU      0.03s WALL (       1 calls)
     hinit0       :      0.09s CPU      0.29s WALL (       1 calls)

     Called by electrons:
     c_bands      :      6.92s CPU     13.55s WALL (      11 calls)
     sum_band     :      1.62s CPU      3.17s WALL (      11 calls)
     v_of_rho     :      0.12s CPU      0.25s WALL (      12 calls)
     mix_rho      :      0.07s CPU      0.13s WALL (      11 calls)

     Called by c_bands:
     init_us_2    :      0.10s CPU      0.20s WALL (    1081 calls)
     init_us_2:cp :      0.10s CPU      0.20s WALL (    1081 calls)
     cegterg      :      6.82s CPU     13.36s WALL (     517 calls)

     Called by *egterg:
     cdiaghg      :      0.05s CPU      0.06s WALL (    1219 calls)
     h_psi        :      7.48s CPU     14.45s WALL (    1266 calls)
     g_psi        :      0.01s CPU      0.01s WALL (     702 calls)

     Called by h_psi:
     h_psi:calbec :      0.03s CPU      0.04s WALL (    1266 calls)
     vloc_psi     :      1.83s CPU      3.53s WALL (    1266 calls)
     add_vuspsi   :      0.03s CPU      0.09s WALL (    1266 calls)
     h_psi_meta   :      5.57s CPU     10.75s WALL (    1266 calls)

     General routines
     calbec       :      0.02s CPU      0.04s WALL (    1266 calls)
     fft          :      0.02s CPU      0.07s WALL (     141 calls)
     ffts         :      0.03s CPU      0.08s WALL (     202 calls)
     fftw         :      7.99s CPU     15.53s WALL (   50432 calls)
     interpolate  :      0.00s CPU      0.00s WALL (      12 calls)
 
     Parallel routines
 
     PWSCF        :      9.75s CPU     19.01s WALL

 
   This run was terminated on:  14:31:16   7Jul2023            

=------------------------------------------------------------------------------=
   JOB DONE.
=------------------------------------------------------------------------------=
