
     Program PWSCF v.7.0 starts on 14Mar2023 at 12: 2:31 

     This program is part of the open-source Quantum ESPRESSO suite
     for quantum simulation of materials; please cite
         "P. Giannozzi et al., J. Phys.:Condens. Matter 21 395502 (2009);
         "P. Giannozzi et al., J. Phys.:Condens. Matter 29 465901 (2017);
         "P. Giannozzi et al., J. Chem. Phys. 152 154105 (2020);
          URL http://www.quantum-espresso.org", 
     in publications or presentations arising from this work. More details at
     http://www.quantum-espresso.org/quote

     Parallel version (MPI), running on     1 processors

     MPI processes distributed on     1 nodes
     27015 MiB available memory on the printing compute node when the environment starts
 
     Waiting for input...
     Reading input from standard input
Warning: card &CELL ignored
Warning: card / ignored

     Current dimensions of program PWSCF are:
     Max number of different atomic species (ntypx) = 10
     Max number of k-points (npk) =  40000
     Max angular momentum in pseudopotentials (lmaxx) =  4
     file Si.SCAN.UPF2: wavefunction(s)  0D renormalized

     WARNING: the MGGA functional with ID    5 has been 
     read together with other dft terms, but it should 
     stand alone in order to work properly. The other 
     terms will be ignored.

     WARNING: the MGGA functional with ID    5 has been 
     read together with other dft terms, but it should 
     stand alone in order to work properly. The other 
     terms will be ignored.

     Subspace diagonalization in iterative solution of the eigenvalue problem:
     a serial algorithm will be used

 
     G-vector sticks info
     --------------------
     sticks:   dense  smooth     PW     G-vecs:    dense   smooth      PW
     Sum         475     475    151                 6855     6855    1243
 
     Using Slab Decomposition
 


     bravais-lattice index     =            2
     lattice parameter (alat)  =       8.3110  a.u.
     unit-cell volume          =     143.5158 (a.u.)^3
     number of atoms/cell      =            2
     number of atomic types    =            2
     number of electrons       =         8.00
     number of Kohn-Sham states=            4
     kinetic-energy cutoff     =      50.0000  Ry
     charge density cutoff     =     200.0000  Ry
     scf convergence threshold =      1.0E-06
     mixing beta               =       0.0100
     number of iterations used =            8  local-TF  mixing
     Exchange-correlation= SLA  PW   SCAN SCAN
                           (   0   0   0   0   0 263 267)

     celldm(1)=   8.311000  celldm(2)=   0.000000  celldm(3)=   0.000000
     celldm(4)=   0.000000  celldm(5)=   0.000000  celldm(6)=   0.000000

     crystal axes: (cart. coord. in units of alat)
               a(1) = (  -0.500000   0.000000   0.500000 )  
               a(2) = (   0.000000   0.500000   0.500000 )  
               a(3) = (  -0.500000   0.500000   0.000000 )  

     reciprocal axes: (cart. coord. in units 2 pi/alat)
               b(1) = ( -1.000000 -1.000000  1.000000 )  
               b(2) = (  1.000000  1.000000  1.000000 )  
               b(3) = ( -1.000000  1.000000 -1.000000 )  


     PseudoPot. # 1 for Si read from file:
     ~/Documents/TA/PWDFT.jl/pseudopotentials/scan_upf/Si.SCAN.UPF2
     MD5 check sum: Not computed, couldn't open file
     Pseudo is Norm-conserving, Zval =  4.0
     Generated by new atomic code, or converted to UPF format
     Using radial grid of 1475 points,  2 beta functions with: 
                l(1) =   0
                l(2) =   1

     PseudoPot. # 2 for C  read from file:
     ~/Documents/TA/PWDFT.jl/pseudopotentials/scan_upf/C.SCAN.UPF2
     MD5 check sum: Not computed, couldn't open file
     Pseudo is Norm-conserving, Zval =  4.0
     Generated by new atomic code, or converted to UPF format
     Using radial grid of 1389 points,  1 beta functions with: 
                l(1) =   0

     atomic species   valence    mass     pseudopotential
        Si             4.00    28.08550     Si( 1.00)
        C              4.00    12.01100     C ( 1.00)

     24 Sym. Ops. (no inversion) found



   Cartesian axes

     site n.     atom                  positions (alat units)
         1           Si  tau(   1) = (   0.0000000   0.0000000   0.0000000  )
         2           C   tau(   2) = (   0.2500000   0.2500000   0.2500000  )

     number of k points=    47
                       cart. coord. in units 2pi/alat
        k(    1) = (   0.0000000   0.0000000   0.0000000), wk =   0.0020000
        k(    2) = (  -0.1000000   0.1000000  -0.1000000), wk =   0.0160000
        k(    3) = (  -0.2000000   0.2000000  -0.2000000), wk =   0.0160000
        k(    4) = (  -0.3000000   0.3000000  -0.3000000), wk =   0.0160000
        k(    5) = (  -0.4000000   0.4000000  -0.4000000), wk =   0.0160000
        k(    6) = (   0.5000000  -0.5000000   0.5000000), wk =   0.0080000
        k(    7) = (   0.0000000   0.2000000   0.0000000), wk =   0.0120000
        k(    8) = (  -0.1000000   0.3000000  -0.1000000), wk =   0.0480000
        k(    9) = (  -0.2000000   0.4000000  -0.2000000), wk =   0.0480000
        k(   10) = (  -0.3000000   0.5000000  -0.3000000), wk =   0.0480000
        k(   11) = (   0.6000000  -0.4000000   0.6000000), wk =   0.0480000
        k(   12) = (   0.5000000  -0.3000000   0.5000000), wk =   0.0480000
        k(   13) = (   0.4000000  -0.2000000   0.4000000), wk =   0.0480000
        k(   14) = (   0.3000000  -0.1000000   0.3000000), wk =   0.0480000
        k(   15) = (   0.2000000   0.0000000   0.2000000), wk =   0.0240000
        k(   16) = (   0.0000000   0.4000000   0.0000000), wk =   0.0120000
        k(   17) = (  -0.1000000   0.5000000  -0.1000000), wk =   0.0480000
        k(   18) = (  -0.2000000   0.6000000  -0.2000000), wk =   0.0480000
        k(   19) = (   0.7000000  -0.3000000   0.7000000), wk =   0.0480000
        k(   20) = (   0.6000000  -0.2000000   0.6000000), wk =   0.0480000
        k(   21) = (   0.5000000  -0.1000000   0.5000000), wk =   0.0480000
        k(   22) = (   0.4000000   0.0000000   0.4000000), wk =   0.0240000
        k(   23) = (   0.0000000   0.6000000   0.0000000), wk =   0.0120000
        k(   24) = (  -0.1000000   0.7000000  -0.1000000), wk =   0.0480000
        k(   25) = (   0.8000000  -0.2000000   0.8000000), wk =   0.0480000
        k(   26) = (   0.7000000  -0.1000000   0.7000000), wk =   0.0480000
        k(   27) = (   0.6000000  -0.0000000   0.6000000), wk =   0.0240000
        k(   28) = (   0.0000000   0.8000000   0.0000000), wk =   0.0120000
        k(   29) = (   0.9000000  -0.1000000   0.9000000), wk =   0.0480000
        k(   30) = (   0.8000000   0.0000000   0.8000000), wk =   0.0240000
        k(   31) = (   0.0000000  -1.0000000   0.0000000), wk =   0.0060000
        k(   32) = (  -0.2000000   0.4000000   0.0000000), wk =   0.0480000
        k(   33) = (  -0.3000000   0.5000000  -0.1000000), wk =   0.0960000
        k(   34) = (   0.6000000  -0.4000000   0.8000000), wk =   0.0960000
        k(   35) = (   0.5000000  -0.3000000   0.7000000), wk =   0.0480000
        k(   36) = (  -0.2000000   0.6000000   0.0000000), wk =   0.0480000
        k(   37) = (   0.7000000  -0.3000000   0.9000000), wk =   0.0960000
        k(   38) = (   0.6000000  -0.2000000   0.8000000), wk =   0.0960000
        k(   39) = (   0.5000000  -0.1000000   0.7000000), wk =   0.0960000
        k(   40) = (   0.4000000   0.0000000   0.6000000), wk =   0.0480000
        k(   41) = (   0.8000000  -0.2000000   1.0000000), wk =   0.0480000
        k(   42) = (   0.7000000  -0.1000000   0.9000000), wk =   0.0960000
        k(   43) = (   0.6000000   0.0000000   0.8000000), wk =   0.0480000
        k(   44) = (  -0.2000000  -1.0000000   0.0000000), wk =   0.0240000
        k(   45) = (   0.6000000  -0.2000000   1.0000000), wk =   0.0480000
        k(   46) = (   0.5000000  -0.1000000   0.9000000), wk =   0.0480000
        k(   47) = (  -0.4000000  -1.0000000   0.0000000), wk =   0.0240000

     Dense  grid:     6855 G-vectors     FFT dimensions: (  27,  27,  27)

     Estimated max dynamical RAM per process >      13.00 MB

     WARNING: libxc functional with ID  263 depends
      on external parameters: check the user_guide of
      QE if you need to modify them or to check their
      default values.

     Initial potential from superposition of free atoms

     starting charge       7.9995, renormalised to       8.0000
     Starting wfcs are   13 randomized atomic wfcs

     total cpu time spent up to now is        3.5 secs

     Self-consistent Calculation

     iteration #  1     ecut=    50.00 Ry     beta= 0.01
     Davidson diagonalization with overlap
     ethr =  1.00E-02,  avg # of iterations =  2.0

     total cpu time spent up to now is        6.6 secs

     total energy              =     -19.32985034 Ry
     estimated scf accuracy    <       2.08678802 Ry

     iteration #  2     ecut=    50.00 Ry     beta= 0.01
     Davidson diagonalization with overlap
     ethr =  1.00E-02,  avg # of iterations =  1.0

     total cpu time spent up to now is        8.9 secs

     total energy              =     -19.23223350 Ry
     estimated scf accuracy    <       2.04579640 Ry

     iteration #  3     ecut=    50.00 Ry     beta= 0.01
     Davidson diagonalization with overlap
     ethr =  1.00E-02,  avg # of iterations =  1.0

     total cpu time spent up to now is       11.2 secs

     total energy              =     -19.28397783 Ry
     estimated scf accuracy    <       0.02916220 Ry

     iteration #  4     ecut=    50.00 Ry     beta= 0.01
     Davidson diagonalization with overlap
     ethr =  3.65E-04,  avg # of iterations =  2.0

     total cpu time spent up to now is       14.3 secs

     total energy              =     -19.28907554 Ry
     estimated scf accuracy    <       0.03612562 Ry

     iteration #  5     ecut=    50.00 Ry     beta= 0.01
     Davidson diagonalization with overlap
     ethr =  3.65E-04,  avg # of iterations =  1.0

     total cpu time spent up to now is       16.8 secs

     total energy              =     -19.28991032 Ry
     estimated scf accuracy    <       0.07407437 Ry

     iteration #  6     ecut=    50.00 Ry     beta= 0.01
     Davidson diagonalization with overlap
     ethr =  3.65E-04,  avg # of iterations =  1.0

     total cpu time spent up to now is       19.1 secs

     total energy              =     -19.29520304 Ry
     estimated scf accuracy    <       0.08613272 Ry

     iteration #  7     ecut=    50.00 Ry     beta= 0.01
     Davidson diagonalization with overlap
     ethr =  3.65E-04,  avg # of iterations =  1.2

     total cpu time spent up to now is       21.7 secs

     total energy              =     -19.29718681 Ry
     estimated scf accuracy    <       0.02759592 Ry

     iteration #  8     ecut=    50.00 Ry     beta= 0.01
     Davidson diagonalization with overlap
     ethr =  3.45E-04,  avg # of iterations =  1.0

     total cpu time spent up to now is       24.0 secs

     total energy              =     -19.29740831 Ry
     estimated scf accuracy    <       0.00994807 Ry

     iteration #  9     ecut=    50.00 Ry     beta= 0.01
     Davidson diagonalization with overlap
     ethr =  1.24E-04,  avg # of iterations =  1.0

     total cpu time spent up to now is       26.8 secs

     total energy              =     -19.29691314 Ry
     estimated scf accuracy    <       0.01126405 Ry

     iteration # 10     ecut=    50.00 Ry     beta= 0.01
     Davidson diagonalization with overlap
     ethr =  1.24E-04,  avg # of iterations =  1.0

     total cpu time spent up to now is       29.3 secs

     total energy              =     -19.29641446 Ry
     estimated scf accuracy    <       0.00236442 Ry

     iteration # 11     ecut=    50.00 Ry     beta= 0.01
     Davidson diagonalization with overlap
     ethr =  2.96E-05,  avg # of iterations =  2.0

     total cpu time spent up to now is       32.9 secs

     total energy              =     -19.29681993 Ry
     estimated scf accuracy    <       0.00015254 Ry

     iteration # 12     ecut=    50.00 Ry     beta= 0.01
     Davidson diagonalization with overlap
     ethr =  1.91E-06,  avg # of iterations =  2.0

     total cpu time spent up to now is       36.3 secs

     total energy              =     -19.29685008 Ry
     estimated scf accuracy    <       0.00038917 Ry

     iteration # 13     ecut=    50.00 Ry     beta= 0.01
     Davidson diagonalization with overlap
     ethr =  1.91E-06,  avg # of iterations =  1.0

     total cpu time spent up to now is       38.8 secs

     total energy              =     -19.29685654 Ry
     estimated scf accuracy    <       0.00043865 Ry

     iteration # 14     ecut=    50.00 Ry     beta= 0.01
     Davidson diagonalization with overlap
     ethr =  1.91E-06,  avg # of iterations =  1.0

     total cpu time spent up to now is       41.3 secs

     total energy              =     -19.29679409 Ry
     estimated scf accuracy    <       0.00052405 Ry

     iteration # 15     ecut=    50.00 Ry     beta= 0.01
     Davidson diagonalization with overlap
     ethr =  1.91E-06,  avg # of iterations =  2.0

     total cpu time spent up to now is       44.4 secs

     total energy              =     -19.29681961 Ry
     estimated scf accuracy    <       0.00002010 Ry

     iteration # 16     ecut=    50.00 Ry     beta= 0.01
     Davidson diagonalization with overlap
     ethr =  2.51E-07,  avg # of iterations =  2.9

     total cpu time spent up to now is       47.7 secs

     total energy              =     -19.29683120 Ry
     estimated scf accuracy    <       0.00002256 Ry

     iteration # 17     ecut=    50.00 Ry     beta= 0.01
     Davidson diagonalization with overlap
     ethr =  2.51E-07,  avg # of iterations =  1.0

     total cpu time spent up to now is       49.6 secs

     total energy              =     -19.29682592 Ry
     estimated scf accuracy    <       0.00003907 Ry

     iteration # 18     ecut=    50.00 Ry     beta= 0.01
     Davidson diagonalization with overlap
     ethr =  2.51E-07,  avg # of iterations =  1.0

     total cpu time spent up to now is       51.8 secs

     total energy              =     -19.29682655 Ry
     estimated scf accuracy    <       0.00000942 Ry

     iteration # 19     ecut=    50.00 Ry     beta= 0.01
     Davidson diagonalization with overlap
     ethr =  1.18E-07,  avg # of iterations =  2.0

     total cpu time spent up to now is       54.9 secs

     total energy              =     -19.29682796 Ry
     estimated scf accuracy    <       0.00000275 Ry

     iteration # 20     ecut=    50.00 Ry     beta= 0.01
     Davidson diagonalization with overlap
     ethr =  3.43E-08,  avg # of iterations =  1.0

     total cpu time spent up to now is       57.3 secs

     total energy              =     -19.29682789 Ry
     estimated scf accuracy    <       0.00000310 Ry

     iteration # 21     ecut=    50.00 Ry     beta= 0.01
     Davidson diagonalization with overlap
     ethr =  3.43E-08,  avg # of iterations =  1.0

     total cpu time spent up to now is       59.4 secs

     total energy              =     -19.29682772 Ry
     estimated scf accuracy    <       0.00000221 Ry

     iteration # 22     ecut=    50.00 Ry     beta= 0.01
     Davidson diagonalization with overlap
     ethr =  2.76E-08,  avg # of iterations =  1.0

     total cpu time spent up to now is       61.2 secs

     total energy              =     -19.29682775 Ry
     estimated scf accuracy    <       0.00000138 Ry

     iteration # 23     ecut=    50.00 Ry     beta= 0.01
     Davidson diagonalization with overlap
     ethr =  1.73E-08,  avg # of iterations =  1.0

     total cpu time spent up to now is       63.0 secs

     total energy              =     -19.29682760 Ry
     estimated scf accuracy    <       0.00000130 Ry

     iteration # 24     ecut=    50.00 Ry     beta= 0.01
     Davidson diagonalization with overlap
     ethr =  1.62E-08,  avg # of iterations =  1.0

     total cpu time spent up to now is       65.0 secs

     End of self-consistent calculation

          k = 0.0000 0.0000 0.0000 (   869 PWs)   bands (ev):

    -6.9695   8.9677   8.9677   8.9677

          k =-0.1000 0.1000-0.1000 (   881 PWs)   bands (ev):

    -6.7715   7.9291   8.8264   8.8264

          k =-0.2000 0.2000-0.2000 (   872 PWs)   bands (ev):

    -6.1872   5.7586   8.5065   8.5065

          k =-0.3000 0.3000-0.3000 (   863 PWs)   bands (ev):

    -5.2586   3.4027   8.1769   8.1769

          k =-0.4000 0.4000-0.4000 (   866 PWs)   bands (ev):

    -4.1319   1.3401   7.9460   7.9460

          k = 0.5000-0.5000 0.5000 (   862 PWs)   bands (ev):

    -3.4469   0.3328   7.8658   7.8658

          k = 0.0000 0.2000 0.0000 (   889 PWs)   bands (ev):

    -6.7054   8.1759   8.4805   8.4805

          k =-0.1000 0.3000-0.1000 (   866 PWs)   bands (ev):

    -6.2493   6.4866   8.0390   8.3215

          k =-0.2000 0.4000-0.2000 (   864 PWs)   bands (ev):

    -5.4320   4.2391   7.6864   7.9397

          k =-0.3000 0.5000-0.3000 (   854 PWs)   bands (ev):

    -4.3486   2.0869   7.4850   7.5237

          k = 0.6000-0.4000 0.6000 (   857 PWs)   bands (ev):

    -3.3947   0.6187   7.1166   7.5740

          k = 0.5000-0.3000 0.5000 (   862 PWs)   bands (ev):

    -3.6421   0.9722   6.9290   7.8202

          k = 0.4000-0.2000 0.4000 (   857 PWs)   bands (ev):

    -4.7288   2.7704   6.9767   8.2042

          k = 0.3000-0.1000 0.3000 (   865 PWs)   bands (ev):

    -5.7424   4.9805   7.2873   8.6114

          k = 0.2000 0.0000 0.2000 (   875 PWs)   bands (ev):

    -6.4443   6.9533   7.9524   8.8750

          k = 0.0000 0.4000 0.0000 (   869 PWs)   bands (ev):

    -5.9250   6.4772   7.4821   7.4821

          k =-0.1000 0.5000-0.1000 (   860 PWs)   bands (ev):

    -5.2337   4.9087   7.0201   7.0535

          k =-0.2000 0.6000-0.2000 (   853 PWs)   bands (ev):

    -4.2431   2.9795   6.3136   6.8599

          k = 0.7000-0.3000 0.7000 (   858 PWs)   bands (ev):

    -3.2017   1.3594   5.6278   6.9290

          k = 0.6000-0.2000 0.6000 (   857 PWs)   bands (ev):

    -2.9849   1.0712   5.1801   7.2493

          k = 0.5000-0.1000 0.5000 (   854 PWs)   bands (ev):

    -3.8978   2.4077   5.1050   7.7515

          k = 0.4000 0.0000 0.4000 (   857 PWs)   bands (ev):

    -4.9462   4.0205   5.7159   8.2862

          k = 0.0000 0.6000 0.0000 (   853 PWs)   bands (ev):

    -4.6754   4.4453   6.5396   6.5396

          k =-0.1000 0.7000-0.1000 (   851 PWs)   bands (ev):

    -3.8112   3.2046   5.7617   6.2688

          k = 0.8000-0.2000 0.8000 (   851 PWs)   bands (ev):

    -2.8232   1.9989   4.5756   6.2879

          k = 0.7000-0.1000 0.7000 (   857 PWs)   bands (ev):

    -2.3310   1.5152   3.6904   6.5897

          k = 0.6000-0.0000 0.6000 (   859 PWs)   bands (ev):

    -2.9259   2.0775   3.6705   7.1233

          k = 0.0000 0.8000 0.0000 (   850 PWs)   bands (ev):

    -3.1050   2.3407   5.9105   5.9105

          k = 0.9000-0.1000 0.9000 (   850 PWs)   bands (ev):

    -2.3189   1.5218   5.0800   5.8472

          k = 0.8000 0.0000 0.8000 (   856 PWs)   bands (ev):

    -1.9711   1.4323   3.8090   6.0855

          k = 0.0000-1.0000 0.0000 (   846 PWs)   bands (ev):

    -2.0255   1.0644   5.6920   5.6920

          k =-0.2000 0.4000 0.0000 (   858 PWs)   bands (ev):

    -5.6751   5.4142   6.8843   8.1596

          k =-0.3000 0.5000-0.1000 (   854 PWs)   bands (ev):

    -4.7664   3.5968   6.1816   7.7494

          k = 0.6000-0.4000 0.8000 (   853 PWs)   bands (ev):

    -3.6749   1.7321   5.9386   7.2944

          k = 0.5000-0.3000 0.7000 (   852 PWs)   bands (ev):

    -3.0246   0.7991   5.8928   7.0956

          k =-0.2000 0.6000 0.0000 (   852 PWs)   bands (ev):

    -4.4516   3.8876   5.8920   6.7918

          k = 0.7000-0.3000 0.9000 (   860 PWs)   bands (ev):

    -3.4383   2.5018   5.0881   6.3163

          k = 0.6000-0.2000 0.8000 (   857 PWs)   bands (ev):

    -2.5982   1.4177   4.5131   6.2362

          k = 0.5000-0.1000 0.7000 (   854 PWs)   bands (ev):

    -2.8330   1.7326   4.2420   6.5918

          k = 0.4000 0.0000 0.6000 (   855 PWs)   bands (ev):

    -3.8184   2.8709   4.6763   7.1957

          k = 0.8000-0.2000 1.0000 (   858 PWs)   bands (ev):

    -2.9430   2.2940   5.2499   5.6035

          k = 0.7000-0.1000 0.9000 (   854 PWs)   bands (ev):

    -2.1645   1.6812   4.0881   5.5069

          k = 0.6000 0.0000 0.8000 (   853 PWs)   bands (ev):

    -2.1325   1.7642   3.3628   5.9107

          k =-0.2000-1.0000 0.0000 (   854 PWs)   bands (ev):

    -1.9577   1.2656   5.0996   5.1045

          k = 0.6000-0.2000 1.0000 (   856 PWs)   bands (ev):

    -2.5355   2.0666   4.0827   5.4751

          k = 0.5000-0.1000 0.9000 (   864 PWs)   bands (ev):

    -2.0582   1.7579   3.7600   5.0902

          k =-0.4000-1.0000 0.0000 (   862 PWs)   bands (ev):

    -1.8400   1.7168   4.1319   4.3746

     highest occupied level (ev):     8.9677

!    total energy              =     -19.29682749 Ry
     estimated scf accuracy    <       0.00000062 Ry

     The total energy is the sum of the following terms:
     one-electron contribution =       5.11848727 Ry
     hartree contribution      =       2.38811609 Ry
     xc contribution           =      -6.06254075 Ry
     ewald contribution        =     -20.74089011 Ry

     convergence has been achieved in  24 iterations
     Writing meta-gga kinetic term

     Writing all to output data dir ./input_pw/SiC/5/pwscf.save/
     Writing meta-gga kinetic term
 
     init_run     :      1.33s CPU      3.42s WALL (       1 calls)
     electrons    :     26.00s CPU     61.57s WALL (       1 calls)

     Called by init_run:
     wfcinit      :      1.22s CPU      3.20s WALL (       1 calls)
     potinit      :      0.02s CPU      0.03s WALL (       1 calls)
     hinit0       :      0.09s CPU      0.18s WALL (       1 calls)

     Called by electrons:
     c_bands      :     20.60s CPU     48.76s WALL (      24 calls)
     sum_band     :      4.86s CPU     11.58s WALL (      24 calls)
     v_of_rho     :      0.30s CPU      0.64s WALL (      25 calls)
     mix_rho      :      0.24s CPU      0.61s WALL (      24 calls)

     Called by c_bands:
     init_us_2    :      0.26s CPU      0.71s WALL (    2303 calls)
     init_us_2:cp :      0.25s CPU      0.71s WALL (    2303 calls)
     cegterg      :     20.35s CPU     48.08s WALL (    1128 calls)

     Called by *egterg:
     cdiaghg      :      0.14s CPU      0.39s WALL (    2636 calls)
     h_psi        :     21.04s CPU     50.07s WALL (    2683 calls)
     g_psi        :      0.02s CPU      0.02s WALL (    1508 calls)

     Called by h_psi:
     h_psi:calbec :      0.07s CPU      0.19s WALL (    2683 calls)
     vloc_psi     :      5.19s CPU     12.76s WALL (    2683 calls)
     add_vuspsi   :      0.07s CPU      0.23s WALL (    2683 calls)
     h_psi_meta   :     15.66s CPU     36.74s WALL (    2683 calls)

     General routines
     calbec       :      0.07s CPU      0.15s WALL (    2683 calls)
     fft          :      0.07s CPU      0.24s WALL (     297 calls)
     ffts         :      0.10s CPU      0.27s WALL (     473 calls)
     fftw         :     22.84s CPU     54.75s WALL (  105008 calls)
     interpolate  :      0.00s CPU      0.00s WALL (      25 calls)
 
     Parallel routines
 
     PWSCF        :     27.38s CPU   1m 5.05s WALL

 
   This run was terminated on:  12: 3:36  14Mar2023            

=------------------------------------------------------------------------------=
   JOB DONE.
=------------------------------------------------------------------------------=
