
     Program PWSCF v.7.0 starts on 29Mar2023 at 12:56: 4 

     This program is part of the open-source Quantum ESPRESSO suite
     for quantum simulation of materials; please cite
         "P. Giannozzi et al., J. Phys.:Condens. Matter 21 395502 (2009);
         "P. Giannozzi et al., J. Phys.:Condens. Matter 29 465901 (2017);
         "P. Giannozzi et al., J. Chem. Phys. 152 154105 (2020);
          URL http://www.quantum-espresso.org", 
     in publications or presentations arising from this work. More details at
     http://www.quantum-espresso.org/quote

     Parallel version (MPI), running on     1 processors

     MPI processes distributed on     1 nodes
     23477 MiB available memory on the printing compute node when the environment starts
 
     Waiting for input...
     Reading input from standard input
Warning: card &CELL ignored
Warning: card / ignored

     Current dimensions of program PWSCF are:
     Max number of different atomic species (ntypx) = 10
     Max number of k-points (npk) =  40000
     Max angular momentum in pseudopotentials (lmaxx) =  4
     file Si.SCAN.UPF2: wavefunction(s)  0D renormalized

     WARNING: the MGGA functional with ID    5 has been 
     read together with other dft terms, but it should 
     stand alone in order to work properly. The other 
     terms will be ignored.

     WARNING: the MGGA functional with ID    5 has been 
     read together with other dft terms, but it should 
     stand alone in order to work properly. The other 
     terms will be ignored.

     Subspace diagonalization in iterative solution of the eigenvalue problem:
     a serial algorithm will be used

 
     G-vector sticks info
     --------------------
     sticks:   dense  smooth     PW     G-vecs:    dense   smooth      PW
     Sum         433     433    151                 5961     5961    1139
 
     Using Slab Decomposition
 


     bravais-lattice index     =            2
     lattice parameter (alat)  =       7.9368  a.u.
     unit-cell volume          =     124.9927 (a.u.)^3
     number of atoms/cell      =            2
     number of atomic types    =            2
     number of electrons       =         8.00
     number of Kohn-Sham states=            4
     kinetic-energy cutoff     =      50.0000  Ry
     charge density cutoff     =     200.0000  Ry
     scf convergence threshold =      1.0E-06
     mixing beta               =       0.0100
     number of iterations used =            8  local-TF  mixing
     Exchange-correlation= SLA  PW   SCAN SCAN
                           (   0   0   0   0   0 263 267)

     celldm(1)=   7.936850  celldm(2)=   0.000000  celldm(3)=   0.000000
     celldm(4)=   0.000000  celldm(5)=   0.000000  celldm(6)=   0.000000

     crystal axes: (cart. coord. in units of alat)
               a(1) = (  -0.500000   0.000000   0.500000 )  
               a(2) = (   0.000000   0.500000   0.500000 )  
               a(3) = (  -0.500000   0.500000   0.000000 )  

     reciprocal axes: (cart. coord. in units 2 pi/alat)
               b(1) = ( -1.000000 -1.000000  1.000000 )  
               b(2) = (  1.000000  1.000000  1.000000 )  
               b(3) = ( -1.000000  1.000000 -1.000000 )  


     PseudoPot. # 1 for Si read from file:
     ~/Documents/TA/PWDFT.jl/pseudopotentials/scan_upf/Si.SCAN.UPF2
     MD5 check sum: Not computed, couldn't open file
     Pseudo is Norm-conserving, Zval =  4.0
     Generated by new atomic code, or converted to UPF format
     Using radial grid of 1475 points,  2 beta functions with: 
                l(1) =   0
                l(2) =   1

     PseudoPot. # 2 for C  read from file:
     ~/Documents/TA/PWDFT.jl/pseudopotentials/scan_upf/C.SCAN.UPF2
     MD5 check sum: Not computed, couldn't open file
     Pseudo is Norm-conserving, Zval =  4.0
     Generated by new atomic code, or converted to UPF format
     Using radial grid of 1389 points,  1 beta functions with: 
                l(1) =   0

     atomic species   valence    mass     pseudopotential
        Si             4.00    28.08550     Si( 1.00)
        C              4.00    12.01100     C ( 1.00)

     24 Sym. Ops. (no inversion) found



   Cartesian axes

     site n.     atom                  positions (alat units)
         1           Si  tau(   1) = (   0.0000000   0.0000000   0.0000000  )
         2           C   tau(   2) = (   0.2500000   0.2500000   0.2500000  )

     number of k points=    47
                       cart. coord. in units 2pi/alat
        k(    1) = (   0.0000000   0.0000000   0.0000000), wk =   0.0020000
        k(    2) = (  -0.1000000   0.1000000  -0.1000000), wk =   0.0160000
        k(    3) = (  -0.2000000   0.2000000  -0.2000000), wk =   0.0160000
        k(    4) = (  -0.3000000   0.3000000  -0.3000000), wk =   0.0160000
        k(    5) = (  -0.4000000   0.4000000  -0.4000000), wk =   0.0160000
        k(    6) = (   0.5000000  -0.5000000   0.5000000), wk =   0.0080000
        k(    7) = (   0.0000000   0.2000000   0.0000000), wk =   0.0120000
        k(    8) = (  -0.1000000   0.3000000  -0.1000000), wk =   0.0480000
        k(    9) = (  -0.2000000   0.4000000  -0.2000000), wk =   0.0480000
        k(   10) = (  -0.3000000   0.5000000  -0.3000000), wk =   0.0480000
        k(   11) = (   0.6000000  -0.4000000   0.6000000), wk =   0.0480000
        k(   12) = (   0.5000000  -0.3000000   0.5000000), wk =   0.0480000
        k(   13) = (   0.4000000  -0.2000000   0.4000000), wk =   0.0480000
        k(   14) = (   0.3000000  -0.1000000   0.3000000), wk =   0.0480000
        k(   15) = (   0.2000000   0.0000000   0.2000000), wk =   0.0240000
        k(   16) = (   0.0000000   0.4000000   0.0000000), wk =   0.0120000
        k(   17) = (  -0.1000000   0.5000000  -0.1000000), wk =   0.0480000
        k(   18) = (  -0.2000000   0.6000000  -0.2000000), wk =   0.0480000
        k(   19) = (   0.7000000  -0.3000000   0.7000000), wk =   0.0480000
        k(   20) = (   0.6000000  -0.2000000   0.6000000), wk =   0.0480000
        k(   21) = (   0.5000000  -0.1000000   0.5000000), wk =   0.0480000
        k(   22) = (   0.4000000   0.0000000   0.4000000), wk =   0.0240000
        k(   23) = (   0.0000000   0.6000000   0.0000000), wk =   0.0120000
        k(   24) = (  -0.1000000   0.7000000  -0.1000000), wk =   0.0480000
        k(   25) = (   0.8000000  -0.2000000   0.8000000), wk =   0.0480000
        k(   26) = (   0.7000000  -0.1000000   0.7000000), wk =   0.0480000
        k(   27) = (   0.6000000  -0.0000000   0.6000000), wk =   0.0240000
        k(   28) = (   0.0000000   0.8000000   0.0000000), wk =   0.0120000
        k(   29) = (   0.9000000  -0.1000000   0.9000000), wk =   0.0480000
        k(   30) = (   0.8000000   0.0000000   0.8000000), wk =   0.0240000
        k(   31) = (   0.0000000  -1.0000000   0.0000000), wk =   0.0060000
        k(   32) = (  -0.2000000   0.4000000   0.0000000), wk =   0.0480000
        k(   33) = (  -0.3000000   0.5000000  -0.1000000), wk =   0.0960000
        k(   34) = (   0.6000000  -0.4000000   0.8000000), wk =   0.0960000
        k(   35) = (   0.5000000  -0.3000000   0.7000000), wk =   0.0480000
        k(   36) = (  -0.2000000   0.6000000   0.0000000), wk =   0.0480000
        k(   37) = (   0.7000000  -0.3000000   0.9000000), wk =   0.0960000
        k(   38) = (   0.6000000  -0.2000000   0.8000000), wk =   0.0960000
        k(   39) = (   0.5000000  -0.1000000   0.7000000), wk =   0.0960000
        k(   40) = (   0.4000000   0.0000000   0.6000000), wk =   0.0480000
        k(   41) = (   0.8000000  -0.2000000   1.0000000), wk =   0.0480000
        k(   42) = (   0.7000000  -0.1000000   0.9000000), wk =   0.0960000
        k(   43) = (   0.6000000   0.0000000   0.8000000), wk =   0.0480000
        k(   44) = (  -0.2000000  -1.0000000   0.0000000), wk =   0.0240000
        k(   45) = (   0.6000000  -0.2000000   1.0000000), wk =   0.0480000
        k(   46) = (   0.5000000  -0.1000000   0.9000000), wk =   0.0480000
        k(   47) = (  -0.4000000  -1.0000000   0.0000000), wk =   0.0240000

     Dense  grid:     5961 G-vectors     FFT dimensions: (  25,  25,  25)

     Estimated max dynamical RAM per process >      11.16 MB

     WARNING: libxc functional with ID  263 depends
      on external parameters: check the user_guide of
      QE if you need to modify them or to check their
      default values.

     Initial potential from superposition of free atoms

     starting charge       7.9995, renormalised to       8.0000
     Starting wfcs are   13 randomized atomic wfcs

     total cpu time spent up to now is        2.4 secs

     Self-consistent Calculation

     iteration #  1     ecut=    50.00 Ry     beta= 0.01
     Davidson diagonalization with overlap
     ethr =  1.00E-02,  avg # of iterations =  2.0

     total cpu time spent up to now is        4.4 secs

     total energy              =     -19.35162550 Ry
     estimated scf accuracy    <       2.44040655 Ry

     iteration #  2     ecut=    50.00 Ry     beta= 0.01
     Davidson diagonalization with overlap
     ethr =  1.00E-02,  avg # of iterations =  1.0

     total cpu time spent up to now is        5.8 secs

     total energy              =     -19.22657325 Ry
     estimated scf accuracy    <       2.38696912 Ry

     iteration #  3     ecut=    50.00 Ry     beta= 0.01
     Davidson diagonalization with overlap
     ethr =  1.00E-02,  avg # of iterations =  1.0

     total cpu time spent up to now is        7.3 secs

     total energy              =     -19.26827721 Ry
     estimated scf accuracy    <       0.05718395 Ry

     iteration #  4     ecut=    50.00 Ry     beta= 0.01
     Davidson diagonalization with overlap
     ethr =  7.15E-04,  avg # of iterations =  2.0

     total cpu time spent up to now is        9.1 secs

     total energy              =     -19.27554349 Ry
     estimated scf accuracy    <       0.04326639 Ry

     iteration #  5     ecut=    50.00 Ry     beta= 0.01
     Davidson diagonalization with overlap
     ethr =  5.41E-04,  avg # of iterations =  1.0

     total cpu time spent up to now is       10.6 secs

     total energy              =     -19.27622421 Ry
     estimated scf accuracy    <       0.06826102 Ry

     iteration #  6     ecut=    50.00 Ry     beta= 0.01
     Davidson diagonalization with overlap
     ethr =  5.41E-04,  avg # of iterations =  1.0

     total cpu time spent up to now is       12.0 secs

     total energy              =     -19.28301149 Ry
     estimated scf accuracy    <       0.06720945 Ry

     iteration #  7     ecut=    50.00 Ry     beta= 0.01
     Davidson diagonalization with overlap
     ethr =  5.41E-04,  avg # of iterations =  2.0

     total cpu time spent up to now is       13.7 secs

     total energy              =     -19.28647340 Ry
     estimated scf accuracy    <       0.09082652 Ry

     iteration #  8     ecut=    50.00 Ry     beta= 0.01
     Davidson diagonalization with overlap
     ethr =  5.41E-04,  avg # of iterations =  1.0

     total cpu time spent up to now is       15.2 secs

     total energy              =     -19.28685933 Ry
     estimated scf accuracy    <       0.01469531 Ry

     iteration #  9     ecut=    50.00 Ry     beta= 0.01
     Davidson diagonalization with overlap
     ethr =  1.84E-04,  avg # of iterations =  1.0

     total cpu time spent up to now is       16.6 secs

     total energy              =     -19.28608558 Ry
     estimated scf accuracy    <       0.01647930 Ry

     iteration # 10     ecut=    50.00 Ry     beta= 0.01
     Davidson diagonalization with overlap
     ethr =  1.84E-04,  avg # of iterations =  1.0

     total cpu time spent up to now is       18.1 secs

     total energy              =     -19.28578609 Ry
     estimated scf accuracy    <       0.00405186 Ry

     iteration # 11     ecut=    50.00 Ry     beta= 0.01
     Davidson diagonalization with overlap
     ethr =  5.06E-05,  avg # of iterations =  1.6

     total cpu time spent up to now is       19.7 secs

     total energy              =     -19.28614513 Ry
     estimated scf accuracy    <       0.00015101 Ry

     iteration # 12     ecut=    50.00 Ry     beta= 0.01
     Davidson diagonalization with overlap
     ethr =  1.89E-06,  avg # of iterations =  2.0

     total cpu time spent up to now is       21.5 secs

     total energy              =     -19.28616747 Ry
     estimated scf accuracy    <       0.00028625 Ry

     iteration # 13     ecut=    50.00 Ry     beta= 0.01
     Davidson diagonalization with overlap
     ethr =  1.89E-06,  avg # of iterations =  1.0

     total cpu time spent up to now is       22.9 secs

     total energy              =     -19.28615820 Ry
     estimated scf accuracy    <       0.00011891 Ry

     iteration # 14     ecut=    50.00 Ry     beta= 0.01
     Davidson diagonalization with overlap
     ethr =  1.49E-06,  avg # of iterations =  2.0

     total cpu time spent up to now is       24.9 secs

     total energy              =     -19.28617629 Ry
     estimated scf accuracy    <       0.00000830 Ry

     iteration # 15     ecut=    50.00 Ry     beta= 0.01
     Davidson diagonalization with overlap
     ethr =  1.04E-07,  avg # of iterations =  2.0

     total cpu time spent up to now is       26.4 secs

     total energy              =     -19.28617807 Ry
     estimated scf accuracy    <       0.00000717 Ry

     iteration # 16     ecut=    50.00 Ry     beta= 0.01
     Davidson diagonalization with overlap
     ethr =  8.96E-08,  avg # of iterations =  1.0

     total cpu time spent up to now is       27.5 secs

     total energy              =     -19.28617866 Ry
     estimated scf accuracy    <       0.00000828 Ry

     iteration # 17     ecut=    50.00 Ry     beta= 0.01
     Davidson diagonalization with overlap
     ethr =  8.96E-08,  avg # of iterations =  1.0

     total cpu time spent up to now is       28.7 secs

     total energy              =     -19.28617737 Ry
     estimated scf accuracy    <       0.00001331 Ry

     iteration # 18     ecut=    50.00 Ry     beta= 0.01
     Davidson diagonalization with overlap
     ethr =  8.96E-08,  avg # of iterations =  2.0

     total cpu time spent up to now is       30.5 secs

     total energy              =     -19.28617904 Ry
     estimated scf accuracy    <       0.00000361 Ry

     iteration # 19     ecut=    50.00 Ry     beta= 0.01
     Davidson diagonalization with overlap
     ethr =  4.52E-08,  avg # of iterations =  1.0

     total cpu time spent up to now is       31.7 secs

     total energy              =     -19.28617906 Ry
     estimated scf accuracy    <       0.00000275 Ry

     iteration # 20     ecut=    50.00 Ry     beta= 0.01
     Davidson diagonalization with overlap
     ethr =  3.43E-08,  avg # of iterations =  1.0

     total cpu time spent up to now is       32.7 secs

     total energy              =     -19.28617912 Ry
     estimated scf accuracy    <       0.00000264 Ry

     iteration # 21     ecut=    50.00 Ry     beta= 0.01
     Davidson diagonalization with overlap
     ethr =  3.30E-08,  avg # of iterations =  1.0

     total cpu time spent up to now is       33.6 secs

     total energy              =     -19.28617899 Ry
     estimated scf accuracy    <       0.00000136 Ry

     iteration # 22     ecut=    50.00 Ry     beta= 0.01
     Davidson diagonalization with overlap
     ethr =  1.70E-08,  avg # of iterations =  1.0

     total cpu time spent up to now is       35.0 secs

     End of self-consistent calculation

          k = 0.0000 0.0000 0.0000 (   725 PWs)   bands (ev):

    -6.3308  10.7403  10.7403  10.7403

          k =-0.1000 0.1000-0.1000 (   737 PWs)   bands (ev):

    -6.1099   9.6789  10.5950  10.5950

          k =-0.2000 0.2000-0.2000 (   751 PWs)   bands (ev):

    -5.4565   7.3697  10.2635  10.2635

          k =-0.3000 0.3000-0.3000 (   757 PWs)   bands (ev):

    -4.4098   4.8029   9.9211   9.9211

          k =-0.4000 0.4000-0.4000 (   763 PWs)   bands (ev):

    -3.1087   2.4978   9.6811   9.6811

          k = 0.5000-0.5000 0.5000 (   754 PWs)   bands (ev):

    -2.2684   1.3108   9.5991   9.5991

          k = 0.0000 0.2000 0.0000 (   737 PWs)   bands (ev):

    -6.0363   9.9928  10.2171  10.2171

          k =-0.1000 0.3000-0.1000 (   752 PWs)   bands (ev):

    -5.5268   8.1765   9.7403  10.0928

          k =-0.2000 0.4000-0.2000 (   752 PWs)   bands (ev):

    -4.6084   5.7377   9.3689   9.7097

          k =-0.3000 0.5000-0.3000 (   750 PWs)   bands (ev):

    -3.3706   3.3518   9.2030   9.2270

          k = 0.6000-0.4000 0.6000 (   747 PWs)   bands (ev):

    -2.2255   1.6523   8.8237   9.2710

          k = 0.5000-0.3000 0.5000 (   745 PWs)   bands (ev):

    -2.5321   2.0730   8.6080   9.5491

          k = 0.4000-0.2000 0.4000 (   754 PWs)   bands (ev):

    -3.8085   4.1149   8.6365   9.9649

          k = 0.3000-0.1000 0.3000 (   745 PWs)   bands (ev):

    -4.9577   6.5493   8.9507  10.3987

          k = 0.2000 0.0000 0.2000 (   747 PWs)   bands (ev):

    -5.7446   8.6747   9.6474  10.6642

          k = 0.0000 0.4000 0.0000 (   745 PWs)   bands (ev):

    -5.1647   8.2912   9.1328   9.1328

          k =-0.1000 0.5000-0.1000 (   742 PWs)   bands (ev):

    -4.3890   6.5607   8.6694   8.6943

          k =-0.2000 0.6000-0.2000 (   750 PWs)   bands (ev):

    -3.2639   4.4066   7.9537   8.4628

          k = 0.7000-0.3000 0.7000 (   744 PWs)   bands (ev):

    -2.0377   2.5455   7.2061   8.5494

          k = 0.6000-0.2000 0.6000 (   747 PWs)   bands (ev):

    -1.7652   2.1914   6.6990   8.9110

          k = 0.5000-0.1000 0.5000 (   751 PWs)   bands (ev):

    -2.8593   3.7488   6.5843   9.4682

          k = 0.4000 0.0000 0.4000 (   746 PWs)   bands (ev):

    -4.0601   5.5557   7.2183  10.0548

          k = 0.0000 0.6000 0.0000 (   745 PWs)   bands (ev):

    -3.7631   6.1640   8.1035   8.1035

          k =-0.1000 0.7000-0.1000 (   752 PWs)   bands (ev):

    -2.7829   4.7973   7.2482   7.8097

          k = 0.8000-0.2000 0.8000 (   746 PWs)   bands (ev):

    -1.6294   3.4177   5.9272   7.8368

          k = 0.7000-0.1000 0.7000 (   735 PWs)   bands (ev):

    -1.0132   2.8141   4.9355   8.1783

          k = 0.6000-0.0000 0.6000 (   740 PWs)   bands (ev):

    -1.7268   3.4717   4.9056   8.7732

          k = 0.0000 0.8000 0.0000 (   749 PWs)   bands (ev):

    -1.9788   3.8523   7.4170   7.4170

          k = 0.9000-0.1000 0.9000 (   745 PWs)   bands (ev):

    -1.0523   2.9205   6.4639   7.3495

          k = 0.8000 0.0000 0.8000 (   746 PWs)   bands (ev):

    -0.6096   2.8347   4.9700   7.6149

          k = 0.0000-1.0000 0.0000 (   740 PWs)   bands (ev):

    -0.6975   2.3688   7.1793   7.1793

          k =-0.2000 0.4000 0.0000 (   752 PWs)   bands (ev):

    -4.8836   7.0677   8.4890   9.9185

          k =-0.3000 0.5000-0.1000 (   754 PWs)   bands (ev):

    -3.8572   5.0701   7.7607   9.4707

          k = 0.6000-0.4000 0.8000 (   752 PWs)   bands (ev):

    -2.5944   2.9655   7.5371   8.9576

          k = 0.5000-0.3000 0.7000 (   746 PWs)   bands (ev):

    -1.7976   1.8615   7.5083   8.7266

          k =-0.2000 0.6000 0.0000 (   750 PWs)   bands (ev):

    -3.5067   5.4981   7.4041   8.3992

          k = 0.7000-0.3000 0.9000 (   742 PWs)   bands (ev):

    -2.3422   3.9385   6.5617   7.8452

          k = 0.6000-0.2000 0.8000 (   737 PWs)   bands (ev):

    -1.3292   2.6442   5.9476   7.7540

          k = 0.5000-0.1000 0.7000 (   745 PWs)   bands (ev):

    -1.6138   3.0175   5.6194   8.1628

          k = 0.4000 0.0000 0.6000 (   748 PWs)   bands (ev):

    -2.7749   4.3370   6.0643   8.8484

          k = 0.8000-0.2000 1.0000 (   743 PWs)   bands (ev):

    -1.7830   3.8083   6.6897   7.0269

          k = 0.7000-0.1000 0.9000 (   743 PWs)   bands (ev):

    -0.8470   3.1198   5.3166   6.9373

          k = 0.6000 0.0000 0.8000 (   740 PWs)   bands (ev):

    -0.7859   3.2357   4.4444   7.3954

          k =-0.2000-1.0000 0.0000 (   746 PWs)   bands (ev):

    -0.6084   2.6177   6.4812   6.4957

          k = 0.6000-0.2000 1.0000 (   737 PWs)   bands (ev):

    -1.2835   3.5396   5.3592   6.8730

          k = 0.5000-0.1000 0.9000 (   738 PWs)   bands (ev):

    -0.7009   3.1960   4.9728   6.4291

          k =-0.4000-1.0000 0.0000 (   746 PWs)   bands (ev):

    -0.4502   3.2296   5.3136   5.6223

     highest occupied level (ev):    10.7403

!    total energy              =     -19.28617889 Ry
     estimated scf accuracy    <       0.00000082 Ry

     The total energy is the sum of the following terms:
     one-electron contribution =       6.40520342 Ry
     hartree contribution      =       2.29536223 Ry
     xc contribution           =      -6.26811011 Ry
     ewald contribution        =     -21.71863443 Ry

     convergence has been achieved in  22 iterations
     Writing meta-gga kinetic term

     Writing all to output data dir ./input_pw/SiC/5/pwscf.save/
     Writing meta-gga kinetic term
 
     init_run     :      1.02s CPU      2.35s WALL (       1 calls)
     electrons    :     17.28s CPU     32.59s WALL (       1 calls)

     Called by init_run:
     wfcinit      :      0.90s CPU      2.17s WALL (       1 calls)
     potinit      :      0.01s CPU      0.04s WALL (       1 calls)
     hinit0       :      0.10s CPU      0.14s WALL (       1 calls)

     Called by electrons:
     c_bands      :     13.74s CPU     26.02s WALL (      22 calls)
     sum_band     :      3.18s CPU      5.93s WALL (      22 calls)
     v_of_rho     :      0.21s CPU      0.39s WALL (      23 calls)
     mix_rho      :      0.15s CPU      0.26s WALL (      22 calls)

     Called by c_bands:
     init_us_2    :      0.20s CPU      0.31s WALL (    2115 calls)
     init_us_2:cp :      0.20s CPU      0.30s WALL (    2115 calls)
     cegterg      :     13.55s CPU     25.71s WALL (    1034 calls)

     Called by *egterg:
     cdiaghg      :      0.11s CPU      0.20s WALL (    2423 calls)
     h_psi        :     14.05s CPU     27.04s WALL (    2470 calls)
     g_psi        :      0.01s CPU      0.07s WALL (    1389 calls)

     Called by h_psi:
     h_psi:calbec :      0.05s CPU      0.13s WALL (    2470 calls)
     vloc_psi     :      3.46s CPU      6.66s WALL (    2470 calls)
     add_vuspsi   :      0.05s CPU      0.10s WALL (    2470 calls)
     h_psi_meta   :     10.46s CPU     20.06s WALL (    2470 calls)

     General routines
     calbec       :      0.04s CPU      0.09s WALL (    2470 calls)
     fft          :      0.04s CPU      0.12s WALL (     273 calls)
     ffts         :      0.07s CPU      0.14s WALL (     429 calls)
     fftw         :     15.14s CPU     28.91s WALL (   95912 calls)
     interpolate  :      0.00s CPU      0.00s WALL (      23 calls)
 
     Parallel routines
 
     PWSCF        :     18.36s CPU     35.03s WALL

 
   This run was terminated on:  12:56:39  29Mar2023            

=------------------------------------------------------------------------------=
   JOB DONE.
=------------------------------------------------------------------------------=
