
     Program PWSCF v.7.0 starts on  7Jul2023 at 14:25:23 

     This program is part of the open-source Quantum ESPRESSO suite
     for quantum simulation of materials; please cite
         "P. Giannozzi et al., J. Phys.:Condens. Matter 21 395502 (2009);
         "P. Giannozzi et al., J. Phys.:Condens. Matter 29 465901 (2017);
         "P. Giannozzi et al., J. Chem. Phys. 152 154105 (2020);
          URL http://www.quantum-espresso.org", 
     in publications or presentations arising from this work. More details at
     http://www.quantum-espresso.org/quote

     Parallel version (MPI), running on     1 processors

     MPI processes distributed on     1 nodes
     27119 MiB available memory on the printing compute node when the environment starts
 
     Waiting for input...
     Reading input from standard input
Warning: card &CELL ignored
Warning: card / ignored

     Current dimensions of program PWSCF are:
     Max number of different atomic species (ntypx) = 10
     Max number of k-points (npk) =  40000
     Max angular momentum in pseudopotentials (lmaxx) =  4

     WARNING: the MGGA functional with ID    5 has been 
     read together with other dft terms, but it should 
     stand alone in order to work properly. The other 
     terms will be ignored.

     Subspace diagonalization in iterative solution of the eigenvalue problem:
     a serial algorithm will be used

 
     G-vector sticks info
     --------------------
     sticks:   dense  smooth     PW     G-vecs:    dense   smooth      PW
     Sum         421     421    139                 5769     5769    1067
 
     Using Slab Decomposition
 


     bravais-lattice index     =            2
     lattice parameter (alat)  =       7.8130  a.u.
     unit-cell volume          =     119.2303 (a.u.)^3
     number of atoms/cell      =            2
     number of atomic types    =            1
     number of electrons       =         8.00
     number of Kohn-Sham states=            4
     kinetic-energy cutoff     =      50.0000  Ry
     charge density cutoff     =     200.0000  Ry
     scf convergence threshold =      2.0E-05
     mixing beta               =       0.2000
     number of iterations used =            8  local-TF  mixing
     Exchange-correlation= SLA  PW   SCAN SCAN
                           (   0   0   0   0   0 263 267)

     celldm(1)=   7.812959  celldm(2)=   0.000000  celldm(3)=   0.000000
     celldm(4)=   0.000000  celldm(5)=   0.000000  celldm(6)=   0.000000

     crystal axes: (cart. coord. in units of alat)
               a(1) = (  -0.500000   0.000000   0.500000 )  
               a(2) = (   0.000000   0.500000   0.500000 )  
               a(3) = (  -0.500000   0.500000   0.000000 )  

     reciprocal axes: (cart. coord. in units 2 pi/alat)
               b(1) = ( -1.000000 -1.000000  1.000000 )  
               b(2) = (  1.000000  1.000000  1.000000 )  
               b(3) = ( -1.000000  1.000000 -1.000000 )  


     PseudoPot. # 1 for C  read from file:
     ~/Documents/TA/PWDFT.jl/pseudopotentials/scan_upf/C.SCAN.UPF2
     MD5 check sum: Not computed, couldn't open file
     Pseudo is Norm-conserving, Zval =  4.0
     Generated by new atomic code, or converted to UPF format
     Using radial grid of 1389 points,  1 beta functions with: 
                l(1) =   0

     atomic species   valence    mass     pseudopotential
        C              4.00    12.01100     C ( 1.00)

     48 Sym. Ops., with inversion, found (24 have fractional translation)



   Cartesian axes

     site n.     atom                  positions (alat units)
         1           C   tau(   1) = (   0.0000000   0.0000000   0.0000000  )
         2           C   tau(   2) = (   0.2500000   0.2500000   0.2500000  )

     number of k points=    47
                       cart. coord. in units 2pi/alat
        k(    1) = (   0.0000000   0.0000000   0.0000000), wk =   0.0020000
        k(    2) = (  -0.1000000   0.1000000  -0.1000000), wk =   0.0160000
        k(    3) = (  -0.2000000   0.2000000  -0.2000000), wk =   0.0160000
        k(    4) = (  -0.3000000   0.3000000  -0.3000000), wk =   0.0160000
        k(    5) = (  -0.4000000   0.4000000  -0.4000000), wk =   0.0160000
        k(    6) = (   0.5000000  -0.5000000   0.5000000), wk =   0.0080000
        k(    7) = (   0.0000000   0.2000000   0.0000000), wk =   0.0120000
        k(    8) = (  -0.1000000   0.3000000  -0.1000000), wk =   0.0480000
        k(    9) = (  -0.2000000   0.4000000  -0.2000000), wk =   0.0480000
        k(   10) = (  -0.3000000   0.5000000  -0.3000000), wk =   0.0480000
        k(   11) = (   0.6000000  -0.4000000   0.6000000), wk =   0.0480000
        k(   12) = (   0.5000000  -0.3000000   0.5000000), wk =   0.0480000
        k(   13) = (   0.4000000  -0.2000000   0.4000000), wk =   0.0480000
        k(   14) = (   0.3000000  -0.1000000   0.3000000), wk =   0.0480000
        k(   15) = (   0.2000000   0.0000000   0.2000000), wk =   0.0240000
        k(   16) = (   0.0000000   0.4000000   0.0000000), wk =   0.0120000
        k(   17) = (  -0.1000000   0.5000000  -0.1000000), wk =   0.0480000
        k(   18) = (  -0.2000000   0.6000000  -0.2000000), wk =   0.0480000
        k(   19) = (   0.7000000  -0.3000000   0.7000000), wk =   0.0480000
        k(   20) = (   0.6000000  -0.2000000   0.6000000), wk =   0.0480000
        k(   21) = (   0.5000000  -0.1000000   0.5000000), wk =   0.0480000
        k(   22) = (   0.4000000   0.0000000   0.4000000), wk =   0.0240000
        k(   23) = (   0.0000000   0.6000000   0.0000000), wk =   0.0120000
        k(   24) = (  -0.1000000   0.7000000  -0.1000000), wk =   0.0480000
        k(   25) = (   0.8000000  -0.2000000   0.8000000), wk =   0.0480000
        k(   26) = (   0.7000000  -0.1000000   0.7000000), wk =   0.0480000
        k(   27) = (   0.6000000  -0.0000000   0.6000000), wk =   0.0240000
        k(   28) = (   0.0000000   0.8000000   0.0000000), wk =   0.0120000
        k(   29) = (   0.9000000  -0.1000000   0.9000000), wk =   0.0480000
        k(   30) = (   0.8000000   0.0000000   0.8000000), wk =   0.0240000
        k(   31) = (   0.0000000  -1.0000000   0.0000000), wk =   0.0060000
        k(   32) = (  -0.2000000   0.4000000   0.0000000), wk =   0.0480000
        k(   33) = (  -0.3000000   0.5000000  -0.1000000), wk =   0.0960000
        k(   34) = (   0.6000000  -0.4000000   0.8000000), wk =   0.0960000
        k(   35) = (   0.5000000  -0.3000000   0.7000000), wk =   0.0480000
        k(   36) = (  -0.2000000   0.6000000   0.0000000), wk =   0.0480000
        k(   37) = (   0.7000000  -0.3000000   0.9000000), wk =   0.0960000
        k(   38) = (   0.6000000  -0.2000000   0.8000000), wk =   0.0960000
        k(   39) = (   0.5000000  -0.1000000   0.7000000), wk =   0.0960000
        k(   40) = (   0.4000000   0.0000000   0.6000000), wk =   0.0480000
        k(   41) = (   0.8000000  -0.2000000   1.0000000), wk =   0.0480000
        k(   42) = (   0.7000000  -0.1000000   0.9000000), wk =   0.0960000
        k(   43) = (   0.6000000   0.0000000   0.8000000), wk =   0.0480000
        k(   44) = (  -0.2000000  -1.0000000   0.0000000), wk =   0.0240000
        k(   45) = (   0.6000000  -0.2000000   1.0000000), wk =   0.0480000
        k(   46) = (   0.5000000  -0.1000000   0.9000000), wk =   0.0480000
        k(   47) = (  -0.4000000  -1.0000000   0.0000000), wk =   0.0240000

     Dense  grid:     5769 G-vectors     FFT dimensions: (  32,  32,  32)

     Estimated max dynamical RAM per process >      12.40 MB

     WARNING: libxc functional with ID  263 depends
      on external parameters: check the user_guide of
      QE if you need to modify them or to check their
      default values.

     Initial potential from superposition of free atoms

     starting charge       7.9999, renormalised to       8.0000
     Starting wfcs are    8 randomized atomic wfcs

     total cpu time spent up to now is        1.8 secs

     Self-consistent Calculation

     iteration #  1     ecut=    50.00 Ry     beta= 0.20
     Davidson diagonalization with overlap
     ethr =  1.00E-02,  avg # of iterations =  2.0

     total cpu time spent up to now is        4.1 secs

     total energy              =     -22.49005650 Ry
     estimated scf accuracy    <       1.17465353 Ry

     iteration #  2     ecut=    50.00 Ry     beta= 0.20
     Davidson diagonalization with overlap
     ethr =  1.00E-02,  avg # of iterations =  1.0

     total cpu time spent up to now is        6.0 secs

     total energy              =     -22.55506467 Ry
     estimated scf accuracy    <       0.78567536 Ry

     iteration #  3     ecut=    50.00 Ry     beta= 0.20
     Davidson diagonalization with overlap
     ethr =  9.82E-03,  avg # of iterations =  1.0

     total cpu time spent up to now is        7.9 secs

     total energy              =     -22.55682159 Ry
     estimated scf accuracy    <       0.00609311 Ry

     iteration #  4     ecut=    50.00 Ry     beta= 0.20
     Davidson diagonalization with overlap
     ethr =  7.62E-05,  avg # of iterations =  1.0

     total cpu time spent up to now is        9.5 secs

     total energy              =     -22.55643653 Ry
     estimated scf accuracy    <       0.00352113 Ry

     iteration #  5     ecut=    50.00 Ry     beta= 0.20
     Davidson diagonalization with overlap
     ethr =  4.40E-05,  avg # of iterations =  1.1

     total cpu time spent up to now is       11.0 secs

     total energy              =     -22.55668447 Ry
     estimated scf accuracy    <       0.00010061 Ry

     iteration #  6     ecut=    50.00 Ry     beta= 0.20
     Davidson diagonalization with overlap
     ethr =  1.26E-06,  avg # of iterations =  2.9

     total cpu time spent up to now is       12.2 secs

     total energy              =     -22.55672340 Ry
     estimated scf accuracy    <       0.00004137 Ry

     iteration #  7     ecut=    50.00 Ry     beta= 0.20
     Davidson diagonalization with overlap
     ethr =  5.17E-07,  avg # of iterations =  1.2

     total cpu time spent up to now is       12.8 secs

     End of self-consistent calculation

          k = 0.0000 0.0000 0.0000 (   725 PWs)   bands (ev):

   -10.7957   6.5515   6.5515   6.5515

          k =-0.1000 0.1000-0.1000 (   712 PWs)   bands (ev):

   -10.5874   5.1786   6.2732   6.2733

          k =-0.2000 0.2000-0.2000 (   718 PWs)   bands (ev):

    -9.9716   2.6266   5.6885   5.6885

          k =-0.3000 0.3000-0.3000 (   712 PWs)   bands (ev):

    -8.9854   0.0200   5.1371   5.1371

          k =-0.4000 0.4000-0.4000 (   721 PWs)   bands (ev):

    -7.7666  -2.2317   4.7611   4.7611

          k = 0.5000-0.5000 0.5000 (   718 PWs)   bands (ev):

    -6.9957  -3.3563   4.6345   4.6345

          k = 0.0000 0.2000 0.0000 (   713 PWs)   bands (ev):

   -10.5178   5.4597   5.8019   5.8019

          k =-0.1000 0.3000-0.1000 (   707 PWs)   bands (ev):

   -10.0366   3.4123   5.1552   5.4551

          k =-0.2000 0.4000-0.2000 (   713 PWs)   bands (ev):

    -9.1690   0.8886   4.6251   4.8405

          k =-0.3000 0.5000-0.3000 (   712 PWs)   bands (ev):

    -8.0010  -1.4671   4.2346   4.3373

          k = 0.6000-0.4000 0.6000 (   713 PWs)   bands (ev):

    -6.9294  -3.1006   3.8053   4.3273

          k = 0.5000-0.3000 0.5000 (   713 PWs)   bands (ev):

    -7.2154  -2.6977   3.6346   4.5951

          k = 0.4000-0.2000 0.4000 (   714 PWs)   bands (ev):

    -8.4148  -0.7148   3.7613   5.0886

          k = 0.3000-0.1000 0.3000 (   710 PWs)   bands (ev):

    -9.4998   1.7193   4.2051   5.7068

          k = 0.2000 0.0000 0.2000 (   703 PWs)   bands (ev):

   -10.2428   3.9921   5.0754   6.2216

          k = 0.0000 0.4000 0.0000 (   701 PWs)   bands (ev):

    -9.6919   3.2372   4.4694   4.4694

          k =-0.1000 0.5000-0.1000 (   710 PWs)   bands (ev):

    -8.9536   1.4343   3.8301   3.9120

          k =-0.2000 0.6000-0.2000 (   715 PWs)   bands (ev):

    -7.8767  -0.6914   3.0116   3.6239

          k = 0.7000-0.3000 0.7000 (   708 PWs)   bands (ev):

    -6.6860  -2.5081   2.2965   3.6486

          k = 0.6000-0.2000 0.6000 (   705 PWs)   bands (ev):

    -6.4237  -2.8432   1.8635   3.9727

          k = 0.5000-0.1000 0.5000 (   714 PWs)   bands (ev):

    -7.4979  -1.3020   1.8317   4.5329

          k = 0.4000 0.0000 0.4000 (   728 PWs)   bands (ev):

    -8.6480   0.5350   2.4922   5.1987

          k = 0.0000 0.6000 0.0000 (   709 PWs)   bands (ev):

    -8.3457   0.7094   3.3096   3.3096

          k =-0.1000 0.7000-0.1000 (   716 PWs)   bands (ev):

    -7.3810  -0.7653   2.5170   2.9676

          k = 0.8000-0.2000 0.8000 (   707 PWs)   bands (ev):

    -6.1886  -2.2761   1.4292   2.9584

          k = 0.7000-0.1000 0.7000 (   708 PWs)   bands (ev):

    -5.4920  -3.0252   0.6385   3.2653

          k = 0.6000-0.0000 0.6000 (   704 PWs)   bands (ev):

    -6.3468  -2.1280   0.6082   3.8356

          k = 0.0000 0.8000 0.0000 (   716 PWs)   bands (ev):

    -6.5299  -1.8661   2.5616   2.5616

          k = 0.9000-0.1000 0.9000 (   714 PWs)   bands (ev):

    -5.3968  -3.1191   1.8560   2.4774

          k = 0.8000 0.0000 0.8000 (   714 PWs)   bands (ev):

    -4.6192  -3.7745   0.8346   2.7207

          k = 0.0000-1.0000 0.0000 (   724 PWs)   bands (ev):

    -4.3296  -4.3296   2.3069   2.3069

          k =-0.2000 0.4000 0.0000 (   713 PWs)   bands (ev):

    -9.4273   2.1212   3.7618   5.1558

          k =-0.3000 0.5000-0.1000 (   714 PWs)   bands (ev):

    -8.4523   0.0739   2.9335   4.5987

          k = 0.6000-0.4000 0.8000 (   709 PWs)   bands (ev):

    -7.2455  -1.9878   2.6057   4.0747

          k = 0.5000-0.3000 0.7000 (   714 PWs)   bands (ev):

    -6.4749  -3.0667   2.5240   3.8580

          k =-0.2000 0.6000 0.0000 (   716 PWs)   bands (ev):

    -8.1034   0.1535   2.6484   3.5879

          k = 0.7000-0.3000 0.9000 (   711 PWs)   bands (ev):

    -6.9586  -1.4777   1.8200   3.1200

          k = 0.6000-0.2000 0.8000 (   710 PWs)   bands (ev):

    -5.9001  -2.8146   1.2597   3.0272

          k = 0.5000-0.1000 0.7000 (   710 PWs)   bands (ev):

    -6.2250  -2.4072   1.0343   3.3729

          k = 0.4000 0.0000 0.6000 (   705 PWs)   bands (ev):

    -7.4041  -0.9729   1.4695   3.9959

          k = 0.8000-0.2000 1.0000 (   711 PWs)   bands (ev):

    -6.3348  -1.9956   1.9872   2.4100

          k = 0.7000-0.1000 0.9000 (   719 PWs)   bands (ev):

    -5.1705  -3.1534   1.0545   2.2923

          k = 0.6000 0.0000 0.8000 (   715 PWs)   bands (ev):

    -5.1467  -3.1360   0.4685   2.6889

          k =-0.2000-1.0000 0.0000 (   716 PWs)   bands (ev):

    -4.2369  -4.2369   1.8816   1.8816

          k = 0.6000-0.2000 1.0000 (   708 PWs)   bands (ev):

    -5.8083  -2.4505   0.9942   2.3765

          k = 0.5000-0.1000 0.9000 (   712 PWs)   bands (ev):

    -4.9996  -3.2158   0.7682   2.0207

          k =-0.4000-1.0000 0.0000 (   712 PWs)   bands (ev):

    -4.0719  -4.0719   1.2635   1.2635

     highest occupied level (ev):     6.5515

!    total energy              =     -22.55672761 Ry
     estimated scf accuracy    <       0.00001445 Ry

     The total energy is the sum of the following terms:
     one-electron contribution =       3.50291205 Ry
     hartree contribution      =       2.43295720 Ry
     xc contribution           =      -6.42956907 Ry
     ewald contribution        =     -22.06302778 Ry

     convergence has been achieved in   7 iterations
     Writing meta-gga kinetic term

     Writing all to output data dir ./input_pw/C/11/pwscf.save/
     Writing meta-gga kinetic term
 
     init_run     :      0.78s CPU      1.78s WALL (       1 calls)
     electrons    :      6.61s CPU     10.96s WALL (       1 calls)

     Called by init_run:
     wfcinit      :      0.71s CPU      1.63s WALL (       1 calls)
     potinit      :      0.02s CPU      0.07s WALL (       1 calls)
     hinit0       :      0.03s CPU      0.07s WALL (       1 calls)

     Called by electrons:
     c_bands      :      5.26s CPU      8.85s WALL (       7 calls)
     sum_band     :      1.19s CPU      1.82s WALL (       7 calls)
     v_of_rho     :      0.14s CPU      0.27s WALL (       8 calls)
     mix_rho      :      0.04s CPU      0.06s WALL (       7 calls)

     Called by c_bands:
     init_us_2    :      0.02s CPU      0.02s WALL (     705 calls)
     init_us_2:cp :      0.02s CPU      0.02s WALL (     705 calls)
     cegterg      :      5.24s CPU      8.83s WALL (     329 calls)

     Called by *egterg:
     cdiaghg      :      0.03s CPU      0.06s WALL (     811 calls)
     h_psi        :      5.83s CPU     10.24s WALL (     858 calls)
     g_psi        :      0.00s CPU      0.00s WALL (     482 calls)

     Called by h_psi:
     h_psi:calbec :      0.01s CPU      0.03s WALL (     858 calls)
     vloc_psi     :      1.44s CPU      2.43s WALL (     858 calls)
     add_vuspsi   :      0.01s CPU      0.01s WALL (     858 calls)
     h_psi_meta   :      4.35s CPU      7.76s WALL (     858 calls)

     General routines
     calbec       :      0.01s CPU      0.01s WALL (     858 calls)
     fft          :      0.02s CPU      0.04s WALL (      93 calls)
     ffts         :      0.02s CPU      0.04s WALL (     118 calls)
     fftw         :      5.96s CPU     10.14s WALL (   32400 calls)
     interpolate  :      0.00s CPU      0.00s WALL (       8 calls)
 
     Parallel routines
 
     PWSCF        :      7.41s CPU     12.77s WALL

 
   This run was terminated on:  14:25:36   7Jul2023            

=------------------------------------------------------------------------------=
   JOB DONE.
=------------------------------------------------------------------------------=
