
     Program PWSCF v.7.0 starts on 29Mar2023 at 12:34:19 

     This program is part of the open-source Quantum ESPRESSO suite
     for quantum simulation of materials; please cite
         "P. Giannozzi et al., J. Phys.:Condens. Matter 21 395502 (2009);
         "P. Giannozzi et al., J. Phys.:Condens. Matter 29 465901 (2017);
         "P. Giannozzi et al., J. Chem. Phys. 152 154105 (2020);
          URL http://www.quantum-espresso.org", 
     in publications or presentations arising from this work. More details at
     http://www.quantum-espresso.org/quote

     Parallel version (MPI), running on     1 processors

     MPI processes distributed on     1 nodes
     23182 MiB available memory on the printing compute node when the environment starts
 
     Waiting for input...
     Reading input from standard input
Warning: card &CELL ignored
Warning: card / ignored

     Current dimensions of program PWSCF are:
     Max number of different atomic species (ntypx) = 10
     Max number of k-points (npk) =  40000
     Max angular momentum in pseudopotentials (lmaxx) =  4

     WARNING: the MGGA functional with ID    5 has been 
     read together with other dft terms, but it should 
     stand alone in order to work properly. The other 
     terms will be ignored.

     Subspace diagonalization in iterative solution of the eigenvalue problem:
     a serial algorithm will be used

 
     G-vector sticks info
     --------------------
     sticks:   dense  smooth     PW     G-vecs:    dense   smooth      PW
     Sum         421     421    139                 5769     5769    1067
 
     Using Slab Decomposition
 


     bravais-lattice index     =            2
     lattice parameter (alat)  =       7.8130  a.u.
     unit-cell volume          =     119.2303 (a.u.)^3
     number of atoms/cell      =            2
     number of atomic types    =            1
     number of electrons       =         8.00
     number of Kohn-Sham states=            4
     kinetic-energy cutoff     =      50.0000  Ry
     charge density cutoff     =     200.0000  Ry
     scf convergence threshold =      1.0E-06
     mixing beta               =       0.0100
     number of iterations used =            8  local-TF  mixing
     Exchange-correlation= SLA  PW   SCAN SCAN
                           (   0   0   0   0   0 263 267)

     celldm(1)=   7.812959  celldm(2)=   0.000000  celldm(3)=   0.000000
     celldm(4)=   0.000000  celldm(5)=   0.000000  celldm(6)=   0.000000

     crystal axes: (cart. coord. in units of alat)
               a(1) = (  -0.500000   0.000000   0.500000 )  
               a(2) = (   0.000000   0.500000   0.500000 )  
               a(3) = (  -0.500000   0.500000   0.000000 )  

     reciprocal axes: (cart. coord. in units 2 pi/alat)
               b(1) = ( -1.000000 -1.000000  1.000000 )  
               b(2) = (  1.000000  1.000000  1.000000 )  
               b(3) = ( -1.000000  1.000000 -1.000000 )  


     PseudoPot. # 1 for C  read from file:
     ~/Documents/TA/PWDFT.jl/pseudopotentials/scan_upf/C.SCAN.UPF2
     MD5 check sum: Not computed, couldn't open file
     Pseudo is Norm-conserving, Zval =  4.0
     Generated by new atomic code, or converted to UPF format
     Using radial grid of 1389 points,  1 beta functions with: 
                l(1) =   0

     atomic species   valence    mass     pseudopotential
        C              4.00    12.01100     C ( 1.00)

     48 Sym. Ops., with inversion, found (24 have fractional translation)



   Cartesian axes

     site n.     atom                  positions (alat units)
         1           C   tau(   1) = (   0.0000000   0.0000000   0.0000000  )
         2           C   tau(   2) = (   0.2500000   0.2500000   0.2500000  )

     number of k points=    47
                       cart. coord. in units 2pi/alat
        k(    1) = (   0.0000000   0.0000000   0.0000000), wk =   0.0020000
        k(    2) = (  -0.1000000   0.1000000  -0.1000000), wk =   0.0160000
        k(    3) = (  -0.2000000   0.2000000  -0.2000000), wk =   0.0160000
        k(    4) = (  -0.3000000   0.3000000  -0.3000000), wk =   0.0160000
        k(    5) = (  -0.4000000   0.4000000  -0.4000000), wk =   0.0160000
        k(    6) = (   0.5000000  -0.5000000   0.5000000), wk =   0.0080000
        k(    7) = (   0.0000000   0.2000000   0.0000000), wk =   0.0120000
        k(    8) = (  -0.1000000   0.3000000  -0.1000000), wk =   0.0480000
        k(    9) = (  -0.2000000   0.4000000  -0.2000000), wk =   0.0480000
        k(   10) = (  -0.3000000   0.5000000  -0.3000000), wk =   0.0480000
        k(   11) = (   0.6000000  -0.4000000   0.6000000), wk =   0.0480000
        k(   12) = (   0.5000000  -0.3000000   0.5000000), wk =   0.0480000
        k(   13) = (   0.4000000  -0.2000000   0.4000000), wk =   0.0480000
        k(   14) = (   0.3000000  -0.1000000   0.3000000), wk =   0.0480000
        k(   15) = (   0.2000000   0.0000000   0.2000000), wk =   0.0240000
        k(   16) = (   0.0000000   0.4000000   0.0000000), wk =   0.0120000
        k(   17) = (  -0.1000000   0.5000000  -0.1000000), wk =   0.0480000
        k(   18) = (  -0.2000000   0.6000000  -0.2000000), wk =   0.0480000
        k(   19) = (   0.7000000  -0.3000000   0.7000000), wk =   0.0480000
        k(   20) = (   0.6000000  -0.2000000   0.6000000), wk =   0.0480000
        k(   21) = (   0.5000000  -0.1000000   0.5000000), wk =   0.0480000
        k(   22) = (   0.4000000   0.0000000   0.4000000), wk =   0.0240000
        k(   23) = (   0.0000000   0.6000000   0.0000000), wk =   0.0120000
        k(   24) = (  -0.1000000   0.7000000  -0.1000000), wk =   0.0480000
        k(   25) = (   0.8000000  -0.2000000   0.8000000), wk =   0.0480000
        k(   26) = (   0.7000000  -0.1000000   0.7000000), wk =   0.0480000
        k(   27) = (   0.6000000  -0.0000000   0.6000000), wk =   0.0240000
        k(   28) = (   0.0000000   0.8000000   0.0000000), wk =   0.0120000
        k(   29) = (   0.9000000  -0.1000000   0.9000000), wk =   0.0480000
        k(   30) = (   0.8000000   0.0000000   0.8000000), wk =   0.0240000
        k(   31) = (   0.0000000  -1.0000000   0.0000000), wk =   0.0060000
        k(   32) = (  -0.2000000   0.4000000   0.0000000), wk =   0.0480000
        k(   33) = (  -0.3000000   0.5000000  -0.1000000), wk =   0.0960000
        k(   34) = (   0.6000000  -0.4000000   0.8000000), wk =   0.0960000
        k(   35) = (   0.5000000  -0.3000000   0.7000000), wk =   0.0480000
        k(   36) = (  -0.2000000   0.6000000   0.0000000), wk =   0.0480000
        k(   37) = (   0.7000000  -0.3000000   0.9000000), wk =   0.0960000
        k(   38) = (   0.6000000  -0.2000000   0.8000000), wk =   0.0960000
        k(   39) = (   0.5000000  -0.1000000   0.7000000), wk =   0.0960000
        k(   40) = (   0.4000000   0.0000000   0.6000000), wk =   0.0480000
        k(   41) = (   0.8000000  -0.2000000   1.0000000), wk =   0.0480000
        k(   42) = (   0.7000000  -0.1000000   0.9000000), wk =   0.0960000
        k(   43) = (   0.6000000   0.0000000   0.8000000), wk =   0.0480000
        k(   44) = (  -0.2000000  -1.0000000   0.0000000), wk =   0.0240000
        k(   45) = (   0.6000000  -0.2000000   1.0000000), wk =   0.0480000
        k(   46) = (   0.5000000  -0.1000000   0.9000000), wk =   0.0480000
        k(   47) = (  -0.4000000  -1.0000000   0.0000000), wk =   0.0240000

     Dense  grid:     5769 G-vectors     FFT dimensions: (  32,  32,  32)

     Estimated max dynamical RAM per process >      12.40 MB

     WARNING: libxc functional with ID  263 depends
      on external parameters: check the user_guide of
      QE if you need to modify them or to check their
      default values.

     Initial potential from superposition of free atoms

     starting charge       7.9999, renormalised to       8.0000
     Starting wfcs are    8 randomized atomic wfcs

     total cpu time spent up to now is        1.8 secs

     Self-consistent Calculation

     iteration #  1     ecut=    50.00 Ry     beta= 0.01
     Davidson diagonalization with overlap
     ethr =  1.00E-02,  avg # of iterations =  2.0

     total cpu time spent up to now is        4.1 secs

     total energy              =     -22.48871023 Ry
     estimated scf accuracy    <       1.17465353 Ry

     iteration #  2     ecut=    50.00 Ry     beta= 0.01
     Davidson diagonalization with overlap
     ethr =  1.00E-02,  avg # of iterations =  1.0

     total cpu time spent up to now is        6.0 secs

     total energy              =     -22.28328889 Ry
     estimated scf accuracy    <       1.19408911 Ry

     iteration #  3     ecut=    50.00 Ry     beta= 0.01
     Davidson diagonalization with overlap
     ethr =  1.00E-02,  avg # of iterations =  1.0

     total cpu time spent up to now is        8.0 secs

     total energy              =     -22.53237172 Ry
     estimated scf accuracy    <       2.84751821 Ry

     iteration #  4     ecut=    50.00 Ry     beta= 0.01
     Davidson diagonalization with overlap
     ethr =  1.00E-02,  avg # of iterations =  1.0

     total cpu time spent up to now is        9.8 secs

     total energy              =     -22.55698079 Ry
     estimated scf accuracy    <       0.00492747 Ry

     iteration #  5     ecut=    50.00 Ry     beta= 0.01
     Davidson diagonalization with overlap
     ethr =  6.16E-05,  avg # of iterations =  1.9

     total cpu time spent up to now is       11.9 secs

     total energy              =     -22.55742459 Ry
     estimated scf accuracy    <       0.00530624 Ry

     iteration #  6     ecut=    50.00 Ry     beta= 0.01
     Davidson diagonalization with overlap
     ethr =  6.16E-05,  avg # of iterations =  1.0

     total cpu time spent up to now is       13.3 secs

     total energy              =     -22.55709060 Ry
     estimated scf accuracy    <       0.00467177 Ry

     iteration #  7     ecut=    50.00 Ry     beta= 0.01
     Davidson diagonalization with overlap
     ethr =  5.84E-05,  avg # of iterations =  1.0

     total cpu time spent up to now is       14.4 secs

     total energy              =     -22.55641305 Ry
     estimated scf accuracy    <       0.00249452 Ry

     iteration #  8     ecut=    50.00 Ry     beta= 0.01
     Davidson diagonalization with overlap
     ethr =  3.12E-05,  avg # of iterations =  1.5

     total cpu time spent up to now is       16.4 secs

     total energy              =     -22.55663170 Ry
     estimated scf accuracy    <       0.00107260 Ry

     iteration #  9     ecut=    50.00 Ry     beta= 0.01
     Davidson diagonalization with overlap
     ethr =  1.34E-05,  avg # of iterations =  1.0

     total cpu time spent up to now is       18.0 secs

     total energy              =     -22.55663800 Ry
     estimated scf accuracy    <       0.00117825 Ry

     iteration # 10     ecut=    50.00 Ry     beta= 0.01
     Davidson diagonalization with overlap
     ethr =  1.34E-05,  avg # of iterations =  1.0

     total cpu time spent up to now is       19.3 secs

     total energy              =     -22.55668286 Ry
     estimated scf accuracy    <       0.00111211 Ry

     iteration # 11     ecut=    50.00 Ry     beta= 0.01
     Davidson diagonalization with overlap
     ethr =  1.34E-05,  avg # of iterations =  1.0

     total cpu time spent up to now is       20.7 secs

     total energy              =     -22.55672234 Ry
     estimated scf accuracy    <       0.00059373 Ry

     iteration # 12     ecut=    50.00 Ry     beta= 0.01
     Davidson diagonalization with overlap
     ethr =  7.42E-06,  avg # of iterations =  1.0

     total cpu time spent up to now is       22.0 secs

     total energy              =     -22.55672571 Ry
     estimated scf accuracy    <       0.00000242 Ry

     iteration # 13     ecut=    50.00 Ry     beta= 0.01
     Davidson diagonalization with overlap
     ethr =  3.03E-08,  avg # of iterations =  2.5

     total cpu time spent up to now is       22.8 secs

     total energy              =     -22.55672616 Ry
     estimated scf accuracy    <       0.00000356 Ry

     iteration # 14     ecut=    50.00 Ry     beta= 0.01
     Davidson diagonalization with overlap
     ethr =  3.03E-08,  avg # of iterations =  1.0

     total cpu time spent up to now is       23.4 secs

     total energy              =     -22.55672735 Ry
     estimated scf accuracy    <       0.00000295 Ry

     iteration # 15     ecut=    50.00 Ry     beta= 0.01
     Davidson diagonalization with overlap
     ethr =  3.03E-08,  avg # of iterations =  1.0

     total cpu time spent up to now is       24.0 secs

     End of self-consistent calculation

          k = 0.0000 0.0000 0.0000 (   725 PWs)   bands (ev):

   -10.7991   6.5477   6.5477   6.5477

          k =-0.1000 0.1000-0.1000 (   712 PWs)   bands (ev):

   -10.5908   5.1750   6.2695   6.2695

          k =-0.2000 0.2000-0.2000 (   718 PWs)   bands (ev):

    -9.9751   2.6231   5.6848   5.6848

          k =-0.3000 0.3000-0.3000 (   712 PWs)   bands (ev):

    -8.9890   0.0167   5.1334   5.1334

          k =-0.4000 0.4000-0.4000 (   721 PWs)   bands (ev):

    -7.7704  -2.2347   4.7573   4.7573

          k = 0.5000-0.5000 0.5000 (   718 PWs)   bands (ev):

    -6.9997  -3.3591   4.6308   4.6308

          k = 0.0000 0.2000 0.0000 (   713 PWs)   bands (ev):

   -10.5212   5.4560   5.7983   5.7983

          k =-0.1000 0.3000-0.1000 (   707 PWs)   bands (ev):

   -10.0401   3.4086   5.1515   5.4514

          k =-0.2000 0.4000-0.2000 (   713 PWs)   bands (ev):

    -9.1725   0.8851   4.6215   4.8369

          k =-0.3000 0.5000-0.3000 (   712 PWs)   bands (ev):

    -8.0047  -1.4704   4.2310   4.3337

          k = 0.6000-0.4000 0.6000 (   713 PWs)   bands (ev):

    -6.9334  -3.1035   3.8018   4.3236

          k = 0.5000-0.3000 0.5000 (   713 PWs)   bands (ev):

    -7.2193  -2.7007   3.6312   4.5914

          k = 0.4000-0.2000 0.4000 (   714 PWs)   bands (ev):

    -8.4185  -0.7182   3.7578   5.0849

          k = 0.3000-0.1000 0.3000 (   710 PWs)   bands (ev):

    -9.5033   1.7158   4.2017   5.7030

          k = 0.2000 0.0000 0.2000 (   703 PWs)   bands (ev):

   -10.2462   3.9884   5.0720   6.2178

          k = 0.0000 0.4000 0.0000 (   701 PWs)   bands (ev):

    -9.6954   3.2334   4.4659   4.4659

          k =-0.1000 0.5000-0.1000 (   710 PWs)   bands (ev):

    -8.9571   1.4305   3.8266   3.9085

          k =-0.2000 0.6000-0.2000 (   715 PWs)   bands (ev):

    -7.8803  -0.6950   3.0084   3.6203

          k = 0.7000-0.3000 0.7000 (   708 PWs)   bands (ev):

    -6.6899  -2.5114   2.2933   3.6450

          k = 0.6000-0.2000 0.6000 (   705 PWs)   bands (ev):

    -6.4277  -2.8464   1.8605   3.9690

          k = 0.5000-0.1000 0.5000 (   714 PWs)   bands (ev):

    -7.5016  -1.3055   1.8287   4.5293

          k = 0.4000 0.0000 0.4000 (   728 PWs)   bands (ev):

    -8.6515   0.5312   2.4892   5.1950

          k = 0.0000 0.6000 0.0000 (   709 PWs)   bands (ev):

    -8.3492   0.7055   3.3061   3.3061

          k =-0.1000 0.7000-0.1000 (   716 PWs)   bands (ev):

    -7.3847  -0.7692   2.5137   2.9641

          k = 0.8000-0.2000 0.8000 (   707 PWs)   bands (ev):

    -6.1924  -2.2800   1.4264   2.9549

          k = 0.7000-0.1000 0.7000 (   708 PWs)   bands (ev):

    -5.4960  -3.0288   0.6359   3.2617

          k = 0.6000-0.0000 0.6000 (   704 PWs)   bands (ev):

    -6.3507  -2.1317   0.6057   3.8320

          k = 0.0000 0.8000 0.0000 (   716 PWs)   bands (ev):

    -6.5336  -1.8700   2.5581   2.5581

          k = 0.9000-0.1000 0.9000 (   714 PWs)   bands (ev):

    -5.4005  -3.1230   1.8529   2.4739

          k = 0.8000 0.0000 0.8000 (   714 PWs)   bands (ev):

    -4.6232  -3.7783   0.8319   2.7173

          k = 0.0000-1.0000 0.0000 (   724 PWs)   bands (ev):

    -4.3334  -4.3334   2.3034   2.3034

          k =-0.2000 0.4000 0.0000 (   713 PWs)   bands (ev):

    -9.4308   2.1175   3.7585   5.1522

          k =-0.3000 0.5000-0.1000 (   714 PWs)   bands (ev):

    -8.4559   0.0703   2.9303   4.5951

          k = 0.6000-0.4000 0.8000 (   709 PWs)   bands (ev):

    -7.2493  -1.9911   2.6025   4.0712

          k = 0.5000-0.3000 0.7000 (   714 PWs)   bands (ev):

    -6.4790  -3.0697   2.5207   3.8544

          k =-0.2000 0.6000 0.0000 (   716 PWs)   bands (ev):

    -8.1070   0.1496   2.6453   3.5845

          k = 0.7000-0.3000 0.9000 (   711 PWs)   bands (ev):

    -6.9623  -1.4815   1.8170   3.1167

          k = 0.6000-0.2000 0.8000 (   710 PWs)   bands (ev):

    -5.9041  -2.8181   1.2568   3.0238

          k = 0.5000-0.1000 0.7000 (   710 PWs)   bands (ev):

    -6.2290  -2.4108   1.0316   3.3695

          k = 0.4000 0.0000 0.6000 (   705 PWs)   bands (ev):

    -7.4078  -0.9767   1.4667   3.9924

          k = 0.8000-0.2000 1.0000 (   711 PWs)   bands (ev):

    -6.3385  -1.9995   1.9840   2.4068

          k = 0.7000-0.1000 0.9000 (   719 PWs)   bands (ev):

    -5.1744  -3.1574   1.0517   2.2891

          k = 0.6000 0.0000 0.8000 (   715 PWs)   bands (ev):

    -5.1507  -3.1399   0.4660   2.6856

          k =-0.2000-1.0000 0.0000 (   716 PWs)   bands (ev):

    -4.2408  -4.2408   1.8785   1.8785

          k = 0.6000-0.2000 1.0000 (   708 PWs)   bands (ev):

    -5.8122  -2.4545   0.9915   2.3735

          k = 0.5000-0.1000 0.9000 (   712 PWs)   bands (ev):

    -5.0036  -3.2197   0.7656   2.0178

          k =-0.4000-1.0000 0.0000 (   712 PWs)   bands (ev):

    -4.0759  -4.0759   1.2608   1.2608

     highest occupied level (ev):     6.5477

!    total energy              =     -22.55672861 Ry
     estimated scf accuracy    <       0.00000088 Ry

     The total energy is the sum of the following terms:
     one-electron contribution =       3.50253888 Ry
     hartree contribution      =       2.43351005 Ry
     xc contribution           =      -6.42974976 Ry
     ewald contribution        =     -22.06302778 Ry

     convergence has been achieved in  15 iterations
     Writing meta-gga kinetic term

     Writing all to output data dir ./input_pw/C/11/pwscf.save/
     Writing meta-gga kinetic term
 
     init_run     :      0.76s CPU      1.68s WALL (       1 calls)
     electrons    :     13.58s CPU     22.22s WALL (       1 calls)

     Called by init_run:
     wfcinit      :      0.70s CPU      1.54s WALL (       1 calls)
     potinit      :      0.02s CPU      0.09s WALL (       1 calls)
     hinit0       :      0.03s CPU      0.05s WALL (       1 calls)

     Called by electrons:
     c_bands      :     10.55s CPU     17.31s WALL (      15 calls)
     sum_band     :      2.66s CPU      4.24s WALL (      15 calls)
     v_of_rho     :      0.28s CPU      0.55s WALL (      16 calls)
     mix_rho      :      0.10s CPU      0.20s WALL (      15 calls)

     Called by c_bands:
     init_us_2    :      0.04s CPU      0.07s WALL (    1457 calls)
     init_us_2:cp :      0.04s CPU      0.05s WALL (    1457 calls)
     cegterg      :     10.50s CPU     17.22s WALL (     705 calls)

     Called by *egterg:
     cdiaghg      :      0.06s CPU      0.11s WALL (    1593 calls)
     h_psi        :     10.98s CPU     18.39s WALL (    1640 calls)
     g_psi        :      0.01s CPU      0.01s WALL (     888 calls)

     Called by h_psi:
     h_psi:calbec :      0.02s CPU      0.02s WALL (    1640 calls)
     vloc_psi     :      2.72s CPU      4.45s WALL (    1640 calls)
     add_vuspsi   :      0.03s CPU      0.05s WALL (    1640 calls)
     h_psi_meta   :      8.19s CPU     13.84s WALL (    1640 calls)

     General routines
     calbec       :      0.01s CPU      0.02s WALL (    1640 calls)
     fft          :      0.03s CPU      0.05s WALL (     189 calls)
     ffts         :      0.05s CPU      0.13s WALL (     270 calls)
     fftw         :     11.49s CPU     19.07s WALL (   62112 calls)
     interpolate  :      0.00s CPU      0.00s WALL (      16 calls)
 
     Parallel routines
 
     PWSCF        :     14.37s CPU     23.98s WALL

 
   This run was terminated on:  12:34:43  29Mar2023            

=------------------------------------------------------------------------------=
   JOB DONE.
=------------------------------------------------------------------------------=
