
     Program PWSCF v.7.0 starts on 14Mar2023 at 11:48:16 

     This program is part of the open-source Quantum ESPRESSO suite
     for quantum simulation of materials; please cite
         "P. Giannozzi et al., J. Phys.:Condens. Matter 21 395502 (2009);
         "P. Giannozzi et al., J. Phys.:Condens. Matter 29 465901 (2017);
         "P. Giannozzi et al., J. Chem. Phys. 152 154105 (2020);
          URL http://www.quantum-espresso.org", 
     in publications or presentations arising from this work. More details at
     http://www.quantum-espresso.org/quote

     Parallel version (MPI), running on     1 processors

     MPI processes distributed on     1 nodes
     27216 MiB available memory on the printing compute node when the environment starts
 
     Waiting for input...
     Reading input from standard input
Warning: card &CELL ignored
Warning: card / ignored

     Current dimensions of program PWSCF are:
     Max number of different atomic species (ntypx) = 10
     Max number of k-points (npk) =  40000
     Max angular momentum in pseudopotentials (lmaxx) =  4

     WARNING: the MGGA functional with ID    5 has been 
     read together with other dft terms, but it should 
     stand alone in order to work properly. The other 
     terms will be ignored.

     Subspace diagonalization in iterative solution of the eigenvalue problem:
     a serial algorithm will be used

 
     G-vector sticks info
     --------------------
     sticks:   dense  smooth     PW     G-vecs:    dense   smooth      PW
     Sum         433     433    151                 5985     5985    1139
 
     Using Slab Decomposition
 


     bravais-lattice index     =            2
     lattice parameter (alat)  =       7.9627  a.u.
     unit-cell volume          =     126.2173 (a.u.)^3
     number of atoms/cell      =            2
     number of atomic types    =            1
     number of electrons       =         8.00
     number of Kohn-Sham states=            4
     kinetic-energy cutoff     =      50.0000  Ry
     charge density cutoff     =     200.0000  Ry
     scf convergence threshold =      1.0E-06
     mixing beta               =       0.0100
     number of iterations used =            8  local-TF  mixing
     Exchange-correlation= SLA  PW   SCAN SCAN
                           (   0   0   0   0   0 263 267)

     celldm(1)=   7.962686  celldm(2)=   0.000000  celldm(3)=   0.000000
     celldm(4)=   0.000000  celldm(5)=   0.000000  celldm(6)=   0.000000

     crystal axes: (cart. coord. in units of alat)
               a(1) = (  -0.500000   0.000000   0.500000 )  
               a(2) = (   0.000000   0.500000   0.500000 )  
               a(3) = (  -0.500000   0.500000   0.000000 )  

     reciprocal axes: (cart. coord. in units 2 pi/alat)
               b(1) = ( -1.000000 -1.000000  1.000000 )  
               b(2) = (  1.000000  1.000000  1.000000 )  
               b(3) = ( -1.000000  1.000000 -1.000000 )  


     PseudoPot. # 1 for C  read from file:
     ~/Documents/TA/PWDFT.jl/pseudopotentials/scan_upf/C.SCAN.UPF2
     MD5 check sum: Not computed, couldn't open file
     Pseudo is Norm-conserving, Zval =  4.0
     Generated by new atomic code, or converted to UPF format
     Using radial grid of 1389 points,  1 beta functions with: 
                l(1) =   0

     atomic species   valence    mass     pseudopotential
        C              4.00    12.01100     C ( 1.00)

     48 Sym. Ops., with inversion, found (24 have fractional translation)



   Cartesian axes

     site n.     atom                  positions (alat units)
         1           C   tau(   1) = (   0.0000000   0.0000000   0.0000000  )
         2           C   tau(   2) = (   0.2500000   0.2500000   0.2500000  )

     number of k points=    47
                       cart. coord. in units 2pi/alat
        k(    1) = (   0.0000000   0.0000000   0.0000000), wk =   0.0020000
        k(    2) = (  -0.1000000   0.1000000  -0.1000000), wk =   0.0160000
        k(    3) = (  -0.2000000   0.2000000  -0.2000000), wk =   0.0160000
        k(    4) = (  -0.3000000   0.3000000  -0.3000000), wk =   0.0160000
        k(    5) = (  -0.4000000   0.4000000  -0.4000000), wk =   0.0160000
        k(    6) = (   0.5000000  -0.5000000   0.5000000), wk =   0.0080000
        k(    7) = (   0.0000000   0.2000000   0.0000000), wk =   0.0120000
        k(    8) = (  -0.1000000   0.3000000  -0.1000000), wk =   0.0480000
        k(    9) = (  -0.2000000   0.4000000  -0.2000000), wk =   0.0480000
        k(   10) = (  -0.3000000   0.5000000  -0.3000000), wk =   0.0480000
        k(   11) = (   0.6000000  -0.4000000   0.6000000), wk =   0.0480000
        k(   12) = (   0.5000000  -0.3000000   0.5000000), wk =   0.0480000
        k(   13) = (   0.4000000  -0.2000000   0.4000000), wk =   0.0480000
        k(   14) = (   0.3000000  -0.1000000   0.3000000), wk =   0.0480000
        k(   15) = (   0.2000000   0.0000000   0.2000000), wk =   0.0240000
        k(   16) = (   0.0000000   0.4000000   0.0000000), wk =   0.0120000
        k(   17) = (  -0.1000000   0.5000000  -0.1000000), wk =   0.0480000
        k(   18) = (  -0.2000000   0.6000000  -0.2000000), wk =   0.0480000
        k(   19) = (   0.7000000  -0.3000000   0.7000000), wk =   0.0480000
        k(   20) = (   0.6000000  -0.2000000   0.6000000), wk =   0.0480000
        k(   21) = (   0.5000000  -0.1000000   0.5000000), wk =   0.0480000
        k(   22) = (   0.4000000   0.0000000   0.4000000), wk =   0.0240000
        k(   23) = (   0.0000000   0.6000000   0.0000000), wk =   0.0120000
        k(   24) = (  -0.1000000   0.7000000  -0.1000000), wk =   0.0480000
        k(   25) = (   0.8000000  -0.2000000   0.8000000), wk =   0.0480000
        k(   26) = (   0.7000000  -0.1000000   0.7000000), wk =   0.0480000
        k(   27) = (   0.6000000  -0.0000000   0.6000000), wk =   0.0240000
        k(   28) = (   0.0000000   0.8000000   0.0000000), wk =   0.0120000
        k(   29) = (   0.9000000  -0.1000000   0.9000000), wk =   0.0480000
        k(   30) = (   0.8000000   0.0000000   0.8000000), wk =   0.0240000
        k(   31) = (   0.0000000  -1.0000000   0.0000000), wk =   0.0060000
        k(   32) = (  -0.2000000   0.4000000   0.0000000), wk =   0.0480000
        k(   33) = (  -0.3000000   0.5000000  -0.1000000), wk =   0.0960000
        k(   34) = (   0.6000000  -0.4000000   0.8000000), wk =   0.0960000
        k(   35) = (   0.5000000  -0.3000000   0.7000000), wk =   0.0480000
        k(   36) = (  -0.2000000   0.6000000   0.0000000), wk =   0.0480000
        k(   37) = (   0.7000000  -0.3000000   0.9000000), wk =   0.0960000
        k(   38) = (   0.6000000  -0.2000000   0.8000000), wk =   0.0960000
        k(   39) = (   0.5000000  -0.1000000   0.7000000), wk =   0.0960000
        k(   40) = (   0.4000000   0.0000000   0.6000000), wk =   0.0480000
        k(   41) = (   0.8000000  -0.2000000   1.0000000), wk =   0.0480000
        k(   42) = (   0.7000000  -0.1000000   0.9000000), wk =   0.0960000
        k(   43) = (   0.6000000   0.0000000   0.8000000), wk =   0.0480000
        k(   44) = (  -0.2000000  -1.0000000   0.0000000), wk =   0.0240000
        k(   45) = (   0.6000000  -0.2000000   1.0000000), wk =   0.0480000
        k(   46) = (   0.5000000  -0.1000000   0.9000000), wk =   0.0480000
        k(   47) = (  -0.4000000  -1.0000000   0.0000000), wk =   0.0240000

     Dense  grid:     5985 G-vectors     FFT dimensions: (  32,  32,  32)

     Estimated max dynamical RAM per process >      12.77 MB

     WARNING: libxc functional with ID  263 depends
      on external parameters: check the user_guide of
      QE if you need to modify them or to check their
      default values.

     Initial potential from superposition of free atoms

     starting charge       7.9999, renormalised to       8.0000
     Starting wfcs are    8 randomized atomic wfcs

     total cpu time spent up to now is        1.7 secs

     Self-consistent Calculation

     iteration #  1     ecut=    50.00 Ry     beta= 0.01
     Davidson diagonalization with overlap
     ethr =  1.00E-02,  avg # of iterations =  2.0

     total cpu time spent up to now is        4.0 secs

     total energy              =     -22.45945114 Ry
     estimated scf accuracy    <       1.09689651 Ry

     iteration #  2     ecut=    50.00 Ry     beta= 0.01
     Davidson diagonalization with overlap
     ethr =  1.00E-02,  avg # of iterations =  1.0

     total cpu time spent up to now is        5.9 secs

     total energy              =     -22.27595182 Ry
     estimated scf accuracy    <       1.11794469 Ry

     iteration #  3     ecut=    50.00 Ry     beta= 0.01
     Davidson diagonalization with overlap
     ethr =  1.00E-02,  avg # of iterations =  1.0

     total cpu time spent up to now is        7.8 secs

     total energy              =     -22.50028837 Ry
     estimated scf accuracy    <       2.36286058 Ry

     iteration #  4     ecut=    50.00 Ry     beta= 0.01
     Davidson diagonalization with overlap
     ethr =  1.00E-02,  avg # of iterations =  1.0

     total cpu time spent up to now is        9.6 secs

     total energy              =     -22.51729076 Ry
     estimated scf accuracy    <       0.00419490 Ry

     iteration #  5     ecut=    50.00 Ry     beta= 0.01
     Davidson diagonalization with overlap
     ethr =  5.24E-05,  avg # of iterations =  2.0

     total cpu time spent up to now is       11.7 secs

     total energy              =     -22.51770069 Ry
     estimated scf accuracy    <       0.00502691 Ry

     iteration #  6     ecut=    50.00 Ry     beta= 0.01
     Davidson diagonalization with overlap
     ethr =  5.24E-05,  avg # of iterations =  1.0

     total cpu time spent up to now is       12.9 secs

     total energy              =     -22.51716345 Ry
     estimated scf accuracy    <       0.00394937 Ry

     iteration #  7     ecut=    50.00 Ry     beta= 0.01
     Davidson diagonalization with overlap
     ethr =  4.94E-05,  avg # of iterations =  1.0

     total cpu time spent up to now is       14.5 secs

     total energy              =     -22.51698841 Ry
     estimated scf accuracy    <       0.00108755 Ry

     iteration #  8     ecut=    50.00 Ry     beta= 0.01
     Davidson diagonalization with overlap
     ethr =  1.36E-05,  avg # of iterations =  2.0

     total cpu time spent up to now is       16.6 secs

     total energy              =     -22.51713126 Ry
     estimated scf accuracy    <       0.00241648 Ry

     iteration #  9     ecut=    50.00 Ry     beta= 0.01
     Davidson diagonalization with overlap
     ethr =  1.36E-05,  avg # of iterations =  1.0

     total cpu time spent up to now is       17.8 secs

     total energy              =     -22.51714812 Ry
     estimated scf accuracy    <       0.00226578 Ry

     iteration # 10     ecut=    50.00 Ry     beta= 0.01
     Davidson diagonalization with overlap
     ethr =  1.36E-05,  avg # of iterations =  1.0

     total cpu time spent up to now is       18.8 secs

     total energy              =     -22.51720355 Ry
     estimated scf accuracy    <       0.00182764 Ry

     iteration # 11     ecut=    50.00 Ry     beta= 0.01
     Davidson diagonalization with overlap
     ethr =  1.36E-05,  avg # of iterations =  1.0

     total cpu time spent up to now is       19.7 secs

     total energy              =     -22.51721300 Ry
     estimated scf accuracy    <       0.00006203 Ry

     iteration # 12     ecut=    50.00 Ry     beta= 0.01
     Davidson diagonalization with overlap
     ethr =  7.75E-07,  avg # of iterations =  1.0

     total cpu time spent up to now is       20.7 secs

     total energy              =     -22.51721381 Ry
     estimated scf accuracy    <       0.00001771 Ry

     iteration # 13     ecut=    50.00 Ry     beta= 0.01
     Davidson diagonalization with overlap
     ethr =  2.21E-07,  avg # of iterations =  1.0

     total cpu time spent up to now is       21.5 secs

     total energy              =     -22.51721587 Ry
     estimated scf accuracy    <       0.00001129 Ry

     iteration # 14     ecut=    50.00 Ry     beta= 0.01
     Davidson diagonalization with overlap
     ethr =  1.41E-07,  avg # of iterations =  1.0

     total cpu time spent up to now is       22.0 secs

     End of self-consistent calculation

          k = 0.0000 0.0000 0.0000 (   749 PWs)   bands (ev):

   -10.9666   5.8727   5.8727   5.8727

          k =-0.1000 0.1000-0.1000 (   743 PWs)   bands (ev):

   -10.7675   4.4741   5.6085   5.6085

          k =-0.2000 0.2000-0.2000 (   760 PWs)   bands (ev):

   -10.1798   2.0008   5.0443   5.0443

          k =-0.3000 0.3000-0.3000 (   763 PWs)   bands (ev):

    -9.2427  -0.4970   4.5137   4.5137

          k =-0.4000 0.4000-0.4000 (   763 PWs)   bands (ev):

    -8.0960  -2.6360   4.1568   4.1568

          k = 0.5000-0.5000 0.5000 (   754 PWs)   bands (ev):

    -7.3880  -3.6803   4.0337   4.0337

          k = 0.0000 0.2000 0.0000 (   753 PWs)   bands (ev):

   -10.7010   4.6916   5.1624   5.1624

          k =-0.1000 0.3000-0.1000 (   755 PWs)   bands (ev):

   -10.2418   2.7260   4.5483   4.7910

          k =-0.2000 0.4000-0.2000 (   764 PWs)   bands (ev):

    -9.4159   0.3162   4.0368   4.2012

          k =-0.3000 0.5000-0.3000 (   760 PWs)   bands (ev):

    -8.3110  -1.9248   3.6221   3.7592

          k = 0.6000-0.4000 0.6000 (   757 PWs)   bands (ev):

    -7.3181  -3.4561   3.2215   3.7502

          k = 0.5000-0.3000 0.5000 (   759 PWs)   bands (ev):

    -7.5800  -3.0829   3.0652   4.0004

          k = 0.4000-0.2000 0.4000 (   754 PWs)   bands (ev):

    -8.7015  -1.2120   3.1911   4.4733

          k = 0.3000-0.1000 0.3000 (   762 PWs)   bands (ev):

    -9.7307   1.1062   3.6225   5.0552

          k = 0.2000 0.0000 0.2000 (   763 PWs)   bands (ev):

   -10.4386   3.2773   4.4642   5.5446

          k = 0.0000 0.4000 0.0000 (   753 PWs)   bands (ev):

    -9.9126   2.4697   3.8982   3.8982

          k =-0.1000 0.5000-0.1000 (   756 PWs)   bands (ev):

    -9.2084   0.7657   3.2618   3.3692

          k =-0.2000 0.6000-0.2000 (   752 PWs)   bands (ev):

    -8.1859  -1.2428   2.4749   3.0931

          k = 0.7000-0.3000 0.7000 (   757 PWs)   bands (ev):

    -7.0714  -2.9483   1.7883   3.1081

          k = 0.6000-0.2000 0.6000 (   753 PWs)   bands (ev):

    -6.8327  -3.2547   1.3825   3.4123

          k = 0.5000-0.1000 0.5000 (   759 PWs)   bands (ev):

    -7.8321  -1.8195   1.3734   3.9472

          k = 0.4000 0.0000 0.4000 (   758 PWs)   bands (ev):

    -8.9196  -0.0752   2.0261   4.5791

          k = 0.0000 0.6000 0.0000 (   745 PWs)   bands (ev):

    -8.6268   0.0241   2.7974   2.7974

          k =-0.1000 0.7000-0.1000 (   758 PWs)   bands (ev):

    -7.7085  -1.3878   2.0476   2.4744

          k = 0.8000-0.2000 0.8000 (   756 PWs)   bands (ev):

    -6.5835  -2.8182   1.0208   2.4546

          k = 0.7000-0.1000 0.7000 (   749 PWs)   bands (ev):

    -5.9440  -3.5098   0.2806   2.7439

          k = 0.6000-0.0000 0.6000 (   752 PWs)   bands (ev):

    -6.7457  -2.6619   0.2545   3.2838

          k = 0.0000 0.8000 0.0000 (   753 PWs)   bands (ev):

    -6.8950  -2.4450   2.0882   2.0882

          k = 0.9000-0.1000 0.9000 (   753 PWs)   bands (ev):

    -5.8182  -3.6443   1.4268   2.0059

          k = 0.8000 0.0000 0.8000 (   746 PWs)   bands (ev):

    -5.1033  -4.2584   0.4813   2.2366

          k = 0.0000-1.0000 0.0000 (   740 PWs)   bands (ev):

    -4.7957  -4.7957   1.8483   1.8483

          k =-0.2000 0.4000 0.0000 (   760 PWs)   bands (ev):

    -9.6608   1.4470   3.2248   4.5189

          k =-0.3000 0.5000-0.1000 (   758 PWs)   bands (ev):

    -8.7338  -0.5002   2.4180   4.0001

          k = 0.6000-0.4000 0.8000 (   752 PWs)   bands (ev):

    -7.5969  -2.4454   2.0829   3.5135

          k = 0.5000-0.3000 0.7000 (   752 PWs)   bands (ev):

    -6.8871  -3.4459   1.9940   3.3174

          k =-0.2000 0.6000 0.0000 (   754 PWs)   bands (ev):

    -8.3984  -0.4884   2.1729   3.0560

          k = 0.7000-0.3000 0.9000 (   755 PWs)   bands (ev):

    -7.3145  -2.0394   1.3738   2.6223

          k = 0.6000-0.2000 0.8000 (   751 PWs)   bands (ev):

    -6.3293  -3.2831   0.8337   2.5340

          k = 0.5000-0.1000 0.7000 (   749 PWs)   bands (ev):

    -6.6320  -2.9047   0.6325   2.8568

          k = 0.4000 0.0000 0.6000 (   756 PWs)   bands (ev):

    -7.7395  -1.5523   1.0595   3.4360

          k = 0.8000-0.2000 1.0000 (   754 PWs)   bands (ev):

    -6.7144  -2.5731   1.5449   1.9552

          k = 0.7000-0.1000 0.9000 (   747 PWs)   bands (ev):

    -5.6181  -3.6781   0.6844   1.8445

          k = 0.6000 0.0000 0.8000 (   744 PWs)   bands (ev):

    -5.6117  -3.6477   0.1389   2.2152

          k =-0.2000-1.0000 0.0000 (   754 PWs)   bands (ev):

    -4.7153  -4.7153   1.4519   1.4519

          k = 0.6000-0.2000 1.0000 (   750 PWs)   bands (ev):

    -6.2269  -3.0044   0.6198   1.9286

          k = 0.5000-0.1000 0.9000 (   746 PWs)   bands (ev):

    -5.4702  -3.7316   0.4103   1.5983

          k =-0.4000-1.0000 0.0000 (   746 PWs)   bands (ev):

    -4.5738  -4.5738   0.8853   0.8853

     highest occupied level (ev):     5.8727

!    total energy              =     -22.51721627 Ry
     estimated scf accuracy    <       0.00000011 Ry

     The total energy is the sum of the following terms:
     one-electron contribution =       2.98033945 Ry
     hartree contribution      =       2.50911463 Ry
     xc contribution           =      -6.35850570 Ry
     ewald contribution        =     -21.64816466 Ry

     convergence has been achieved in  14 iterations
     Writing meta-gga kinetic term

     Writing all to output data dir ./input_pw/C/11/pwscf.save/
     Writing meta-gga kinetic term
 
     init_run     :      0.79s CPU      1.64s WALL (       1 calls)
     electrons    :     13.30s CPU     20.35s WALL (       1 calls)

     Called by init_run:
     wfcinit      :      0.72s CPU      1.48s WALL (       1 calls)
     potinit      :      0.02s CPU      0.05s WALL (       1 calls)
     hinit0       :      0.03s CPU      0.08s WALL (       1 calls)

     Called by electrons:
     c_bands      :     10.39s CPU     15.90s WALL (      14 calls)
     sum_band     :      2.54s CPU      3.92s WALL (      14 calls)
     v_of_rho     :      0.28s CPU      0.43s WALL (      15 calls)
     mix_rho      :      0.10s CPU      0.14s WALL (      14 calls)

     Called by c_bands:
     init_us_2    :      0.04s CPU      0.07s WALL (    1363 calls)
     init_us_2:cp :      0.04s CPU      0.07s WALL (    1363 calls)
     cegterg      :     10.34s CPU     15.84s WALL (     658 calls)

     Called by *egterg:
     cdiaghg      :      0.06s CPU      0.10s WALL (    1455 calls)
     h_psi        :     10.84s CPU     16.92s WALL (    1502 calls)
     g_psi        :      0.01s CPU      0.01s WALL (     797 calls)

     Called by h_psi:
     h_psi:calbec :      0.02s CPU      0.05s WALL (    1502 calls)
     vloc_psi     :      2.69s CPU      4.01s WALL (    1502 calls)
     add_vuspsi   :      0.03s CPU      0.03s WALL (    1502 calls)
     h_psi_meta   :      8.09s CPU     12.81s WALL (    1502 calls)

     General routines
     calbec       :      0.01s CPU      0.05s WALL (    1502 calls)
     fft          :      0.03s CPU      0.09s WALL (     177 calls)
     ffts         :      0.05s CPU      0.05s WALL (     263 calls)
     fftw         :     11.28s CPU     17.53s WALL (   58520 calls)
     interpolate  :      0.00s CPU      0.00s WALL (      15 calls)
 
     Parallel routines
 
     PWSCF        :     14.12s CPU     22.05s WALL

 
   This run was terminated on:  11:48:38  14Mar2023            

=------------------------------------------------------------------------------=
   JOB DONE.
=------------------------------------------------------------------------------=
