
     Program PWSCF v.7.0 starts on 29Mar2023 at 12:34:19 

     This program is part of the open-source Quantum ESPRESSO suite
     for quantum simulation of materials; please cite
         "P. Giannozzi et al., J. Phys.:Condens. Matter 21 395502 (2009);
         "P. Giannozzi et al., J. Phys.:Condens. Matter 29 465901 (2017);
         "P. Giannozzi et al., J. Chem. Phys. 152 154105 (2020);
          URL http://www.quantum-espresso.org", 
     in publications or presentations arising from this work. More details at
     http://www.quantum-espresso.org/quote

     Parallel version (MPI), running on     1 processors

     MPI processes distributed on     1 nodes
     23010 MiB available memory on the printing compute node when the environment starts
 
     Waiting for input...
     Reading input from standard input
Warning: card &CELL ignored
Warning: card / ignored

     Current dimensions of program PWSCF are:
     Max number of different atomic species (ntypx) = 10
     Max number of k-points (npk) =  40000
     Max angular momentum in pseudopotentials (lmaxx) =  4

     WARNING: the MGGA functional with ID    5 has been 
     read together with other dft terms, but it should 
     stand alone in order to work properly. The other 
     terms will be ignored.

     Subspace diagonalization in iterative solution of the eigenvalue problem:
     a serial algorithm will be used

 
     G-vector sticks info
     --------------------
     sticks:   dense  smooth     PW     G-vecs:    dense   smooth      PW
     Sum         313     313    109                 3527     3527     725
 
     Using Slab Decomposition
 


     bravais-lattice index     =            2
     lattice parameter (alat)  =       6.6696  a.u.
     unit-cell volume          =      74.1719 (a.u.)^3
     number of atoms/cell      =            2
     number of atomic types    =            1
     number of electrons       =         8.00
     number of Kohn-Sham states=            4
     kinetic-energy cutoff     =      50.0000  Ry
     charge density cutoff     =     200.0000  Ry
     scf convergence threshold =      1.0E-06
     mixing beta               =       0.0100
     number of iterations used =            8  local-TF  mixing
     Exchange-correlation= SLA  PW   SCAN SCAN
                           (   0   0   0   0   0 263 267)

     celldm(1)=   6.669599  celldm(2)=   0.000000  celldm(3)=   0.000000
     celldm(4)=   0.000000  celldm(5)=   0.000000  celldm(6)=   0.000000

     crystal axes: (cart. coord. in units of alat)
               a(1) = (  -0.500000   0.000000   0.500000 )  
               a(2) = (   0.000000   0.500000   0.500000 )  
               a(3) = (  -0.500000   0.500000   0.000000 )  

     reciprocal axes: (cart. coord. in units 2 pi/alat)
               b(1) = ( -1.000000 -1.000000  1.000000 )  
               b(2) = (  1.000000  1.000000  1.000000 )  
               b(3) = ( -1.000000  1.000000 -1.000000 )  


     PseudoPot. # 1 for C  read from file:
     ~/Documents/TA/PWDFT.jl/pseudopotentials/scan_upf/C.SCAN.UPF2
     MD5 check sum: Not computed, couldn't open file
     Pseudo is Norm-conserving, Zval =  4.0
     Generated by new atomic code, or converted to UPF format
     Using radial grid of 1389 points,  1 beta functions with: 
                l(1) =   0

     atomic species   valence    mass     pseudopotential
        C              4.00    12.01100     C ( 1.00)

     48 Sym. Ops., with inversion, found (24 have fractional translation)



   Cartesian axes

     site n.     atom                  positions (alat units)
         1           C   tau(   1) = (   0.0000000   0.0000000   0.0000000  )
         2           C   tau(   2) = (   0.2500000   0.2500000   0.2500000  )

     number of k points=    47
                       cart. coord. in units 2pi/alat
        k(    1) = (   0.0000000   0.0000000   0.0000000), wk =   0.0020000
        k(    2) = (  -0.1000000   0.1000000  -0.1000000), wk =   0.0160000
        k(    3) = (  -0.2000000   0.2000000  -0.2000000), wk =   0.0160000
        k(    4) = (  -0.3000000   0.3000000  -0.3000000), wk =   0.0160000
        k(    5) = (  -0.4000000   0.4000000  -0.4000000), wk =   0.0160000
        k(    6) = (   0.5000000  -0.5000000   0.5000000), wk =   0.0080000
        k(    7) = (   0.0000000   0.2000000   0.0000000), wk =   0.0120000
        k(    8) = (  -0.1000000   0.3000000  -0.1000000), wk =   0.0480000
        k(    9) = (  -0.2000000   0.4000000  -0.2000000), wk =   0.0480000
        k(   10) = (  -0.3000000   0.5000000  -0.3000000), wk =   0.0480000
        k(   11) = (   0.6000000  -0.4000000   0.6000000), wk =   0.0480000
        k(   12) = (   0.5000000  -0.3000000   0.5000000), wk =   0.0480000
        k(   13) = (   0.4000000  -0.2000000   0.4000000), wk =   0.0480000
        k(   14) = (   0.3000000  -0.1000000   0.3000000), wk =   0.0480000
        k(   15) = (   0.2000000   0.0000000   0.2000000), wk =   0.0240000
        k(   16) = (   0.0000000   0.4000000   0.0000000), wk =   0.0120000
        k(   17) = (  -0.1000000   0.5000000  -0.1000000), wk =   0.0480000
        k(   18) = (  -0.2000000   0.6000000  -0.2000000), wk =   0.0480000
        k(   19) = (   0.7000000  -0.3000000   0.7000000), wk =   0.0480000
        k(   20) = (   0.6000000  -0.2000000   0.6000000), wk =   0.0480000
        k(   21) = (   0.5000000  -0.1000000   0.5000000), wk =   0.0480000
        k(   22) = (   0.4000000   0.0000000   0.4000000), wk =   0.0240000
        k(   23) = (   0.0000000   0.6000000   0.0000000), wk =   0.0120000
        k(   24) = (  -0.1000000   0.7000000  -0.1000000), wk =   0.0480000
        k(   25) = (   0.8000000  -0.2000000   0.8000000), wk =   0.0480000
        k(   26) = (   0.7000000  -0.1000000   0.7000000), wk =   0.0480000
        k(   27) = (   0.6000000  -0.0000000   0.6000000), wk =   0.0240000
        k(   28) = (   0.0000000   0.8000000   0.0000000), wk =   0.0120000
        k(   29) = (   0.9000000  -0.1000000   0.9000000), wk =   0.0480000
        k(   30) = (   0.8000000   0.0000000   0.8000000), wk =   0.0240000
        k(   31) = (   0.0000000  -1.0000000   0.0000000), wk =   0.0060000
        k(   32) = (  -0.2000000   0.4000000   0.0000000), wk =   0.0480000
        k(   33) = (  -0.3000000   0.5000000  -0.1000000), wk =   0.0960000
        k(   34) = (   0.6000000  -0.4000000   0.8000000), wk =   0.0960000
        k(   35) = (   0.5000000  -0.3000000   0.7000000), wk =   0.0480000
        k(   36) = (  -0.2000000   0.6000000   0.0000000), wk =   0.0480000
        k(   37) = (   0.7000000  -0.3000000   0.9000000), wk =   0.0960000
        k(   38) = (   0.6000000  -0.2000000   0.8000000), wk =   0.0960000
        k(   39) = (   0.5000000  -0.1000000   0.7000000), wk =   0.0960000
        k(   40) = (   0.4000000   0.0000000   0.6000000), wk =   0.0480000
        k(   41) = (   0.8000000  -0.2000000   1.0000000), wk =   0.0480000
        k(   42) = (   0.7000000  -0.1000000   0.9000000), wk =   0.0960000
        k(   43) = (   0.6000000   0.0000000   0.8000000), wk =   0.0480000
        k(   44) = (  -0.2000000  -1.0000000   0.0000000), wk =   0.0240000
        k(   45) = (   0.6000000  -0.2000000   1.0000000), wk =   0.0480000
        k(   46) = (   0.5000000  -0.1000000   0.9000000), wk =   0.0480000
        k(   47) = (  -0.4000000  -1.0000000   0.0000000), wk =   0.0240000

     Dense  grid:     3527 G-vectors     FFT dimensions: (  24,  24,  24)

     Estimated max dynamical RAM per process >       6.90 MB

     WARNING: libxc functional with ID  263 depends
      on external parameters: check the user_guide of
      QE if you need to modify them or to check their
      default values.

     Initial potential from superposition of free atoms

     starting charge       7.9999, renormalised to       8.0000
     Starting wfcs are    8 randomized atomic wfcs

     total cpu time spent up to now is        1.2 secs

     Self-consistent Calculation

     iteration #  1     ecut=    50.00 Ry     beta= 0.01
     Davidson diagonalization with overlap
     ethr =  1.00E-02,  avg # of iterations =  2.0

     total cpu time spent up to now is        2.8 secs

     total energy              =     -22.61477923 Ry
     estimated scf accuracy    <       2.20110029 Ry

     iteration #  2     ecut=    50.00 Ry     beta= 0.01
     Davidson diagonalization with overlap
     ethr =  1.00E-02,  avg # of iterations =  1.0

     total cpu time spent up to now is        4.1 secs

     total energy              =     -22.51255692 Ry
     estimated scf accuracy    <       2.20669717 Ry

     iteration #  3     ecut=    50.00 Ry     beta= 0.01
     Davidson diagonalization with overlap
     ethr =  1.00E-02,  avg # of iterations =  1.0

     total cpu time spent up to now is        5.4 secs

     total energy              =     -22.72580627 Ry
     estimated scf accuracy    <       4.75026369 Ry

     iteration #  4     ecut=    50.00 Ry     beta= 0.01
     Davidson diagonalization with overlap
     ethr =  1.00E-02,  avg # of iterations =  1.0

     total cpu time spent up to now is        6.7 secs

     total energy              =     -22.73838487 Ry
     estimated scf accuracy    <       0.01539548 Ry

     iteration #  5     ecut=    50.00 Ry     beta= 0.01
     Davidson diagonalization with overlap
     ethr =  1.92E-04,  avg # of iterations =  1.0

     total cpu time spent up to now is        8.0 secs

     total energy              =     -22.73867276 Ry
     estimated scf accuracy    <       0.02236050 Ry

     iteration #  6     ecut=    50.00 Ry     beta= 0.01
     Davidson diagonalization with overlap
     ethr =  1.92E-04,  avg # of iterations =  1.0

     total cpu time spent up to now is        9.4 secs

     total energy              =     -22.73627647 Ry
     estimated scf accuracy    <       0.02066240 Ry

     iteration #  7     ecut=    50.00 Ry     beta= 0.01
     Davidson diagonalization with overlap
     ethr =  1.92E-04,  avg # of iterations =  1.0

     total cpu time spent up to now is       10.7 secs

     total energy              =     -22.73449107 Ry
     estimated scf accuracy    <       0.00881523 Ry

     iteration #  8     ecut=    50.00 Ry     beta= 0.01
     Davidson diagonalization with overlap
     ethr =  1.10E-04,  avg # of iterations =  2.0

     total cpu time spent up to now is       12.2 secs

     total energy              =     -22.73538505 Ry
     estimated scf accuracy    <       0.00489233 Ry

     iteration #  9     ecut=    50.00 Ry     beta= 0.01
     Davidson diagonalization with overlap
     ethr =  6.12E-05,  avg # of iterations =  1.0

     total cpu time spent up to now is       13.5 secs

     total energy              =     -22.73532866 Ry
     estimated scf accuracy    <       0.00481829 Ry

     iteration # 10     ecut=    50.00 Ry     beta= 0.01
     Davidson diagonalization with overlap
     ethr =  6.02E-05,  avg # of iterations =  1.0

     total cpu time spent up to now is       14.6 secs

     total energy              =     -22.73520102 Ry
     estimated scf accuracy    <       0.00296254 Ry

     iteration # 11     ecut=    50.00 Ry     beta= 0.01
     Davidson diagonalization with overlap
     ethr =  3.70E-05,  avg # of iterations =  1.0

     total cpu time spent up to now is       15.5 secs

     total energy              =     -22.73525253 Ry
     estimated scf accuracy    <       0.00003314 Ry

     iteration # 12     ecut=    50.00 Ry     beta= 0.01
     Davidson diagonalization with overlap
     ethr =  4.14E-07,  avg # of iterations =  2.0

     total cpu time spent up to now is       17.1 secs

     total energy              =     -22.73524881 Ry
     estimated scf accuracy    <       0.00044916 Ry

     iteration # 13     ecut=    50.00 Ry     beta= 0.01
     Davidson diagonalization with overlap
     ethr =  4.14E-07,  avg # of iterations =  1.0

     total cpu time spent up to now is       18.1 secs

     total energy              =     -22.73525060 Ry
     estimated scf accuracy    <       0.00007352 Ry

     iteration # 14     ecut=    50.00 Ry     beta= 0.01
     Davidson diagonalization with overlap
     ethr =  4.14E-07,  avg # of iterations =  1.0

     total cpu time spent up to now is       19.1 secs

     total energy              =     -22.73525205 Ry
     estimated scf accuracy    <       0.00001970 Ry

     iteration # 15     ecut=    50.00 Ry     beta= 0.01
     Davidson diagonalization with overlap
     ethr =  2.46E-07,  avg # of iterations =  1.0

     total cpu time spent up to now is       20.1 secs

     total energy              =     -22.73525202 Ry
     estimated scf accuracy    <       0.00001425 Ry

     iteration # 16     ecut=    50.00 Ry     beta= 0.01
     Davidson diagonalization with overlap
     ethr =  1.78E-07,  avg # of iterations =  1.0

     total cpu time spent up to now is       20.7 secs

     total energy              =     -22.73525130 Ry
     estimated scf accuracy    <       0.00001105 Ry

     iteration # 17     ecut=    50.00 Ry     beta= 0.01
     Davidson diagonalization with overlap
     ethr =  1.38E-07,  avg # of iterations =  1.0

     total cpu time spent up to now is       21.4 secs

     End of self-consistent calculation

          k = 0.0000 0.0000 0.0000 (   459 PWs)   bands (ev):

    -9.0324  13.8172  13.8172  13.8172

          k =-0.1000 0.1000-0.1000 (   441 PWs)   bands (ev):

    -8.7368  12.0510  13.3452  13.3452

          k =-0.2000 0.2000-0.2000 (   459 PWs)   bands (ev):

    -7.8574   8.6328  12.4042  12.4042

          k =-0.3000 0.3000-0.3000 (   450 PWs)   bands (ev):

    -6.4157   5.0296  11.5526  11.5526

          k =-0.4000 0.4000-0.4000 (   431 PWs)   bands (ev):

    -4.4908   1.7034  11.0114  11.0114

          k = 0.5000-0.5000 0.5000 (   434 PWs)   bands (ev):

    -2.8983  -0.3719  10.8226  10.8226

          k = 0.0000 0.2000 0.0000 (   443 PWs)   bands (ev):

    -8.6383  12.5143  12.5143  12.8951

          k =-0.1000 0.3000-0.1000 (   450 PWs)   bands (ev):

    -7.9539   9.8202  11.4771  12.4007

          k =-0.2000 0.4000-0.2000 (   449 PWs)   bands (ev):

    -6.6988   6.3442  10.6788  11.4765

          k =-0.3000 0.5000-0.3000 (   441 PWs)   bands (ev):

    -4.9234   2.9508  10.2686  10.5497

          k = 0.6000-0.4000 0.6000 (   445 PWs)   bands (ev):

    -2.9495   0.2001   9.8756  10.3020

          k = 0.5000-0.3000 0.5000 (   445 PWs)   bands (ev):

    -3.5598   0.9714   9.5578  10.7399

          k = 0.4000-0.2000 0.4000 (   442 PWs)   bands (ev):

    -5.5671   4.0581   9.6669  11.5246

          k = 0.3000-0.1000 0.3000 (   451 PWs)   bands (ev):

    -7.1795   7.5307  10.2142  12.4976

          k = 0.2000 0.0000 0.2000 (   449 PWs)   bands (ev):

    -8.2467  10.7031  11.3441  13.3107

          k = 0.0000 0.4000 0.0000 (   443 PWs)   bands (ev):

    -7.4664  10.3786  10.3786  10.5648

          k =-0.1000 0.5000-0.1000 (   449 PWs)   bands (ev):

    -6.4066   7.6234   9.5303   9.9494

          k =-0.2000 0.6000-0.2000 (   441 PWs)   bands (ev):

    -4.8102   4.4779   8.8320   9.1165

          k = 0.7000-0.3000 0.7000 (   445 PWs)   bands (ev):

    -2.8327   1.5737   7.7648   9.1806

          k = 0.6000-0.2000 0.6000 (   440 PWs)   bands (ev):

    -2.2576   0.8856   7.0526   9.7125

          k = 0.5000-0.1000 0.5000 (   436 PWs)   bands (ev):

    -4.1892   3.5404   6.8184  10.6212

          k = 0.4000 0.0000 0.4000 (   449 PWs)   bands (ev):

    -5.9386   6.4057   7.4390  11.6938

          k = 0.0000 0.6000 0.0000 (   444 PWs)   bands (ev):

    -5.5448   7.3835   8.5959   8.5959

          k =-0.1000 0.7000-0.1000 (   441 PWs)   bands (ev):

    -4.1414   5.2693   7.4467   8.0950

          k = 0.8000-0.2000 0.8000 (   439 PWs)   bands (ev):

    -2.2894   2.9414   5.8353   8.0902

          k = 0.7000-0.1000 0.7000 (   446 PWs)   bands (ev):

    -0.8640   1.4265   4.6164   8.5776

          k = 0.6000-0.0000 0.6000 (   437 PWs)   bands (ev):

    -2.3829   3.0412   4.4136   9.4914

          k = 0.0000 0.8000 0.0000 (   448 PWs)   bands (ev):

    -2.9343   3.7997   7.4674   7.4674

          k = 0.9000-0.1000 0.9000 (   450 PWs)   bands (ev):

    -1.2535   2.0567   6.3000   7.3428

          k = 0.8000 0.0000 0.8000 (   434 PWs)   bands (ev):

     0.2941   0.9547   4.4973   7.7408

          k = 0.0000-1.0000 0.0000 (   444 PWs)   bands (ev):

     0.2518   0.2518   7.0849   7.0849

          k =-0.2000 0.4000 0.0000 (   445 PWs)   bands (ev):

    -7.0812   8.4737   9.3292  11.7976

          k =-0.3000 0.5000-0.1000 (   440 PWs)   bands (ev):

    -5.6538   5.4698   8.4037  10.8433

          k = 0.6000-0.4000 0.8000 (   437 PWs)   bands (ev):

    -3.7566   2.3224   8.1514   9.9186

          k = 0.5000-0.3000 0.7000 (   440 PWs)   bands (ev):

    -2.2042   0.3258   8.1472   9.5064

          k =-0.2000 0.6000 0.0000 (   443 PWs)   bands (ev):

    -5.1745   6.3099   7.6317   9.2010

          k = 0.7000-0.3000 0.9000 (   442 PWs)   bands (ev):

    -3.4424   3.8222   6.7011   8.3054

          k = 0.6000-0.2000 0.8000 (   442 PWs)   bands (ev):

    -1.5500   1.4235   6.0249   8.1262

          k = 0.5000-0.1000 0.7000 (   435 PWs)   bands (ev):

    -2.1562   2.1887   5.5298   8.7410

          k = 0.4000 0.0000 0.6000 (   435 PWs)   bands (ev):

    -4.0857   4.5999   5.8546   9.7901

          k = 0.8000-0.2000 1.0000 (   445 PWs)   bands (ev):

    -2.5983   3.6981   6.5879   7.1094

          k = 0.7000-0.1000 0.9000 (   439 PWs)   bands (ev):

    -0.7201   2.0549   4.9542   6.9792

          k = 0.6000 0.0000 0.8000 (   443 PWs)   bands (ev):

    -0.4154   1.8751   3.9325   7.6367

          k =-0.2000-1.0000 0.0000 (   450 PWs)   bands (ev):

     0.4867   0.4867   6.3472   6.3472

          k = 0.6000-0.2000 1.0000 (   446 PWs)   bands (ev):

    -1.6544   3.0112   4.9776   7.0268

          k = 0.5000-0.1000 0.9000 (   444 PWs)   bands (ev):

    -0.2059   1.7335   4.6481   6.4126

          k =-0.4000-1.0000 0.0000 (   436 PWs)   bands (ev):

     0.9776   0.9776   5.1836   5.1836

     highest occupied level (ev):    13.8172

!    total energy              =     -22.73525145 Ry
     estimated scf accuracy    <       0.00000057 Ry

     The total energy is the sum of the following terms:
     one-electron contribution =       8.33512622 Ry
     hartree contribution      =       1.90998118 Ry
     xc contribution           =      -7.13509774 Ry
     ewald contribution        =     -25.84526111 Ry

     convergence has been achieved in  17 iterations
     Writing meta-gga kinetic term

     Writing all to output data dir ./input_pw/C/5/pwscf.save/
     Writing meta-gga kinetic term
 
     init_run     :      0.52s CPU      1.13s WALL (       1 calls)
     electrons    :     11.28s CPU     20.21s WALL (       1 calls)

     Called by init_run:
     wfcinit      :      0.48s CPU      1.00s WALL (       1 calls)
     potinit      :      0.01s CPU      0.04s WALL (       1 calls)
     hinit0       :      0.03s CPU      0.07s WALL (       1 calls)

     Called by electrons:
     c_bands      :      8.88s CPU     15.80s WALL (      17 calls)
     sum_band     :      2.17s CPU      3.94s WALL (      17 calls)
     v_of_rho     :      0.15s CPU      0.31s WALL (      18 calls)
     mix_rho      :      0.07s CPU      0.17s WALL (      17 calls)

     Called by c_bands:
     init_us_2    :      0.03s CPU      0.06s WALL (    1645 calls)
     init_us_2:cp :      0.03s CPU      0.06s WALL (    1645 calls)
     cegterg      :      8.83s CPU     15.68s WALL (     799 calls)

     Called by *egterg:
     cdiaghg      :      0.07s CPU      0.10s WALL (    1738 calls)
     h_psi        :      9.10s CPU     16.30s WALL (    1785 calls)
     g_psi        :      0.01s CPU      0.01s WALL (     939 calls)

     Called by h_psi:
     h_psi:calbec :      0.02s CPU      0.02s WALL (    1785 calls)
     vloc_psi     :      2.25s CPU      4.08s WALL (    1785 calls)
     add_vuspsi   :      0.02s CPU      0.05s WALL (    1785 calls)
     h_psi_meta   :      6.79s CPU     12.09s WALL (    1785 calls)

     General routines
     calbec       :      0.01s CPU      0.01s WALL (    1785 calls)
     fft          :      0.03s CPU      0.11s WALL (     213 calls)
     ffts         :      0.04s CPU      0.10s WALL (     292 calls)
     fftw         :     10.04s CPU     18.23s WALL (   70712 calls)
     interpolate  :      0.00s CPU      0.00s WALL (      18 calls)
 
     Parallel routines
 
     PWSCF        :     11.83s CPU     21.41s WALL

 
   This run was terminated on:  12:34:40  29Mar2023            

=------------------------------------------------------------------------------=
   JOB DONE.
=------------------------------------------------------------------------------=
