
     Program PWSCF v.7.0 starts on 14Mar2023 at 11:48:14 

     This program is part of the open-source Quantum ESPRESSO suite
     for quantum simulation of materials; please cite
         "P. Giannozzi et al., J. Phys.:Condens. Matter 21 395502 (2009);
         "P. Giannozzi et al., J. Phys.:Condens. Matter 29 465901 (2017);
         "P. Giannozzi et al., J. Chem. Phys. 152 154105 (2020);
          URL http://www.quantum-espresso.org", 
     in publications or presentations arising from this work. More details at
     http://www.quantum-espresso.org/quote

     Parallel version (MPI), running on     1 processors

     MPI processes distributed on     1 nodes
     27628 MiB available memory on the printing compute node when the environment starts
 
     Waiting for input...
     Reading input from standard input
Warning: card &CELL ignored
Warning: card / ignored

     Current dimensions of program PWSCF are:
     Max number of different atomic species (ntypx) = 10
     Max number of k-points (npk) =  40000
     Max angular momentum in pseudopotentials (lmaxx) =  4

     WARNING: the MGGA functional with ID    5 has been 
     read together with other dft terms, but it should 
     stand alone in order to work properly. The other 
     terms will be ignored.

     Subspace diagonalization in iterative solution of the eigenvalue problem:
     a serial algorithm will be used

 
     G-vector sticks info
     --------------------
     sticks:   dense  smooth     PW     G-vecs:    dense   smooth      PW
     Sum         313     313    109                 3695     3695     725
 
     Using Slab Decomposition
 


     bravais-lattice index     =            2
     lattice parameter (alat)  =       6.7377  a.u.
     unit-cell volume          =      76.4657 (a.u.)^3
     number of atoms/cell      =            2
     number of atomic types    =            1
     number of electrons       =         8.00
     number of Kohn-Sham states=            4
     kinetic-energy cutoff     =      50.0000  Ry
     charge density cutoff     =     200.0000  Ry
     scf convergence threshold =      1.0E-06
     mixing beta               =       0.0100
     number of iterations used =            8  local-TF  mixing
     Exchange-correlation= SLA  PW   SCAN SCAN
                           (   0   0   0   0   0 263 267)

     celldm(1)=   6.737657  celldm(2)=   0.000000  celldm(3)=   0.000000
     celldm(4)=   0.000000  celldm(5)=   0.000000  celldm(6)=   0.000000

     crystal axes: (cart. coord. in units of alat)
               a(1) = (  -0.500000   0.000000   0.500000 )  
               a(2) = (   0.000000   0.500000   0.500000 )  
               a(3) = (  -0.500000   0.500000   0.000000 )  

     reciprocal axes: (cart. coord. in units 2 pi/alat)
               b(1) = ( -1.000000 -1.000000  1.000000 )  
               b(2) = (  1.000000  1.000000  1.000000 )  
               b(3) = ( -1.000000  1.000000 -1.000000 )  


     PseudoPot. # 1 for C  read from file:
     ~/Documents/TA/PWDFT.jl/pseudopotentials/scan_upf/C.SCAN.UPF2
     MD5 check sum: Not computed, couldn't open file
     Pseudo is Norm-conserving, Zval =  4.0
     Generated by new atomic code, or converted to UPF format
     Using radial grid of 1389 points,  1 beta functions with: 
                l(1) =   0

     atomic species   valence    mass     pseudopotential
        C              4.00    12.01100     C ( 1.00)

     48 Sym. Ops., with inversion, found (24 have fractional translation)



   Cartesian axes

     site n.     atom                  positions (alat units)
         1           C   tau(   1) = (   0.0000000   0.0000000   0.0000000  )
         2           C   tau(   2) = (   0.2500000   0.2500000   0.2500000  )

     number of k points=    47
                       cart. coord. in units 2pi/alat
        k(    1) = (   0.0000000   0.0000000   0.0000000), wk =   0.0020000
        k(    2) = (  -0.1000000   0.1000000  -0.1000000), wk =   0.0160000
        k(    3) = (  -0.2000000   0.2000000  -0.2000000), wk =   0.0160000
        k(    4) = (  -0.3000000   0.3000000  -0.3000000), wk =   0.0160000
        k(    5) = (  -0.4000000   0.4000000  -0.4000000), wk =   0.0160000
        k(    6) = (   0.5000000  -0.5000000   0.5000000), wk =   0.0080000
        k(    7) = (   0.0000000   0.2000000   0.0000000), wk =   0.0120000
        k(    8) = (  -0.1000000   0.3000000  -0.1000000), wk =   0.0480000
        k(    9) = (  -0.2000000   0.4000000  -0.2000000), wk =   0.0480000
        k(   10) = (  -0.3000000   0.5000000  -0.3000000), wk =   0.0480000
        k(   11) = (   0.6000000  -0.4000000   0.6000000), wk =   0.0480000
        k(   12) = (   0.5000000  -0.3000000   0.5000000), wk =   0.0480000
        k(   13) = (   0.4000000  -0.2000000   0.4000000), wk =   0.0480000
        k(   14) = (   0.3000000  -0.1000000   0.3000000), wk =   0.0480000
        k(   15) = (   0.2000000   0.0000000   0.2000000), wk =   0.0240000
        k(   16) = (   0.0000000   0.4000000   0.0000000), wk =   0.0120000
        k(   17) = (  -0.1000000   0.5000000  -0.1000000), wk =   0.0480000
        k(   18) = (  -0.2000000   0.6000000  -0.2000000), wk =   0.0480000
        k(   19) = (   0.7000000  -0.3000000   0.7000000), wk =   0.0480000
        k(   20) = (   0.6000000  -0.2000000   0.6000000), wk =   0.0480000
        k(   21) = (   0.5000000  -0.1000000   0.5000000), wk =   0.0480000
        k(   22) = (   0.4000000   0.0000000   0.4000000), wk =   0.0240000
        k(   23) = (   0.0000000   0.6000000   0.0000000), wk =   0.0120000
        k(   24) = (  -0.1000000   0.7000000  -0.1000000), wk =   0.0480000
        k(   25) = (   0.8000000  -0.2000000   0.8000000), wk =   0.0480000
        k(   26) = (   0.7000000  -0.1000000   0.7000000), wk =   0.0480000
        k(   27) = (   0.6000000  -0.0000000   0.6000000), wk =   0.0240000
        k(   28) = (   0.0000000   0.8000000   0.0000000), wk =   0.0120000
        k(   29) = (   0.9000000  -0.1000000   0.9000000), wk =   0.0480000
        k(   30) = (   0.8000000   0.0000000   0.8000000), wk =   0.0240000
        k(   31) = (   0.0000000  -1.0000000   0.0000000), wk =   0.0060000
        k(   32) = (  -0.2000000   0.4000000   0.0000000), wk =   0.0480000
        k(   33) = (  -0.3000000   0.5000000  -0.1000000), wk =   0.0960000
        k(   34) = (   0.6000000  -0.4000000   0.8000000), wk =   0.0960000
        k(   35) = (   0.5000000  -0.3000000   0.7000000), wk =   0.0480000
        k(   36) = (  -0.2000000   0.6000000   0.0000000), wk =   0.0480000
        k(   37) = (   0.7000000  -0.3000000   0.9000000), wk =   0.0960000
        k(   38) = (   0.6000000  -0.2000000   0.8000000), wk =   0.0960000
        k(   39) = (   0.5000000  -0.1000000   0.7000000), wk =   0.0960000
        k(   40) = (   0.4000000   0.0000000   0.6000000), wk =   0.0480000
        k(   41) = (   0.8000000  -0.2000000   1.0000000), wk =   0.0480000
        k(   42) = (   0.7000000  -0.1000000   0.9000000), wk =   0.0960000
        k(   43) = (   0.6000000   0.0000000   0.8000000), wk =   0.0480000
        k(   44) = (  -0.2000000  -1.0000000   0.0000000), wk =   0.0240000
        k(   45) = (   0.6000000  -0.2000000   1.0000000), wk =   0.0480000
        k(   46) = (   0.5000000  -0.1000000   0.9000000), wk =   0.0480000
        k(   47) = (  -0.4000000  -1.0000000   0.0000000), wk =   0.0240000

     Dense  grid:     3695 G-vectors     FFT dimensions: (  24,  24,  24)

     Estimated max dynamical RAM per process >       7.13 MB

     WARNING: libxc functional with ID  263 depends
      on external parameters: check the user_guide of
      QE if you need to modify them or to check their
      default values.

     Initial potential from superposition of free atoms

     starting charge       7.9999, renormalised to       8.0000
     Starting wfcs are    8 randomized atomic wfcs

     total cpu time spent up to now is        1.4 secs

     Self-consistent Calculation

     iteration #  1     ecut=    50.00 Ry     beta= 0.01
     Davidson diagonalization with overlap
     ethr =  1.00E-02,  avg # of iterations =  2.0

     total cpu time spent up to now is        2.8 secs

     total energy              =     -22.61419638 Ry
     estimated scf accuracy    <       2.11182958 Ry

     iteration #  2     ecut=    50.00 Ry     beta= 0.01
     Davidson diagonalization with overlap
     ethr =  1.00E-02,  avg # of iterations =  1.0

     total cpu time spent up to now is        4.0 secs

     total energy              =     -22.51140882 Ry
     estimated scf accuracy    <       2.11796535 Ry

     iteration #  3     ecut=    50.00 Ry     beta= 0.01
     Davidson diagonalization with overlap
     ethr =  1.00E-02,  avg # of iterations =  1.0

     total cpu time spent up to now is        5.3 secs

     total energy              =     -22.72595585 Ry
     estimated scf accuracy    <       4.64475028 Ry

     iteration #  4     ecut=    50.00 Ry     beta= 0.01
     Davidson diagonalization with overlap
     ethr =  1.00E-02,  avg # of iterations =  1.0

     total cpu time spent up to now is        6.6 secs

     total energy              =     -22.73855062 Ry
     estimated scf accuracy    <       0.01436011 Ry

     iteration #  5     ecut=    50.00 Ry     beta= 0.01
     Davidson diagonalization with overlap
     ethr =  1.80E-04,  avg # of iterations =  1.0

     total cpu time spent up to now is        7.4 secs

     total energy              =     -22.73889615 Ry
     estimated scf accuracy    <       0.02170557 Ry

     iteration #  6     ecut=    50.00 Ry     beta= 0.01
     Davidson diagonalization with overlap
     ethr =  1.80E-04,  avg # of iterations =  1.0

     total cpu time spent up to now is        8.5 secs

     total energy              =     -22.73735305 Ry
     estimated scf accuracy    <       0.02041980 Ry

     iteration #  7     ecut=    50.00 Ry     beta= 0.01
     Davidson diagonalization with overlap
     ethr =  1.80E-04,  avg # of iterations =  1.0

     total cpu time spent up to now is        9.7 secs

     total energy              =     -22.73464488 Ry
     estimated scf accuracy    <       0.01205675 Ry

     iteration #  8     ecut=    50.00 Ry     beta= 0.01
     Davidson diagonalization with overlap
     ethr =  1.51E-04,  avg # of iterations =  1.6

     total cpu time spent up to now is       11.1 secs

     total energy              =     -22.73573390 Ry
     estimated scf accuracy    <       0.00442334 Ry

     iteration #  9     ecut=    50.00 Ry     beta= 0.01
     Davidson diagonalization with overlap
     ethr =  5.53E-05,  avg # of iterations =  1.0

     total cpu time spent up to now is       12.3 secs

     total energy              =     -22.73576466 Ry
     estimated scf accuracy    <       0.00472128 Ry

     iteration # 10     ecut=    50.00 Ry     beta= 0.01
     Davidson diagonalization with overlap
     ethr =  5.53E-05,  avg # of iterations =  1.0

     total cpu time spent up to now is       13.5 secs

     total energy              =     -22.73565616 Ry
     estimated scf accuracy    <       0.00243627 Ry

     iteration # 11     ecut=    50.00 Ry     beta= 0.01
     Davidson diagonalization with overlap
     ethr =  3.05E-05,  avg # of iterations =  1.0

     total cpu time spent up to now is       14.6 secs

     total energy              =     -22.73559627 Ry
     estimated scf accuracy    <       0.00093863 Ry

     iteration # 12     ecut=    50.00 Ry     beta= 0.01
     Davidson diagonalization with overlap
     ethr =  1.17E-05,  avg # of iterations =  1.0

     total cpu time spent up to now is       15.4 secs

     total energy              =     -22.73563288 Ry
     estimated scf accuracy    <       0.00015541 Ry

     iteration # 13     ecut=    50.00 Ry     beta= 0.01
     Davidson diagonalization with overlap
     ethr =  1.94E-06,  avg # of iterations =  1.0

     total cpu time spent up to now is       16.3 secs

     total energy              =     -22.73563378 Ry
     estimated scf accuracy    <       0.00018699 Ry

     iteration # 14     ecut=    50.00 Ry     beta= 0.01
     Davidson diagonalization with overlap
     ethr =  1.94E-06,  avg # of iterations =  1.0

     total cpu time spent up to now is       17.2 secs

     total energy              =     -22.73563526 Ry
     estimated scf accuracy    <       0.00000773 Ry

     iteration # 15     ecut=    50.00 Ry     beta= 0.01
     Davidson diagonalization with overlap
     ethr =  9.66E-08,  avg # of iterations =  2.0

     total cpu time spent up to now is       18.4 secs

     total energy              =     -22.73563602 Ry
     estimated scf accuracy    <       0.00006174 Ry

     iteration # 16     ecut=    50.00 Ry     beta= 0.01
     Davidson diagonalization with overlap
     ethr =  9.66E-08,  avg # of iterations =  1.0

     total cpu time spent up to now is       19.2 secs

     total energy              =     -22.73563599 Ry
     estimated scf accuracy    <       0.00005363 Ry

     iteration # 17     ecut=    50.00 Ry     beta= 0.01
     Davidson diagonalization with overlap
     ethr =  9.66E-08,  avg # of iterations =  1.0

     total cpu time spent up to now is       19.9 secs

     total energy              =     -22.73563643 Ry
     estimated scf accuracy    <       0.00003890 Ry

     iteration # 18     ecut=    50.00 Ry     beta= 0.01
     Davidson diagonalization with overlap
     ethr =  9.66E-08,  avg # of iterations =  1.0

     total cpu time spent up to now is       20.5 secs

     End of self-consistent calculation

          k = 0.0000 0.0000 0.0000 (   459 PWs)   bands (ev):

    -9.1692  13.2711  13.2711  13.2711

          k =-0.1000 0.1000-0.1000 (   462 PWs)   bands (ev):

    -8.8798  11.5253  12.8064  12.8064

          k =-0.2000 0.2000-0.2000 (   465 PWs)   bands (ev):

    -8.0185   8.1919  11.8893  11.8893

          k =-0.3000 0.3000-0.3000 (   468 PWs)   bands (ev):

    -6.6088   4.6574  11.0638  11.0638

          k =-0.4000 0.4000-0.4000 (   467 PWs)   bands (ev):

    -4.7345   1.4089  10.5272  10.5272

          k = 0.5000-0.5000 0.5000 (   464 PWs)   bands (ev):

    -3.2148  -0.5826  10.3482  10.3482

          k = 0.0000 0.2000 0.0000 (   459 PWs)   bands (ev):

    -8.7834  12.0083  12.0083  12.3398

          k =-0.1000 0.3000-0.1000 (   464 PWs)   bands (ev):

    -8.1130   9.3468  10.9998  11.8697

          k =-0.2000 0.4000-0.2000 (   459 PWs)   bands (ev):

    -6.8850   5.9461  10.2156  10.9718

          k =-0.3000 0.5000-0.3000 (   455 PWs)   bands (ev):

    -5.1525   2.6235   9.8194  10.0705

          k = 0.6000-0.4000 0.6000 (   455 PWs)   bands (ev):

    -3.2503  -0.0375   9.4072   9.8456

          k = 0.5000-0.3000 0.5000 (   455 PWs)   bands (ev):

    -3.8315   0.7007   9.1063  10.2740

          k = 0.4000-0.2000 0.4000 (   455 PWs)   bands (ev):

    -5.7801   3.7072   9.2183  11.0310

          k = 0.3000-0.1000 0.3000 (   465 PWs)   bands (ev):

    -7.3551   7.1051   9.7565  11.9721

          k = 0.2000 0.0000 0.2000 (   469 PWs)   bands (ev):

    -8.4000  10.2051  10.8637  12.7619

          k = 0.0000 0.4000 0.0000 (   463 PWs)   bands (ev):

    -7.6357   9.9252   9.9252  10.0165

          k =-0.1000 0.5000-0.1000 (   461 PWs)   bands (ev):

    -6.5983   7.1834   9.0967   9.4699

          k =-0.2000 0.6000-0.2000 (   452 PWs)   bands (ev):

    -5.0382   4.1065   8.3806   8.6961

          k = 0.7000-0.3000 0.7000 (   455 PWs)   bands (ev):

    -3.1188   1.2794   7.3436   8.7587

          k = 0.6000-0.2000 0.6000 (   453 PWs)   bands (ev):

    -2.5720   0.6213   6.6517   9.2768

          k = 0.5000-0.1000 0.5000 (   453 PWs)   bands (ev):

    -4.4350   3.1902   6.4270  10.1581

          k = 0.4000 0.0000 0.4000 (   453 PWs)   bands (ev):

    -6.1410   5.9795   7.0605  11.1993

          k = 0.0000 0.6000 0.0000 (   456 PWs)   bands (ev):

    -5.7547   6.8925   8.1952   8.1952

          k =-0.1000 0.7000-0.1000 (   457 PWs)   bands (ev):

    -4.3816   4.8260   7.0645   7.6988

          k = 0.8000-0.2000 0.8000 (   458 PWs)   bands (ev):

    -2.5771   2.5618   5.4851   7.6919

          k = 0.7000-0.1000 0.7000 (   455 PWs)   bands (ev):

    -1.2158   1.1203   4.2989   8.1712

          k = 0.6000-0.0000 0.6000 (   455 PWs)   bands (ev):

    -2.6760   2.6598   4.1143   9.0570

          k = 0.0000 0.8000 0.0000 (   452 PWs)   bands (ev):

    -3.1997   3.3829   7.0982   7.0982

          k = 0.9000-0.1000 0.9000 (   456 PWs)   bands (ev):

    -1.5578   1.6746   5.9636   6.9709

          k = 0.8000 0.0000 0.8000 (   462 PWs)   bands (ev):

    -0.0781   0.6060   4.2145   7.3466

          k = 0.0000-1.0000 0.0000 (   460 PWs)   bands (ev):

    -0.0874  -0.0874   6.7219   6.7219

          k =-0.2000 0.4000 0.0000 (   469 PWs)   bands (ev):

    -7.2592   8.0075   8.8972  11.2821

          k =-0.3000 0.5000-0.1000 (   456 PWs)   bands (ev):

    -5.8630   5.0801   7.9809  10.3658

          k = 0.6000-0.4000 0.8000 (   454 PWs)   bands (ev):

    -4.0149   2.0063   7.7275   9.4683

          k = 0.5000-0.3000 0.7000 (   454 PWs)   bands (ev):

    -2.5319   0.0908   7.7136   9.0721

          k =-0.2000 0.6000 0.0000 (   455 PWs)   bands (ev):

    -5.3928   5.8630   7.2461   8.7709

          k = 0.7000-0.3000 0.9000 (   458 PWs)   bands (ev):

    -3.7028   3.4413   6.3146   7.9101

          k = 0.6000-0.2000 0.8000 (   455 PWs)   bands (ev):

    -1.8769   1.1286   5.6433   7.7392

          k = 0.5000-0.1000 0.7000 (   456 PWs)   bands (ev):

    -2.4580   1.8634   5.1676   8.3267

          k = 0.4000 0.0000 0.6000 (   457 PWs)   bands (ev):

    -4.3323   4.1927   5.5124   9.3439

          k = 0.8000-0.2000 1.0000 (   457 PWs)   bands (ev):

    -2.8745   3.2745   6.2333   6.7527

          k = 0.7000-0.1000 0.9000 (   453 PWs)   bands (ev):

    -1.0491   1.6670   4.6549   6.6244

          k = 0.6000 0.0000 0.8000 (   451 PWs)   bands (ev):

    -0.7714   1.5078   3.6707   7.2587

          k =-0.2000-1.0000 0.0000 (   456 PWs)   bands (ev):

     0.1393   0.1393   6.0045   6.0045

          k = 0.6000-0.2000 1.0000 (   454 PWs)   bands (ev):

    -1.9612   2.6076   4.6715   6.6765

          k = 0.5000-0.1000 0.9000 (   458 PWs)   bands (ev):

    -0.5693   1.3810   4.3379   6.0791

          k =-0.4000-1.0000 0.0000 (   454 PWs)   bands (ev):

     0.5986   0.5986   4.8862   4.8862

     highest occupied level (ev):    13.2711

!    total energy              =     -22.73563653 Ry
     estimated scf accuracy    <       0.00000002 Ry

     The total energy is the sum of the following terms:
     one-electron contribution =       7.99323499 Ry
     hartree contribution      =       1.93905302 Ry
     xc contribution           =      -7.08372849 Ry
     ewald contribution        =     -25.58419605 Ry

     convergence has been achieved in  18 iterations
     Writing meta-gga kinetic term

     Writing all to output data dir ./input_pw/C/5/pwscf.save/
     Writing meta-gga kinetic term
 
     init_run     :      0.66s CPU      1.37s WALL (       1 calls)
     electrons    :     11.75s CPU     19.08s WALL (       1 calls)

     Called by init_run:
     wfcinit      :      0.62s CPU      1.29s WALL (       1 calls)
     potinit      :      0.01s CPU      0.03s WALL (       1 calls)
     hinit0       :      0.03s CPU      0.03s WALL (       1 calls)

     Called by electrons:
     c_bands      :      9.23s CPU     14.86s WALL (      18 calls)
     sum_band     :      2.29s CPU      3.83s WALL (      18 calls)
     v_of_rho     :      0.16s CPU      0.32s WALL (      19 calls)
     mix_rho      :      0.08s CPU      0.10s WALL (      18 calls)

     Called by c_bands:
     init_us_2    :      0.04s CPU      0.11s WALL (    1739 calls)
     init_us_2:cp :      0.03s CPU      0.10s WALL (    1739 calls)
     cegterg      :      9.18s CPU     14.79s WALL (     846 calls)

     Called by *egterg:
     cdiaghg      :      0.08s CPU      0.14s WALL (    1814 calls)
     h_psi        :      9.57s CPU     15.77s WALL (    1861 calls)
     g_psi        :      0.01s CPU      0.01s WALL (     968 calls)

     Called by h_psi:
     h_psi:calbec :      0.02s CPU      0.02s WALL (    1861 calls)
     vloc_psi     :      2.37s CPU      3.78s WALL (    1861 calls)
     add_vuspsi   :      0.02s CPU      0.03s WALL (    1861 calls)
     h_psi_meta   :      7.13s CPU     11.92s WALL (    1861 calls)

     General routines
     calbec       :      0.01s CPU      0.01s WALL (    1861 calls)
     fft          :      0.03s CPU      0.05s WALL (     225 calls)
     ffts         :      0.04s CPU      0.04s WALL (     311 calls)
     fftw         :     10.57s CPU     17.42s WALL (   73664 calls)
     interpolate  :      0.00s CPU      0.00s WALL (      19 calls)
 
     Parallel routines
 
     PWSCF        :     12.46s CPU     20.50s WALL

 
   This run was terminated on:  11:48:35  14Mar2023            

=------------------------------------------------------------------------------=
   JOB DONE.
=------------------------------------------------------------------------------=
