
     Program PWSCF v.7.0 starts on  7Jul2023 at 14:25:23 

     This program is part of the open-source Quantum ESPRESSO suite
     for quantum simulation of materials; please cite
         "P. Giannozzi et al., J. Phys.:Condens. Matter 21 395502 (2009);
         "P. Giannozzi et al., J. Phys.:Condens. Matter 29 465901 (2017);
         "P. Giannozzi et al., J. Chem. Phys. 152 154105 (2020);
          URL http://www.quantum-espresso.org", 
     in publications or presentations arising from this work. More details at
     http://www.quantum-espresso.org/quote

     Parallel version (MPI), running on     1 processors

     MPI processes distributed on     1 nodes
     26921 MiB available memory on the printing compute node when the environment starts
 
     Waiting for input...
     Reading input from standard input
Warning: card &CELL ignored
Warning: card / ignored

     Current dimensions of program PWSCF are:
     Max number of different atomic species (ntypx) = 10
     Max number of k-points (npk) =  40000
     Max angular momentum in pseudopotentials (lmaxx) =  4

     WARNING: the MGGA functional with ID    5 has been 
     read together with other dft terms, but it should 
     stand alone in order to work properly. The other 
     terms will be ignored.

     Subspace diagonalization in iterative solution of the eigenvalue problem:
     a serial algorithm will be used

 
     G-vector sticks info
     --------------------
     sticks:   dense  smooth     PW     G-vecs:    dense   smooth      PW
     Sum         313     313    109                 3527     3527     725
 
     Using Slab Decomposition
 


     bravais-lattice index     =            2
     lattice parameter (alat)  =       6.6696  a.u.
     unit-cell volume          =      74.1719 (a.u.)^3
     number of atoms/cell      =            2
     number of atomic types    =            1
     number of electrons       =         8.00
     number of Kohn-Sham states=            4
     kinetic-energy cutoff     =      50.0000  Ry
     charge density cutoff     =     200.0000  Ry
     scf convergence threshold =      2.0E-05
     mixing beta               =       0.2000
     number of iterations used =            8  local-TF  mixing
     Exchange-correlation= SLA  PW   SCAN SCAN
                           (   0   0   0   0   0 263 267)

     celldm(1)=   6.669599  celldm(2)=   0.000000  celldm(3)=   0.000000
     celldm(4)=   0.000000  celldm(5)=   0.000000  celldm(6)=   0.000000

     crystal axes: (cart. coord. in units of alat)
               a(1) = (  -0.500000   0.000000   0.500000 )  
               a(2) = (   0.000000   0.500000   0.500000 )  
               a(3) = (  -0.500000   0.500000   0.000000 )  

     reciprocal axes: (cart. coord. in units 2 pi/alat)
               b(1) = ( -1.000000 -1.000000  1.000000 )  
               b(2) = (  1.000000  1.000000  1.000000 )  
               b(3) = ( -1.000000  1.000000 -1.000000 )  


     PseudoPot. # 1 for C  read from file:
     ~/Documents/TA/PWDFT.jl/pseudopotentials/scan_upf/C.SCAN.UPF2
     MD5 check sum: Not computed, couldn't open file
     Pseudo is Norm-conserving, Zval =  4.0
     Generated by new atomic code, or converted to UPF format
     Using radial grid of 1389 points,  1 beta functions with: 
                l(1) =   0

     atomic species   valence    mass     pseudopotential
        C              4.00    12.01100     C ( 1.00)

     48 Sym. Ops., with inversion, found (24 have fractional translation)



   Cartesian axes

     site n.     atom                  positions (alat units)
         1           C   tau(   1) = (   0.0000000   0.0000000   0.0000000  )
         2           C   tau(   2) = (   0.2500000   0.2500000   0.2500000  )

     number of k points=    47
                       cart. coord. in units 2pi/alat
        k(    1) = (   0.0000000   0.0000000   0.0000000), wk =   0.0020000
        k(    2) = (  -0.1000000   0.1000000  -0.1000000), wk =   0.0160000
        k(    3) = (  -0.2000000   0.2000000  -0.2000000), wk =   0.0160000
        k(    4) = (  -0.3000000   0.3000000  -0.3000000), wk =   0.0160000
        k(    5) = (  -0.4000000   0.4000000  -0.4000000), wk =   0.0160000
        k(    6) = (   0.5000000  -0.5000000   0.5000000), wk =   0.0080000
        k(    7) = (   0.0000000   0.2000000   0.0000000), wk =   0.0120000
        k(    8) = (  -0.1000000   0.3000000  -0.1000000), wk =   0.0480000
        k(    9) = (  -0.2000000   0.4000000  -0.2000000), wk =   0.0480000
        k(   10) = (  -0.3000000   0.5000000  -0.3000000), wk =   0.0480000
        k(   11) = (   0.6000000  -0.4000000   0.6000000), wk =   0.0480000
        k(   12) = (   0.5000000  -0.3000000   0.5000000), wk =   0.0480000
        k(   13) = (   0.4000000  -0.2000000   0.4000000), wk =   0.0480000
        k(   14) = (   0.3000000  -0.1000000   0.3000000), wk =   0.0480000
        k(   15) = (   0.2000000   0.0000000   0.2000000), wk =   0.0240000
        k(   16) = (   0.0000000   0.4000000   0.0000000), wk =   0.0120000
        k(   17) = (  -0.1000000   0.5000000  -0.1000000), wk =   0.0480000
        k(   18) = (  -0.2000000   0.6000000  -0.2000000), wk =   0.0480000
        k(   19) = (   0.7000000  -0.3000000   0.7000000), wk =   0.0480000
        k(   20) = (   0.6000000  -0.2000000   0.6000000), wk =   0.0480000
        k(   21) = (   0.5000000  -0.1000000   0.5000000), wk =   0.0480000
        k(   22) = (   0.4000000   0.0000000   0.4000000), wk =   0.0240000
        k(   23) = (   0.0000000   0.6000000   0.0000000), wk =   0.0120000
        k(   24) = (  -0.1000000   0.7000000  -0.1000000), wk =   0.0480000
        k(   25) = (   0.8000000  -0.2000000   0.8000000), wk =   0.0480000
        k(   26) = (   0.7000000  -0.1000000   0.7000000), wk =   0.0480000
        k(   27) = (   0.6000000  -0.0000000   0.6000000), wk =   0.0240000
        k(   28) = (   0.0000000   0.8000000   0.0000000), wk =   0.0120000
        k(   29) = (   0.9000000  -0.1000000   0.9000000), wk =   0.0480000
        k(   30) = (   0.8000000   0.0000000   0.8000000), wk =   0.0240000
        k(   31) = (   0.0000000  -1.0000000   0.0000000), wk =   0.0060000
        k(   32) = (  -0.2000000   0.4000000   0.0000000), wk =   0.0480000
        k(   33) = (  -0.3000000   0.5000000  -0.1000000), wk =   0.0960000
        k(   34) = (   0.6000000  -0.4000000   0.8000000), wk =   0.0960000
        k(   35) = (   0.5000000  -0.3000000   0.7000000), wk =   0.0480000
        k(   36) = (  -0.2000000   0.6000000   0.0000000), wk =   0.0480000
        k(   37) = (   0.7000000  -0.3000000   0.9000000), wk =   0.0960000
        k(   38) = (   0.6000000  -0.2000000   0.8000000), wk =   0.0960000
        k(   39) = (   0.5000000  -0.1000000   0.7000000), wk =   0.0960000
        k(   40) = (   0.4000000   0.0000000   0.6000000), wk =   0.0480000
        k(   41) = (   0.8000000  -0.2000000   1.0000000), wk =   0.0480000
        k(   42) = (   0.7000000  -0.1000000   0.9000000), wk =   0.0960000
        k(   43) = (   0.6000000   0.0000000   0.8000000), wk =   0.0480000
        k(   44) = (  -0.2000000  -1.0000000   0.0000000), wk =   0.0240000
        k(   45) = (   0.6000000  -0.2000000   1.0000000), wk =   0.0480000
        k(   46) = (   0.5000000  -0.1000000   0.9000000), wk =   0.0480000
        k(   47) = (  -0.4000000  -1.0000000   0.0000000), wk =   0.0240000

     Dense  grid:     3527 G-vectors     FFT dimensions: (  24,  24,  24)

     Estimated max dynamical RAM per process >       6.90 MB

     WARNING: libxc functional with ID  263 depends
      on external parameters: check the user_guide of
      QE if you need to modify them or to check their
      default values.

     Initial potential from superposition of free atoms

     starting charge       7.9999, renormalised to       8.0000
     Starting wfcs are    8 randomized atomic wfcs

     total cpu time spent up to now is        1.0 secs

     Self-consistent Calculation

     iteration #  1     ecut=    50.00 Ry     beta= 0.20
     Davidson diagonalization with overlap
     ethr =  1.00E-02,  avg # of iterations =  2.0

     total cpu time spent up to now is        2.8 secs

     total energy              =     -22.69026050 Ry
     estimated scf accuracy    <       2.20110029 Ry

     iteration #  2     ecut=    50.00 Ry     beta= 0.20
     Davidson diagonalization with overlap
     ethr =  1.00E-02,  avg # of iterations =  1.0

     total cpu time spent up to now is        4.1 secs

     total energy              =     -22.73145095 Ry
     estimated scf accuracy    <       1.46124754 Ry

     iteration #  3     ecut=    50.00 Ry     beta= 0.20
     Davidson diagonalization with overlap
     ethr =  1.00E-02,  avg # of iterations =  1.0

     total cpu time spent up to now is        5.4 secs

     total energy              =     -22.73629451 Ry
     estimated scf accuracy    <       0.01393016 Ry

     iteration #  4     ecut=    50.00 Ry     beta= 0.20
     Davidson diagonalization with overlap
     ethr =  1.74E-04,  avg # of iterations =  1.0

     total cpu time spent up to now is        6.7 secs

     total energy              =     -22.73456089 Ry
     estimated scf accuracy    <       0.00808469 Ry

     iteration #  5     ecut=    50.00 Ry     beta= 0.20
     Davidson diagonalization with overlap
     ethr =  1.01E-04,  avg # of iterations =  1.0

     total cpu time spent up to now is        7.9 secs

     total energy              =     -22.73518185 Ry
     estimated scf accuracy    <       0.00032051 Ry

     iteration #  6     ecut=    50.00 Ry     beta= 0.20
     Davidson diagonalization with overlap
     ethr =  4.01E-06,  avg # of iterations =  1.9

     total cpu time spent up to now is        9.0 secs

     total energy              =     -22.73522976 Ry
     estimated scf accuracy    <       0.00009562 Ry

     iteration #  7     ecut=    50.00 Ry     beta= 0.20
     Davidson diagonalization with overlap
     ethr =  1.20E-06,  avg # of iterations =  1.2

     total cpu time spent up to now is       10.1 secs

     total energy              =     -22.73524901 Ry
     estimated scf accuracy    <       0.00012098 Ry

     iteration #  8     ecut=    50.00 Ry     beta= 0.20
     Davidson diagonalization with overlap
     ethr =  1.20E-06,  avg # of iterations =  1.0

     total cpu time spent up to now is       11.1 secs

     End of self-consistent calculation

          k = 0.0000 0.0000 0.0000 (   459 PWs)   bands (ev):

    -9.0308  13.8168  13.8168  13.8168

          k =-0.1000 0.1000-0.1000 (   441 PWs)   bands (ev):

    -8.7352  12.0509  13.3449  13.3449

          k =-0.2000 0.2000-0.2000 (   459 PWs)   bands (ev):

    -7.8559   8.6331  12.4041  12.4041

          k =-0.3000 0.3000-0.3000 (   450 PWs)   bands (ev):

    -6.4142   5.0302  11.5526  11.5526

          k =-0.4000 0.4000-0.4000 (   431 PWs)   bands (ev):

    -4.4893   1.7041  11.0115  11.0115

          k = 0.5000-0.5000 0.5000 (   434 PWs)   bands (ev):

    -2.8965  -0.3715  10.8227  10.8227

          k = 0.0000 0.2000 0.0000 (   443 PWs)   bands (ev):

    -8.6367  12.5142  12.5142  12.8949

          k =-0.1000 0.3000-0.1000 (   450 PWs)   bands (ev):

    -7.9523   9.8205  11.4771  12.4006

          k =-0.2000 0.4000-0.2000 (   449 PWs)   bands (ev):

    -6.6973   6.3447  10.6789  11.4765

          k =-0.3000 0.5000-0.3000 (   441 PWs)   bands (ev):

    -4.9219   2.9514  10.2688  10.5498

          k = 0.6000-0.4000 0.6000 (   445 PWs)   bands (ev):

    -2.9478   0.2007   9.8758  10.3022

          k = 0.5000-0.3000 0.5000 (   445 PWs)   bands (ev):

    -3.5582   0.9720   9.5581  10.7400

          k = 0.4000-0.2000 0.4000 (   442 PWs)   bands (ev):

    -5.5656   4.0587   9.6672  11.5246

          k = 0.3000-0.1000 0.3000 (   451 PWs)   bands (ev):

    -7.1780   7.5312  10.2144  12.4975

          k = 0.2000 0.0000 0.2000 (   449 PWs)   bands (ev):

    -8.2452  10.7032  11.3441  13.3104

          k = 0.0000 0.4000 0.0000 (   443 PWs)   bands (ev):

    -7.4649  10.3788  10.3788  10.5651

          k =-0.1000 0.5000-0.1000 (   449 PWs)   bands (ev):

    -6.4051   7.6239   9.5305   9.9496

          k =-0.2000 0.6000-0.2000 (   441 PWs)   bands (ev):

    -4.8087   4.4786   8.8323   9.1168

          k = 0.7000-0.3000 0.7000 (   445 PWs)   bands (ev):

    -2.8312   1.5744   7.7652   9.1808

          k = 0.6000-0.2000 0.6000 (   440 PWs)   bands (ev):

    -2.2560   0.8862   7.0530   9.7127

          k = 0.5000-0.1000 0.5000 (   436 PWs)   bands (ev):

    -4.1878   3.5411   6.8188  10.6213

          k = 0.4000 0.0000 0.4000 (   449 PWs)   bands (ev):

    -5.9371   6.4064   7.4393  11.6937

          k = 0.0000 0.6000 0.0000 (   444 PWs)   bands (ev):

    -5.5433   7.3842   8.5962   8.5962

          k =-0.1000 0.7000-0.1000 (   441 PWs)   bands (ev):

    -4.1400   5.2702   7.4470   8.0953

          k = 0.8000-0.2000 0.8000 (   439 PWs)   bands (ev):

    -2.2880   2.9424   5.8356   8.0905

          k = 0.7000-0.1000 0.7000 (   446 PWs)   bands (ev):

    -0.8624   1.4273   4.6167   8.5779

          k = 0.6000-0.0000 0.6000 (   437 PWs)   bands (ev):

    -2.3815   3.0422   4.4139   9.4916

          k = 0.0000 0.8000 0.0000 (   448 PWs)   bands (ev):

    -2.9329   3.8008   7.4678   7.4678

          k = 0.9000-0.1000 0.9000 (   450 PWs)   bands (ev):

    -1.2521   2.0579   6.3003   7.3431

          k = 0.8000 0.0000 0.8000 (   434 PWs)   bands (ev):

     0.2956   0.9558   4.4975   7.7411

          k = 0.0000-1.0000 0.0000 (   444 PWs)   bands (ev):

     0.2530   0.2530   7.0853   7.0853

          k =-0.2000 0.4000 0.0000 (   445 PWs)   bands (ev):

    -7.0797   8.4741   9.3294  11.7976

          k =-0.3000 0.5000-0.1000 (   440 PWs)   bands (ev):

    -5.6523   5.4704   8.4040  10.8434

          k = 0.6000-0.4000 0.8000 (   437 PWs)   bands (ev):

    -3.7551   2.3232   8.1518   9.9188

          k = 0.5000-0.3000 0.7000 (   440 PWs)   bands (ev):

    -2.2024   0.3263   8.1476   9.5066

          k =-0.2000 0.6000 0.0000 (   443 PWs)   bands (ev):

    -5.1730   6.3107   7.6320   9.2012

          k = 0.7000-0.3000 0.9000 (   442 PWs)   bands (ev):

    -3.4410   3.8231   6.7015   8.3056

          k = 0.6000-0.2000 0.8000 (   442 PWs)   bands (ev):

    -1.5484   1.4242   6.0254   8.1264

          k = 0.5000-0.1000 0.7000 (   435 PWs)   bands (ev):

    -2.1547   2.1895   5.5302   8.7412

          k = 0.4000 0.0000 0.6000 (   435 PWs)   bands (ev):

    -4.0842   4.6008   5.8549   9.7902

          k = 0.8000-0.2000 1.0000 (   445 PWs)   bands (ev):

    -2.5970   3.6992   6.5882   7.1097

          k = 0.7000-0.1000 0.9000 (   439 PWs)   bands (ev):

    -0.7187   2.0561   4.9543   6.9795

          k = 0.6000 0.0000 0.8000 (   443 PWs)   bands (ev):

    -0.4139   1.8762   3.9326   7.6369

          k =-0.2000-1.0000 0.0000 (   450 PWs)   bands (ev):

     0.4879   0.4879   6.3475   6.3475

          k = 0.6000-0.2000 1.0000 (   446 PWs)   bands (ev):

    -1.6530   3.0124   4.9779   7.0270

          k = 0.5000-0.1000 0.9000 (   444 PWs)   bands (ev):

    -0.2043   1.7346   4.6484   6.4128

          k =-0.4000-1.0000 0.0000 (   436 PWs)   bands (ev):

     0.9790   0.9790   5.1838   5.1838

     highest occupied level (ev):    13.8168

!    total energy              =     -22.73525107 Ry
     estimated scf accuracy    <       0.00000097 Ry

     The total energy is the sum of the following terms:
     one-electron contribution =       8.33516558 Ry
     hartree contribution      =       1.90989342 Ry
     xc contribution           =      -7.13504895 Ry
     ewald contribution        =     -25.84526111 Ry

     convergence has been achieved in   8 iterations
     Writing meta-gga kinetic term

     Writing all to output data dir ./input_pw/C/5/pwscf.save/
     Writing meta-gga kinetic term
 
     init_run     :      0.54s CPU      1.01s WALL (       1 calls)
     electrons    :      5.46s CPU     10.04s WALL (       1 calls)

     Called by init_run:
     wfcinit      :      0.49s CPU      0.85s WALL (       1 calls)
     potinit      :      0.01s CPU      0.04s WALL (       1 calls)
     hinit0       :      0.03s CPU      0.12s WALL (       1 calls)

     Called by electrons:
     c_bands      :      4.32s CPU      8.11s WALL (       8 calls)
     sum_band     :      1.03s CPU      1.75s WALL (       8 calls)
     v_of_rho     :      0.08s CPU      0.13s WALL (       9 calls)
     mix_rho      :      0.03s CPU      0.08s WALL (       8 calls)

     Called by c_bands:
     init_us_2    :      0.02s CPU      0.02s WALL (     799 calls)
     init_us_2:cp :      0.01s CPU      0.01s WALL (     799 calls)
     cegterg      :      4.30s CPU      8.07s WALL (     376 calls)

     Called by *egterg:
     cdiaghg      :      0.03s CPU      0.05s WALL (     852 calls)
     h_psi        :      4.68s CPU      8.73s WALL (     899 calls)
     g_psi        :      0.00s CPU      0.02s WALL (     476 calls)

     Called by h_psi:
     h_psi:calbec :      0.01s CPU      0.01s WALL (     899 calls)
     vloc_psi     :      1.16s CPU      2.19s WALL (     899 calls)
     add_vuspsi   :      0.01s CPU      0.01s WALL (     899 calls)
     h_psi_meta   :      3.49s CPU      6.50s WALL (     899 calls)

     General routines
     calbec       :      0.01s CPU      0.01s WALL (     899 calls)
     fft          :      0.02s CPU      0.07s WALL (     105 calls)
     ffts         :      0.02s CPU      0.05s WALL (     129 calls)
     fftw         :      5.10s CPU      9.30s WALL (   35368 calls)
     interpolate  :      0.00s CPU      0.00s WALL (       9 calls)
 
     Parallel routines
 
     PWSCF        :      6.04s CPU     11.10s WALL

 
   This run was terminated on:  14:25:34   7Jul2023            

=------------------------------------------------------------------------------=
   JOB DONE.
=------------------------------------------------------------------------------=
