
     Program PWSCF v.7.0 starts on 14Mar2023 at 11:36:59 

     This program is part of the open-source Quantum ESPRESSO suite
     for quantum simulation of materials; please cite
         "P. Giannozzi et al., J. Phys.:Condens. Matter 21 395502 (2009);
         "P. Giannozzi et al., J. Phys.:Condens. Matter 29 465901 (2017);
         "P. Giannozzi et al., J. Chem. Phys. 152 154105 (2020);
          URL http://www.quantum-espresso.org", 
     in publications or presentations arising from this work. More details at
     http://www.quantum-espresso.org/quote

     Parallel version (MPI), running on     1 processors

     MPI processes distributed on     1 nodes
     27265 MiB available memory on the printing compute node when the environment starts
 
     Waiting for input...
     Reading input from standard input
Warning: card &CELL ignored
Warning: card / ignored

     Current dimensions of program PWSCF are:
     Max number of different atomic species (ntypx) = 10
     Max number of k-points (npk) =  40000
     Max angular momentum in pseudopotentials (lmaxx) =  4
     file Ge.SCAN.UPF2: wavefunction(s)  0D renormalized

     WARNING: the MGGA functional with ID    5 has been 
     read together with other dft terms, but it should 
     stand alone in order to work properly. The other 
     terms will be ignored.

     Subspace diagonalization in iterative solution of the eigenvalue problem:
     a serial algorithm will be used

 
     G-vector sticks info
     --------------------
     sticks:   dense  smooth     PW     G-vecs:    dense   smooth      PW
     Sum        1309    1309    379                31415    31415    5029
 
     Using Slab Decomposition
 


     bravais-lattice index     =            2
     lattice parameter (alat)  =      13.8264  a.u.
     unit-cell volume          =     660.7959 (a.u.)^3
     number of atoms/cell      =            2
     number of atomic types    =            1
     number of electrons       =         8.00
     number of Kohn-Sham states=            4
     kinetic-energy cutoff     =      50.0000  Ry
     charge density cutoff     =     200.0000  Ry
     scf convergence threshold =      1.0E-06
     mixing beta               =       0.0100
     number of iterations used =            8  local-TF  mixing
     Exchange-correlation= SLA  PW  SCAN SCAN
                           (   0   0   0   0   0 263 267)

     celldm(1)=  13.826400  celldm(2)=   0.000000  celldm(3)=   0.000000
     celldm(4)=   0.000000  celldm(5)=   0.000000  celldm(6)=   0.000000

     crystal axes: (cart. coord. in units of alat)
               a(1) = (  -0.500000   0.000000   0.500000 )  
               a(2) = (   0.000000   0.500000   0.500000 )  
               a(3) = (  -0.500000   0.500000   0.000000 )  

     reciprocal axes: (cart. coord. in units 2 pi/alat)
               b(1) = ( -1.000000 -1.000000  1.000000 )  
               b(2) = (  1.000000  1.000000  1.000000 )  
               b(3) = ( -1.000000  1.000000 -1.000000 )  


     PseudoPot. # 1 for Ge read from file:
     ~/Documents/TA/PWDFT.jl/pseudopotentials/scan_upf/Ge.SCAN.UPF2
     MD5 check sum: Not computed, couldn't open file
     Pseudo is Norm-conserving, Zval =  4.0
     Generated by new atomic code, or converted to UPF format
     Using radial grid of 1557 points,  2 beta functions with: 
                l(1) =   0
                l(2) =   1

     atomic species   valence    mass     pseudopotential
        Ge             4.00    72.64000     Ge( 1.00)

     48 Sym. Ops., with inversion, found (24 have fractional translation)



   Cartesian axes

     site n.     atom                  positions (alat units)
         1           Ge  tau(   1) = (   0.0000000   0.0000000   0.0000000  )
         2           Ge  tau(   2) = (   0.2500000   0.2500000   0.2500000  )

     number of k points=    47
                       cart. coord. in units 2pi/alat
        k(    1) = (   0.0000000   0.0000000   0.0000000), wk =   0.0020000
        k(    2) = (  -0.1000000   0.1000000  -0.1000000), wk =   0.0160000
        k(    3) = (  -0.2000000   0.2000000  -0.2000000), wk =   0.0160000
        k(    4) = (  -0.3000000   0.3000000  -0.3000000), wk =   0.0160000
        k(    5) = (  -0.4000000   0.4000000  -0.4000000), wk =   0.0160000
        k(    6) = (   0.5000000  -0.5000000   0.5000000), wk =   0.0080000
        k(    7) = (   0.0000000   0.2000000   0.0000000), wk =   0.0120000
        k(    8) = (  -0.1000000   0.3000000  -0.1000000), wk =   0.0480000
        k(    9) = (  -0.2000000   0.4000000  -0.2000000), wk =   0.0480000
        k(   10) = (  -0.3000000   0.5000000  -0.3000000), wk =   0.0480000
        k(   11) = (   0.6000000  -0.4000000   0.6000000), wk =   0.0480000
        k(   12) = (   0.5000000  -0.3000000   0.5000000), wk =   0.0480000
        k(   13) = (   0.4000000  -0.2000000   0.4000000), wk =   0.0480000
        k(   14) = (   0.3000000  -0.1000000   0.3000000), wk =   0.0480000
        k(   15) = (   0.2000000   0.0000000   0.2000000), wk =   0.0240000
        k(   16) = (   0.0000000   0.4000000   0.0000000), wk =   0.0120000
        k(   17) = (  -0.1000000   0.5000000  -0.1000000), wk =   0.0480000
        k(   18) = (  -0.2000000   0.6000000  -0.2000000), wk =   0.0480000
        k(   19) = (   0.7000000  -0.3000000   0.7000000), wk =   0.0480000
        k(   20) = (   0.6000000  -0.2000000   0.6000000), wk =   0.0480000
        k(   21) = (   0.5000000  -0.1000000   0.5000000), wk =   0.0480000
        k(   22) = (   0.4000000   0.0000000   0.4000000), wk =   0.0240000
        k(   23) = (   0.0000000   0.6000000   0.0000000), wk =   0.0120000
        k(   24) = (  -0.1000000   0.7000000  -0.1000000), wk =   0.0480000
        k(   25) = (   0.8000000  -0.2000000   0.8000000), wk =   0.0480000
        k(   26) = (   0.7000000  -0.1000000   0.7000000), wk =   0.0480000
        k(   27) = (   0.6000000  -0.0000000   0.6000000), wk =   0.0240000
        k(   28) = (   0.0000000   0.8000000   0.0000000), wk =   0.0120000
        k(   29) = (   0.9000000  -0.1000000   0.9000000), wk =   0.0480000
        k(   30) = (   0.8000000   0.0000000   0.8000000), wk =   0.0240000
        k(   31) = (   0.0000000  -1.0000000   0.0000000), wk =   0.0060000
        k(   32) = (  -0.2000000   0.4000000   0.0000000), wk =   0.0480000
        k(   33) = (  -0.3000000   0.5000000  -0.1000000), wk =   0.0960000
        k(   34) = (   0.6000000  -0.4000000   0.8000000), wk =   0.0960000
        k(   35) = (   0.5000000  -0.3000000   0.7000000), wk =   0.0480000
        k(   36) = (  -0.2000000   0.6000000   0.0000000), wk =   0.0480000
        k(   37) = (   0.7000000  -0.3000000   0.9000000), wk =   0.0960000
        k(   38) = (   0.6000000  -0.2000000   0.8000000), wk =   0.0960000
        k(   39) = (   0.5000000  -0.1000000   0.7000000), wk =   0.0960000
        k(   40) = (   0.4000000   0.0000000   0.6000000), wk =   0.0480000
        k(   41) = (   0.8000000  -0.2000000   1.0000000), wk =   0.0480000
        k(   42) = (   0.7000000  -0.1000000   0.9000000), wk =   0.0960000
        k(   43) = (   0.6000000   0.0000000   0.8000000), wk =   0.0480000
        k(   44) = (  -0.2000000  -1.0000000   0.0000000), wk =   0.0240000
        k(   45) = (   0.6000000  -0.2000000   1.0000000), wk =   0.0480000
        k(   46) = (   0.5000000  -0.1000000   0.9000000), wk =   0.0480000
        k(   47) = (  -0.4000000  -1.0000000   0.0000000), wk =   0.0240000

     Dense  grid:    31415 G-vectors     FFT dimensions: (  48,  48,  48)

     Estimated max dynamical RAM per process >      60.38 MB

     WARNING: libxc functional with ID  263 depends
      on external parameters: check the user_guide of
      QE if you need to modify them or to check their
      default values.

     Initial potential from superposition of free atoms

     starting charge       7.9987, renormalised to       8.0000
     Starting wfcs are   18 randomized atomic wfcs

     total cpu time spent up to now is       20.8 secs

     Self-consistent Calculation

     iteration #  1     ecut=    50.00 Ry     beta= 0.01
     Davidson diagonalization with overlap
     ethr =  1.00E-02,  avg # of iterations =  1.0

     Threshold (ethr) on eigenvalues was too large:
     Diagonalizing with lowered threshold

     Davidson diagonalization with overlap
     ethr =  2.24E-04,  avg # of iterations =  4.6

     total cpu time spent up to now is       55.8 secs

     total energy              =     -15.58045946 Ry
     estimated scf accuracy    <       0.01745309 Ry

     iteration #  2     ecut=    50.00 Ry     beta= 0.01
     Davidson diagonalization with overlap
     ethr =  2.18E-04,  avg # of iterations =  1.0

     total cpu time spent up to now is       66.8 secs

     total energy              =     -15.58832379 Ry
     estimated scf accuracy    <       0.01722467 Ry

     iteration #  3     ecut=    50.00 Ry     beta= 0.01
     Davidson diagonalization with overlap
     ethr =  2.15E-04,  avg # of iterations =  1.0

     total cpu time spent up to now is       75.5 secs

     total energy              =     -15.61196978 Ry
     estimated scf accuracy    <       0.01410980 Ry

     iteration #  4     ecut=    50.00 Ry     beta= 0.01
     Davidson diagonalization with overlap
     ethr =  1.76E-04,  avg # of iterations =  2.0

     total cpu time spent up to now is       86.7 secs

     total energy              =     -15.61389976 Ry
     estimated scf accuracy    <       0.00070499 Ry

     iteration #  5     ecut=    50.00 Ry     beta= 0.01
     Davidson diagonalization with overlap
     ethr =  8.81E-06,  avg # of iterations =  9.2

     total cpu time spent up to now is      116.2 secs

     total energy              =     -15.61501518 Ry
     estimated scf accuracy    <       0.00095155 Ry

     iteration #  6     ecut=    50.00 Ry     beta= 0.01
     Davidson diagonalization with overlap
     ethr =  8.81E-06,  avg # of iterations =  2.4

     total cpu time spent up to now is      127.2 secs

     total energy              =     -15.61514273 Ry
     estimated scf accuracy    <       0.00107741 Ry

     iteration #  7     ecut=    50.00 Ry     beta= 0.01
     Davidson diagonalization with overlap
     ethr =  8.81E-06,  avg # of iterations =  1.0

     total cpu time spent up to now is      134.3 secs

     total energy              =     -15.61534143 Ry
     estimated scf accuracy    <       0.00096117 Ry

     iteration #  8     ecut=    50.00 Ry     beta= 0.01
     Davidson diagonalization with overlap
     ethr =  8.81E-06,  avg # of iterations =  1.5

     total cpu time spent up to now is      140.5 secs

     total energy              =     -15.61540145 Ry
     estimated scf accuracy    <       0.00045250 Ry

     iteration #  9     ecut=    50.00 Ry     beta= 0.01
     Davidson diagonalization with overlap
     ethr =  5.66E-06,  avg # of iterations =  1.1

     total cpu time spent up to now is      146.1 secs

     total energy              =     -15.61526768 Ry
     estimated scf accuracy    <       0.00045945 Ry

     iteration # 10     ecut=    50.00 Ry     beta= 0.01
     Davidson diagonalization with overlap
     ethr =  5.66E-06,  avg # of iterations =  1.0

     total cpu time spent up to now is      149.6 secs

     total energy              =     -15.61596047 Ry
     estimated scf accuracy    <       0.00057225 Ry

     iteration # 11     ecut=    50.00 Ry     beta= 0.01
     Davidson diagonalization with overlap
     ethr =  5.66E-06,  avg # of iterations =  5.9

     total cpu time spent up to now is      155.6 secs

     total energy              =     -15.61710706 Ry
     estimated scf accuracy    <       0.00277272 Ry

     iteration # 12     ecut=    50.00 Ry     beta= 0.01
     Davidson diagonalization with overlap
     ethr =  5.66E-06,  avg # of iterations =  2.8

     total cpu time spent up to now is      159.3 secs

     total energy              =     -15.61774120 Ry
     estimated scf accuracy    <       0.00486443 Ry

     iteration # 13     ecut=    50.00 Ry     beta= 0.01
     Davidson diagonalization with overlap
     ethr =  5.66E-06,  avg # of iterations =  3.5

     total cpu time spent up to now is      163.6 secs

     total energy              =     -15.61524155 Ry
     estimated scf accuracy    <       0.00701781 Ry

     iteration # 14     ecut=    50.00 Ry     beta= 0.01
     Davidson diagonalization with overlap
     ethr =  5.66E-06,  avg # of iterations =  5.2

     total cpu time spent up to now is      169.0 secs

     total energy              =     -15.61561894 Ry
     estimated scf accuracy    <       0.00003437 Ry

     iteration # 15     ecut=    50.00 Ry     beta= 0.01
     Davidson diagonalization with overlap
     c_bands:  1 eigenvalues not converged
     ethr =  4.30E-07,  avg # of iterations =  9.6

     total cpu time spent up to now is      177.9 secs

     total energy              =     -15.61569421 Ry
     estimated scf accuracy    <       0.00000327 Ry

     iteration # 16     ecut=    50.00 Ry     beta= 0.01
     Davidson diagonalization with overlap
     c_bands:  1 eigenvalues not converged
     c_bands:  1 eigenvalues not converged
     c_bands:  1 eigenvalues not converged
     ethr =  4.08E-08,  avg # of iterations = 10.7

     total cpu time spent up to now is      186.9 secs

     total energy              =     -15.61571001 Ry
     estimated scf accuracy    <       0.00000229 Ry

     iteration # 17     ecut=    50.00 Ry     beta= 0.01
     Davidson diagonalization with overlap
     c_bands:  1 eigenvalues not converged
     ethr =  2.86E-08,  avg # of iterations =  5.1

     total cpu time spent up to now is      191.4 secs

     total energy              =     -15.61570597 Ry
     estimated scf accuracy    <       0.00000823 Ry

     iteration # 18     ecut=    50.00 Ry     beta= 0.01
     Davidson diagonalization with overlap
     c_bands:  1 eigenvalues not converged
     ethr =  2.86E-08,  avg # of iterations =  5.7

     total cpu time spent up to now is      196.8 secs

     total energy              =     -15.61570034 Ry
     estimated scf accuracy    <       0.00001705 Ry

     iteration # 19     ecut=    50.00 Ry     beta= 0.01
     Davidson diagonalization with overlap
     c_bands:  1 eigenvalues not converged
     ethr =  2.86E-08,  avg # of iterations =  8.6

     total cpu time spent up to now is      204.2 secs

     total energy              =     -15.61569427 Ry
     estimated scf accuracy    <       0.00005126 Ry

     iteration # 20     ecut=    50.00 Ry     beta= 0.01
     Davidson diagonalization with overlap
     c_bands:  1 eigenvalues not converged
     ethr =  2.86E-08,  avg # of iterations =  3.6

     total cpu time spent up to now is      207.9 secs

     total energy              =     -15.61570990 Ry
     estimated scf accuracy    <       0.00005185 Ry

     iteration # 21     ecut=    50.00 Ry     beta= 0.01
     Davidson diagonalization with overlap
     c_bands:  1 eigenvalues not converged
     ethr =  2.86E-08,  avg # of iterations =  2.3

     total cpu time spent up to now is      210.9 secs

     total energy              =     -15.61570862 Ry
     estimated scf accuracy    <       0.00003623 Ry

     iteration # 22     ecut=    50.00 Ry     beta= 0.01
     Davidson diagonalization with overlap
     c_bands:  1 eigenvalues not converged
     ethr =  2.86E-08,  avg # of iterations =  1.4

     total cpu time spent up to now is      213.6 secs

     total energy              =     -15.61571286 Ry
     estimated scf accuracy    <       0.00003123 Ry

     iteration # 23     ecut=    50.00 Ry     beta= 0.01
     Davidson diagonalization with overlap
     c_bands:  1 eigenvalues not converged
     ethr =  2.86E-08,  avg # of iterations =  1.6

     total cpu time spent up to now is      216.4 secs

     total energy              =     -15.61571665 Ry
     estimated scf accuracy    <       0.00002736 Ry

     iteration # 24     ecut=    50.00 Ry     beta= 0.01
     Davidson diagonalization with overlap
     c_bands:  1 eigenvalues not converged
     ethr =  2.86E-08,  avg # of iterations =  1.4

     total cpu time spent up to now is      219.2 secs

     total energy              =     -15.61570402 Ry
     estimated scf accuracy    <       0.00003781 Ry

     iteration # 25     ecut=    50.00 Ry     beta= 0.01
     Davidson diagonalization with overlap
     c_bands:  1 eigenvalues not converged
     ethr =  2.86E-08,  avg # of iterations =  8.4

     total cpu time spent up to now is      227.0 secs

     total energy              =     -15.61571388 Ry
     estimated scf accuracy    <       0.00000283 Ry

     iteration # 26     ecut=    50.00 Ry     beta= 0.01
     Davidson diagonalization with overlap
     c_bands:  1 eigenvalues not converged
     ethr =  2.86E-08,  avg # of iterations =  1.8

     total cpu time spent up to now is      229.7 secs

     End of self-consistent calculation

          k = 0.0000 0.0000 0.0000 (  3839 PWs)   bands (ev):

    -9.2211  -4.9744   0.1073   0.1073

          k =-0.1000 0.1000-0.1000 (  3903 PWs)   bands (ev):

    -9.1671  -5.1174   0.0231   0.0248

          k =-0.2000 0.2000-0.2000 (  3921 PWs)   bands (ev):

    -9.0112  -5.4890  -0.1620  -0.1607

          k =-0.3000 0.3000-0.3000 (  3912 PWs)   bands (ev):

    -8.7774  -5.9627  -0.4182  -0.3423

          k =-0.4000 0.4000-0.4000 (  3918 PWs)   bands (ev):

    -8.5292  -6.3885  -0.6093  -0.4662

          k = 0.5000-0.5000 0.5000 (  3906 PWs)   bands (ev):

    -8.4082  -6.5740  -0.6780  -0.5096

          k = 0.0000 0.2000 0.0000 (  3919 PWs)   bands (ev):

    -9.1486  -5.1632  -0.1098  -0.1098

          k =-0.1000 0.3000-0.1000 (  3926 PWs)   bands (ev):

    -9.0252  -5.4539  -0.3622  -0.3099

          k =-0.2000 0.4000-0.2000 (  3942 PWs)   bands (ev):

    -8.8130  -5.8887  -0.6882  -0.4838

          k =-0.3000 0.5000-0.3000 (  3933 PWs)   bands (ev):

    -8.5572  -6.3338  -0.9625  -0.5850

          k = 0.6000-0.4000 0.6000 (  3936 PWs)   bands (ev):

    -8.3716  -6.6166  -1.1152  -0.5964

          k = 0.5000-0.3000 0.5000 (  3932 PWs)   bands (ev):

    -8.4159  -6.5517  -1.1218  -0.5180

          k = 0.4000-0.2000 0.4000 (  3923 PWs)   bands (ev):

    -8.6444  -6.1903  -0.9800  -0.3642

          k = 0.3000-0.1000 0.3000 (  3930 PWs)   bands (ev):

    -8.8935  -5.7329  -0.7050  -0.1695

          k = 0.2000 0.0000 0.2000 (  3901 PWs)   bands (ev):

    -9.0785  -5.3337  -0.3393  -0.0060

          k = 0.0000 0.4000 0.0000 (  3931 PWs)   bands (ev):

    -8.9341  -5.6437  -0.5187  -0.5187

          k =-0.1000 0.5000-0.1000 (  3941 PWs)   bands (ev):

    -8.7476  -5.9980  -0.8021  -0.6958

          k =-0.2000 0.6000-0.2000 (  3950 PWs)   bands (ev):

    -8.4960  -6.4131  -1.1466  -0.7940

          k = 0.7000-0.3000 0.7000 (  3951 PWs)   bands (ev):

    -8.2626  -6.7486  -1.4038  -0.7958

          k = 0.6000-0.2000 0.6000 (  3938 PWs)   bands (ev):

    -8.2266  -6.7966  -1.5033  -0.7022

          k = 0.5000-0.1000 0.5000 (  3947 PWs)   bands (ev):

    -8.4283  -6.5154  -1.4188  -0.5315

          k = 0.4000 0.0000 0.4000 (  3937 PWs)   bands (ev):

    -8.6862  -6.1095  -1.1458  -0.3266

          k = 0.0000 0.6000 0.0000 (  3956 PWs)   bands (ev):

    -8.5862  -6.2667  -0.8829  -0.8829

          k =-0.1000 0.7000-0.1000 (  3965 PWs)   bands (ev):

    -8.3469  -6.6242  -1.1329  -0.9926

          k = 0.8000-0.2000 0.8000 (  3949 PWs)   bands (ev):

    -8.0839  -6.9687  -1.4437  -1.0034

          k = 0.7000-0.1000 0.7000 (  3946 PWs)   bands (ev):

    -7.9769  -7.0964  -1.6408  -0.9143

          k = 0.6000-0.0000 0.6000 (  3947 PWs)   bands (ev):

    -8.1652  -6.8666  -1.6422  -0.7424

          k = 0.0000 0.8000 0.0000 (  3968 PWs)   bands (ev):

    -8.1199  -6.9255  -1.1201  -1.1201

          k = 0.9000-0.1000 0.9000 (  3963 PWs)   bands (ev):

    -7.8433  -7.2520  -1.3062  -1.1498

          k = 0.8000 0.0000 0.8000 (  3949 PWs)   bands (ev):

    -7.7244  -7.3785  -1.5459  -1.0765

          k = 0.0000-1.0000 0.0000 (  3984 PWs)   bands (ev):

    -7.5568  -7.5568  -1.2017  -1.2017

          k =-0.2000 0.4000 0.0000 (  3949 PWs)   bands (ev):

    -8.8711  -5.7721  -0.7515  -0.4019

          k =-0.3000 0.5000-0.1000 (  3946 PWs)   bands (ev):

    -8.6377  -6.1910  -1.0997  -0.5518

          k = 0.6000-0.4000 0.8000 (  3937 PWs)   bands (ev):

    -8.3838  -6.5839  -1.3272  -0.6790

          k = 0.5000-0.3000 0.7000 (  3954 PWs)   bands (ev):

    -8.2555  -6.7633  -1.4057  -0.7261

          k =-0.2000 0.6000 0.0000 (  3958 PWs)   bands (ev):

    -8.5362  -6.3468  -1.0925  -0.8263

          k = 0.7000-0.3000 0.9000 (  3945 PWs)   bands (ev):

    -8.2739  -6.7249  -1.3759  -0.9411

          k = 0.6000-0.2000 0.8000 (  3951 PWs)   bands (ev):

    -8.0740  -6.9817  -1.5609  -0.9612

          k = 0.5000-0.1000 0.7000 (  3954 PWs)   bands (ev):

    -8.1414  -6.8976  -1.5888  -0.8724

          k = 0.4000 0.0000 0.6000 (  3933 PWs)   bands (ev):

    -8.3912  -6.5637  -1.4332  -0.7076

          k = 0.8000-0.2000 1.0000 (  3959 PWs)   bands (ev):

    -8.0899  -6.9607  -1.2819  -1.1389

          k = 0.7000-0.1000 0.9000 (  3955 PWs)   bands (ev):

    -7.8361  -7.2557  -1.5016  -1.1745

          k = 0.6000 0.0000 0.8000 (  3958 PWs)   bands (ev):

    -7.8783  -7.2072  -1.6413  -1.0660

          k =-0.2000-1.0000 0.0000 (  3954 PWs)   bands (ev):

    -7.5549  -7.5549  -1.2970  -1.2970

          k = 0.6000-0.2000 1.0000 (  3955 PWs)   bands (ev):

    -8.0050  -7.0604  -1.5332  -1.1335

          k = 0.5000-0.1000 0.9000 (  3946 PWs)   bands (ev):

    -7.8316  -7.2580  -1.5802  -1.2236

          k =-0.4000-1.0000 0.0000 (  3940 PWs)   bands (ev):

    -7.5520  -7.5520  -1.4278  -1.4278

     highest occupied level (ev):     0.1073

!    total energy              =     -15.61571430 Ry
     estimated scf accuracy    <       0.00000004 Ry

     The total energy is the sum of the following terms:
     one-electron contribution =      -1.12579374 Ry
     hartree contribution      =       2.07216767 Ry
     xc contribution           =      -4.09481274 Ry
     ewald contribution        =     -12.46727549 Ry

     convergence has been achieved in  26 iterations
     Writing meta-gga kinetic term

     Writing all to output data dir ./input_pw/Ge/14/pwscf.save/
     Writing meta-gga kinetic term
 
     init_run     :     10.70s CPU     20.76s WALL (       1 calls)
     electrons    :    173.68s CPU    208.96s WALL (       1 calls)

     Called by init_run:
     wfcinit      :     10.51s CPU     20.36s WALL (       1 calls)
     potinit      :      0.08s CPU      0.11s WALL (       1 calls)
     hinit0       :      0.07s CPU      0.22s WALL (       1 calls)

     Called by electrons:
     c_bands      :    147.53s CPU    177.91s WALL (      27 calls)
     sum_band     :     23.34s CPU     27.65s WALL (      27 calls)
     v_of_rho     :      1.55s CPU      1.83s WALL (      27 calls)
     mix_rho      :      1.28s CPU      1.57s WALL (      27 calls)

     Called by c_bands:
     init_us_2    :      0.90s CPU      1.16s WALL (    2585 calls)
     init_us_2:cp :      0.89s CPU      1.15s WALL (    2585 calls)
     cegterg      :    146.44s CPU    176.49s WALL (    1269 calls)

     Called by *egterg:
     cdiaghg      :      0.30s CPU      0.40s WALL (    6093 calls)
     h_psi        :    154.25s CPU    193.37s WALL (    6187 calls)
     g_psi        :      0.13s CPU      0.19s WALL (    4871 calls)

     Called by h_psi:
     h_psi:calbec :      0.54s CPU      0.75s WALL (    6187 calls)
     vloc_psi     :     38.16s CPU     47.32s WALL (    6187 calls)
     add_vuspsi   :      0.45s CPU      0.53s WALL (    6187 calls)
     h_psi_meta   :    114.92s CPU    144.56s WALL (    6187 calls)

     General routines
     calbec       :      0.52s CPU      0.73s WALL (    6187 calls)
     fft          :      0.27s CPU      0.43s WALL (     323 calls)
     ffts         :      0.48s CPU      0.53s WALL (     567 calls)
     fftw         :    147.60s CPU    182.63s WALL (  177200 calls)
     interpolate  :      0.00s CPU      0.00s WALL (      27 calls)
 
     Parallel routines
 
     PWSCF        :   3m 4.42s CPU   3m49.77s WALL

 
   This run was terminated on:  11:40:49  14Mar2023            

=------------------------------------------------------------------------------=
   JOB DONE.
=------------------------------------------------------------------------------=
