
     Program PWSCF v.7.0 starts on  7Jul2023 at 14:25:49 

     This program is part of the open-source Quantum ESPRESSO suite
     for quantum simulation of materials; please cite
         "P. Giannozzi et al., J. Phys.:Condens. Matter 21 395502 (2009);
         "P. Giannozzi et al., J. Phys.:Condens. Matter 29 465901 (2017);
         "P. Giannozzi et al., J. Chem. Phys. 152 154105 (2020);
          URL http://www.quantum-espresso.org", 
     in publications or presentations arising from this work. More details at
     http://www.quantum-espresso.org/quote

     Parallel version (MPI), running on     1 processors

     MPI processes distributed on     1 nodes
     26830 MiB available memory on the printing compute node when the environment starts
 
     Waiting for input...
     Reading input from standard input
Warning: card &CELL ignored
Warning: card / ignored

     Current dimensions of program PWSCF are:
     Max number of different atomic species (ntypx) = 10
     Max number of k-points (npk) =  40000
     Max angular momentum in pseudopotentials (lmaxx) =  4
     file Ge.SCAN.UPF2: wavefunction(s)  0D renormalized

     WARNING: the MGGA functional with ID    5 has been 
     read together with other dft terms, but it should 
     stand alone in order to work properly. The other 
     terms will be ignored.

     Subspace diagonalization in iterative solution of the eigenvalue problem:
     a serial algorithm will be used

 
     G-vector sticks info
     --------------------
     sticks:   dense  smooth     PW     G-vecs:    dense   smooth      PW
     Sum        1261    1261    367                29603    29603    4693
 
     Using Slab Decomposition
 


     bravais-lattice index     =            2
     lattice parameter (alat)  =      13.5172  a.u.
     unit-cell volume          =     617.4472 (a.u.)^3
     number of atoms/cell      =            2
     number of atomic types    =            1
     number of electrons       =         8.00
     number of Kohn-Sham states=            4
     kinetic-energy cutoff     =      50.0000  Ry
     charge density cutoff     =     200.0000  Ry
     scf convergence threshold =      2.0E-05
     mixing beta               =       0.2000
     number of iterations used =            8  local-TF  mixing
     Exchange-correlation= SLA  PW  SCAN SCAN
                           (   0   0   0   0   0 263 267)

     celldm(1)=  13.517196  celldm(2)=   0.000000  celldm(3)=   0.000000
     celldm(4)=   0.000000  celldm(5)=   0.000000  celldm(6)=   0.000000

     crystal axes: (cart. coord. in units of alat)
               a(1) = (  -0.500000   0.000000   0.500000 )  
               a(2) = (   0.000000   0.500000   0.500000 )  
               a(3) = (  -0.500000   0.500000   0.000000 )  

     reciprocal axes: (cart. coord. in units 2 pi/alat)
               b(1) = ( -1.000000 -1.000000  1.000000 )  
               b(2) = (  1.000000  1.000000  1.000000 )  
               b(3) = ( -1.000000  1.000000 -1.000000 )  


     PseudoPot. # 1 for Ge read from file:
     ~/Documents/TA/PWDFT.jl/pseudopotentials/scan_upf/Ge.SCAN.UPF2
     MD5 check sum: Not computed, couldn't open file
     Pseudo is Norm-conserving, Zval =  4.0
     Generated by new atomic code, or converted to UPF format
     Using radial grid of 1557 points,  2 beta functions with: 
                l(1) =   0
                l(2) =   1

     atomic species   valence    mass     pseudopotential
        Ge             4.00    72.64000     Ge( 1.00)

     48 Sym. Ops., with inversion, found (24 have fractional translation)



   Cartesian axes

     site n.     atom                  positions (alat units)
         1           Ge  tau(   1) = (   0.0000000   0.0000000   0.0000000  )
         2           Ge  tau(   2) = (   0.2500000   0.2500000   0.2500000  )

     number of k points=    47
                       cart. coord. in units 2pi/alat
        k(    1) = (   0.0000000   0.0000000   0.0000000), wk =   0.0020000
        k(    2) = (  -0.1000000   0.1000000  -0.1000000), wk =   0.0160000
        k(    3) = (  -0.2000000   0.2000000  -0.2000000), wk =   0.0160000
        k(    4) = (  -0.3000000   0.3000000  -0.3000000), wk =   0.0160000
        k(    5) = (  -0.4000000   0.4000000  -0.4000000), wk =   0.0160000
        k(    6) = (   0.5000000  -0.5000000   0.5000000), wk =   0.0080000
        k(    7) = (   0.0000000   0.2000000   0.0000000), wk =   0.0120000
        k(    8) = (  -0.1000000   0.3000000  -0.1000000), wk =   0.0480000
        k(    9) = (  -0.2000000   0.4000000  -0.2000000), wk =   0.0480000
        k(   10) = (  -0.3000000   0.5000000  -0.3000000), wk =   0.0480000
        k(   11) = (   0.6000000  -0.4000000   0.6000000), wk =   0.0480000
        k(   12) = (   0.5000000  -0.3000000   0.5000000), wk =   0.0480000
        k(   13) = (   0.4000000  -0.2000000   0.4000000), wk =   0.0480000
        k(   14) = (   0.3000000  -0.1000000   0.3000000), wk =   0.0480000
        k(   15) = (   0.2000000   0.0000000   0.2000000), wk =   0.0240000
        k(   16) = (   0.0000000   0.4000000   0.0000000), wk =   0.0120000
        k(   17) = (  -0.1000000   0.5000000  -0.1000000), wk =   0.0480000
        k(   18) = (  -0.2000000   0.6000000  -0.2000000), wk =   0.0480000
        k(   19) = (   0.7000000  -0.3000000   0.7000000), wk =   0.0480000
        k(   20) = (   0.6000000  -0.2000000   0.6000000), wk =   0.0480000
        k(   21) = (   0.5000000  -0.1000000   0.5000000), wk =   0.0480000
        k(   22) = (   0.4000000   0.0000000   0.4000000), wk =   0.0240000
        k(   23) = (   0.0000000   0.6000000   0.0000000), wk =   0.0120000
        k(   24) = (  -0.1000000   0.7000000  -0.1000000), wk =   0.0480000
        k(   25) = (   0.8000000  -0.2000000   0.8000000), wk =   0.0480000
        k(   26) = (   0.7000000  -0.1000000   0.7000000), wk =   0.0480000
        k(   27) = (   0.6000000  -0.0000000   0.6000000), wk =   0.0240000
        k(   28) = (   0.0000000   0.8000000   0.0000000), wk =   0.0120000
        k(   29) = (   0.9000000  -0.1000000   0.9000000), wk =   0.0480000
        k(   30) = (   0.8000000   0.0000000   0.8000000), wk =   0.0240000
        k(   31) = (   0.0000000  -1.0000000   0.0000000), wk =   0.0060000
        k(   32) = (  -0.2000000   0.4000000   0.0000000), wk =   0.0480000
        k(   33) = (  -0.3000000   0.5000000  -0.1000000), wk =   0.0960000
        k(   34) = (   0.6000000  -0.4000000   0.8000000), wk =   0.0960000
        k(   35) = (   0.5000000  -0.3000000   0.7000000), wk =   0.0480000
        k(   36) = (  -0.2000000   0.6000000   0.0000000), wk =   0.0480000
        k(   37) = (   0.7000000  -0.3000000   0.9000000), wk =   0.0960000
        k(   38) = (   0.6000000  -0.2000000   0.8000000), wk =   0.0960000
        k(   39) = (   0.5000000  -0.1000000   0.7000000), wk =   0.0960000
        k(   40) = (   0.4000000   0.0000000   0.6000000), wk =   0.0480000
        k(   41) = (   0.8000000  -0.2000000   1.0000000), wk =   0.0480000
        k(   42) = (   0.7000000  -0.1000000   0.9000000), wk =   0.0960000
        k(   43) = (   0.6000000   0.0000000   0.8000000), wk =   0.0480000
        k(   44) = (  -0.2000000  -1.0000000   0.0000000), wk =   0.0240000
        k(   45) = (   0.6000000  -0.2000000   1.0000000), wk =   0.0480000
        k(   46) = (   0.5000000  -0.1000000   0.9000000), wk =   0.0480000
        k(   47) = (  -0.4000000  -1.0000000   0.0000000), wk =   0.0240000

     Dense  grid:    29603 G-vectors     FFT dimensions: (  48,  48,  48)

     Estimated max dynamical RAM per process >      57.54 MB

     WARNING: libxc functional with ID  263 depends
      on external parameters: check the user_guide of
      QE if you need to modify them or to check their
      default values.

     Initial potential from superposition of free atoms

     starting charge       7.9987, renormalised to       8.0000
     Starting wfcs are   18 randomized atomic wfcs

     total cpu time spent up to now is       23.3 secs

     Self-consistent Calculation

     iteration #  1     ecut=    50.00 Ry     beta= 0.20
     Davidson diagonalization with overlap
     ethr =  1.00E-02,  avg # of iterations =  1.0

     Threshold (ethr) on eigenvalues was too large:
     Diagonalizing with lowered threshold

     Davidson diagonalization with overlap
     ethr =  2.14E-04,  avg # of iterations =  5.1

     total cpu time spent up to now is       64.1 secs

     total energy              =     -15.61910133 Ry
     estimated scf accuracy    <       0.01769627 Ry

     iteration #  2     ecut=    50.00 Ry     beta= 0.20
     Davidson diagonalization with overlap
     ethr =  2.21E-04,  avg # of iterations =  1.7

     total cpu time spent up to now is       79.5 secs

     total energy              =     -15.63720828 Ry
     estimated scf accuracy    <       0.01233017 Ry

     iteration #  3     ecut=    50.00 Ry     beta= 0.20
     Davidson diagonalization with overlap
     ethr =  1.54E-04,  avg # of iterations =  2.2

     total cpu time spent up to now is       96.3 secs

     total energy              =     -15.63908590 Ry
     estimated scf accuracy    <       0.00075650 Ry

     iteration #  4     ecut=    50.00 Ry     beta= 0.20
     Davidson diagonalization with overlap
     ethr =  9.46E-06,  avg # of iterations =  8.7

     total cpu time spent up to now is      121.4 secs

     total energy              =     -15.64036256 Ry
     estimated scf accuracy    <       0.00059578 Ry

     iteration #  5     ecut=    50.00 Ry     beta= 0.20
     Davidson diagonalization with overlap
     ethr =  7.45E-06,  avg # of iterations =  3.2

     total cpu time spent up to now is      129.8 secs

     total energy              =     -15.64052589 Ry
     estimated scf accuracy    <       0.00017679 Ry

     iteration #  6     ecut=    50.00 Ry     beta= 0.20
     Davidson diagonalization with overlap
     ethr =  2.21E-06,  avg # of iterations =  5.7

     total cpu time spent up to now is      141.6 secs

     total energy              =     -15.64063452 Ry
     estimated scf accuracy    <       0.00011017 Ry

     iteration #  7     ecut=    50.00 Ry     beta= 0.20
     Davidson diagonalization with overlap
     ethr =  1.38E-06,  avg # of iterations =  2.5

     total cpu time spent up to now is      145.4 secs

     total energy              =     -15.64064601 Ry
     estimated scf accuracy    <       0.00004493 Ry

     iteration #  8     ecut=    50.00 Ry     beta= 0.20
     Davidson diagonalization with overlap
     ethr =  5.62E-07,  avg # of iterations =  5.9

     total cpu time spent up to now is      150.8 secs

     End of self-consistent calculation

          k = 0.0000 0.0000 0.0000 (  3695 PWs)   bands (ev):

    -9.1026  -4.3176   0.4226   0.4227

          k =-0.1000 0.1000-0.1000 (  3698 PWs)   bands (ev):

    -9.0434  -4.4924   0.3308   0.3322

          k =-0.2000 0.2000-0.2000 (  3689 PWs)   bands (ev):

    -8.8726  -4.9384   0.1317   0.1659

          k =-0.3000 0.3000-0.3000 (  3687 PWs)   bands (ev):

    -8.6155  -5.4943  -0.0910  -0.0639

          k =-0.4000 0.4000-0.4000 (  3684 PWs)   bands (ev):

    -8.3408  -5.9861  -0.2842  -0.1968

          k = 0.5000-0.5000 0.5000 (  3708 PWs)   bands (ev):

    -8.2059  -6.1993  -0.3537  -0.2431

          k = 0.0000 0.2000 0.0000 (  3691 PWs)   bands (ev):

    -9.0233  -4.5473   0.1846   0.1846

          k =-0.1000 0.3000-0.1000 (  3689 PWs)   bands (ev):

    -8.8882  -4.8947  -0.0858  -0.0325

          k =-0.2000 0.4000-0.2000 (  3685 PWs)   bands (ev):

    -8.6552  -5.4046  -0.4306  -0.2194

          k =-0.3000 0.5000-0.3000 (  3692 PWs)   bands (ev):

    -8.3728  -5.9185  -0.7191  -0.3271

          k = 0.6000-0.4000 0.6000 (  3695 PWs)   bands (ev):

    -8.1663  -6.2427  -0.8810  -0.3381

          k = 0.5000-0.3000 0.5000 (  3707 PWs)   bands (ev):

    -8.2158  -6.1684  -0.8917  -0.2528

          k = 0.4000-0.2000 0.4000 (  3686 PWs)   bands (ev):

    -8.4692  -5.7537  -0.7473  -0.0863

          k = 0.3000-0.1000 0.3000 (  3697 PWs)   bands (ev):

    -8.7436  -5.2235  -0.4594   0.1241

          k = 0.2000 0.0000 0.2000 (  3695 PWs)   bands (ev):

    -8.9465  -4.7526  -0.0667   0.3010

          k = 0.0000 0.4000 0.0000 (  3683 PWs)   bands (ev):

    -8.7885  -5.1154  -0.2593  -0.2592

          k =-0.1000 0.5000-0.1000 (  3675 PWs)   bands (ev):

    -8.5840  -5.5253  -0.5649  -0.4498

          k =-0.2000 0.6000-0.2000 (  3682 PWs)   bands (ev):

    -8.3067  -6.0002  -0.9358  -0.5546

          k = 0.7000-0.3000 0.7000 (  3678 PWs)   bands (ev):

    -8.0479  -6.3816  -1.2127  -0.5553

          k = 0.6000-0.2000 0.6000 (  3690 PWs)   bands (ev):

    -8.0076  -6.4365  -1.3222  -0.4533

          k = 0.5000-0.1000 0.5000 (  3692 PWs)   bands (ev):

    -8.2313  -6.1179  -1.2349  -0.2682

          k = 0.4000 0.0000 0.4000 (  3693 PWs)   bands (ev):

    -8.5158  -5.6563  -0.9418  -0.0460

          k = 0.0000 0.6000 0.0000 (  3663 PWs)   bands (ev):

    -8.4071  -5.8300  -0.6518  -0.6518

          k =-0.1000 0.7000-0.1000 (  3682 PWs)   bands (ev):

    -8.1439  -6.2339  -0.9236  -0.7694

          k = 0.8000-0.2000 0.8000 (  3687 PWs)   bands (ev):

    -7.8531  -6.6211  -1.2632  -0.7802

          k = 0.7000-0.1000 0.7000 (  3698 PWs)   bands (ev):

    -7.7332  -6.7654  -1.4791  -0.6834

          k = 0.6000-0.0000 0.6000 (  3689 PWs)   bands (ev):

    -7.9412  -6.5095  -1.4811  -0.4971

          k = 0.0000 0.8000 0.0000 (  3680 PWs)   bands (ev):

    -7.8945  -6.5708  -0.9066  -0.9066

          k = 0.9000-0.1000 0.9000 (  3684 PWs)   bands (ev):

    -7.5891  -6.9346  -1.1112  -0.9381

          k = 0.8000 0.0000 0.8000 (  3684 PWs)   bands (ev):

    -7.4556  -7.0766  -1.3759  -0.8588

          k = 0.0000-1.0000 0.0000 (  3692 PWs)   bands (ev):

    -7.2726  -7.2726  -0.9941  -0.9941

          k =-0.2000 0.4000 0.0000 (  3679 PWs)   bands (ev):

    -8.7192  -5.2666  -0.5138  -0.1271

          k =-0.3000 0.5000-0.1000 (  3685 PWs)   bands (ev):

    -8.4625  -5.7492  -0.8879  -0.2898

          k = 0.6000-0.4000 0.8000 (  3681 PWs)   bands (ev):

    -8.1818  -6.1976  -1.1285  -0.4288

          k = 0.5000-0.3000 0.7000 (  3682 PWs)   bands (ev):

    -8.0388  -6.4016  -1.2107  -0.4804

          k =-0.2000 0.6000 0.0000 (  3673 PWs)   bands (ev):

    -8.3517  -5.9222  -0.8816  -0.5898

          k = 0.7000-0.3000 0.9000 (  3692 PWs)   bands (ev):

    -8.0623  -6.3493  -1.1887  -0.7150

          k = 0.6000-0.2000 0.8000 (  3680 PWs)   bands (ev):

    -7.8403  -6.6385  -1.3895  -0.7371

          k = 0.5000-0.1000 0.7000 (  3680 PWs)   bands (ev):

    -7.9148  -6.5444  -1.4212  -0.6402

          k = 0.4000 0.0000 0.6000 (  3690 PWs)   bands (ev):

    -8.1911  -6.1695  -1.2532  -0.4602

          k = 0.8000-0.2000 1.0000 (  3699 PWs)   bands (ev):

    -7.8608  -6.6105  -1.0855  -0.9297

          k = 0.7000-0.1000 0.9000 (  3689 PWs)   bands (ev):

    -7.5797  -6.9393  -1.3273  -0.9686

          k = 0.6000 0.0000 0.8000 (  3696 PWs)   bands (ev):

    -7.6249  -6.8868  -1.4808  -0.8508

          k =-0.2000-1.0000 0.0000 (  3694 PWs)   bands (ev):

    -7.2702  -7.2702  -1.1013  -1.1013

          k = 0.6000-0.2000 1.0000 (  3689 PWs)   bands (ev):

    -7.7657  -6.7225  -1.3620  -0.9263

          k = 0.5000-0.1000 0.9000 (  3682 PWs)   bands (ev):

    -7.5738  -6.9423  -1.4137  -1.0250

          k =-0.4000-1.0000 0.0000 (  3686 PWs)   bands (ev):

    -7.2662  -7.2662  -1.2476  -1.2476

     highest occupied level (ev):     0.4227

!    total energy              =     -15.64066969 Ry
     estimated scf accuracy    <       0.00000090 Ry

     The total energy is the sum of the following terms:
     one-electron contribution =      -0.73949365 Ry
     hartree contribution      =       1.98196857 Ry
     xc contribution           =      -4.13068176 Ry
     ewald contribution        =     -12.75246284 Ry

     convergence has been achieved in   8 iterations
     Writing meta-gga kinetic term

     Writing all to output data dir ./input_pw/Ge/14/pwscf.save/
     Writing meta-gga kinetic term
 
     init_run     :     11.55s CPU     23.27s WALL (       1 calls)
     electrons    :     89.91s CPU    127.51s WALL (       1 calls)

     Called by init_run:
     wfcinit      :     11.35s CPU     22.89s WALL (       1 calls)
     potinit      :      0.09s CPU      0.20s WALL (       1 calls)
     hinit0       :      0.07s CPU      0.11s WALL (       1 calls)

     Called by electrons:
     c_bands      :     77.75s CPU    109.70s WALL (       9 calls)
     sum_band     :     11.17s CPU     16.42s WALL (       9 calls)
     v_of_rho     :      0.62s CPU      0.94s WALL (       9 calls)
     mix_rho      :      0.43s CPU      0.58s WALL (       9 calls)

     Called by c_bands:
     init_us_2    :      0.38s CPU      0.55s WALL (     893 calls)
     init_us_2:cp :      0.37s CPU      0.55s WALL (     893 calls)
     cegterg      :     77.30s CPU    109.04s WALL (     423 calls)

     Called by *egterg:
     cdiaghg      :      0.15s CPU      0.24s WALL (    2062 calls)
     h_psi        :     87.18s CPU    129.61s WALL (    2156 calls)
     g_psi        :      0.06s CPU      0.06s WALL (    1686 calls)

     Called by h_psi:
     h_psi:calbec :      0.29s CPU      0.44s WALL (    2156 calls)
     vloc_psi     :     21.53s CPU     31.94s WALL (    2156 calls)
     add_vuspsi   :      0.24s CPU      0.30s WALL (    2156 calls)
     h_psi_meta   :     65.03s CPU     96.78s WALL (    2156 calls)

     General routines
     calbec       :      0.29s CPU      0.43s WALL (    2156 calls)
     fft          :      0.12s CPU      0.19s WALL (     107 calls)
     ffts         :      0.18s CPU      0.28s WALL (     153 calls)
     fftw         :     79.30s CPU    117.65s WALL (   65216 calls)
     interpolate  :      0.00s CPU      0.00s WALL (       9 calls)
 
     Parallel routines
 
     PWSCF        :   1m41.49s CPU   2m30.86s WALL

 
   This run was terminated on:  14:28:20   7Jul2023            

=------------------------------------------------------------------------------=
   JOB DONE.
=------------------------------------------------------------------------------=
