
     Program PWSCF v.7.0 starts on 29Mar2023 at 11:45:51 

     This program is part of the open-source Quantum ESPRESSO suite
     for quantum simulation of materials; please cite
         "P. Giannozzi et al., J. Phys.:Condens. Matter 21 395502 (2009);
         "P. Giannozzi et al., J. Phys.:Condens. Matter 29 465901 (2017);
         "P. Giannozzi et al., J. Chem. Phys. 152 154105 (2020);
          URL http://www.quantum-espresso.org", 
     in publications or presentations arising from this work. More details at
     http://www.quantum-espresso.org/quote

     Parallel version (MPI), running on     1 processors

     MPI processes distributed on     1 nodes
     23228 MiB available memory on the printing compute node when the environment starts
 
     Waiting for input...
     Reading input from standard input
Warning: card &CELL ignored
Warning: card / ignored

     Current dimensions of program PWSCF are:
     Max number of different atomic species (ntypx) = 10
     Max number of k-points (npk) =  40000
     Max angular momentum in pseudopotentials (lmaxx) =  4
     file Ge.SCAN.UPF2: wavefunction(s)  0D renormalized

     WARNING: the MGGA functional with ID    5 has been 
     read together with other dft terms, but it should 
     stand alone in order to work properly. The other 
     terms will be ignored.

     Subspace diagonalization in iterative solution of the eigenvalue problem:
     a serial algorithm will be used

 
     G-vector sticks info
     --------------------
     sticks:   dense  smooth     PW     G-vecs:    dense   smooth      PW
     Sum        1261    1261    367                29603    29603    4693
 
     Using Slab Decomposition
 


     bravais-lattice index     =            2
     lattice parameter (alat)  =      13.5172  a.u.
     unit-cell volume          =     617.4472 (a.u.)^3
     number of atoms/cell      =            2
     number of atomic types    =            1
     number of electrons       =         8.00
     number of Kohn-Sham states=            4
     kinetic-energy cutoff     =      50.0000  Ry
     charge density cutoff     =     200.0000  Ry
     scf convergence threshold =      1.0E-06
     mixing beta               =       0.0100
     number of iterations used =            8  local-TF  mixing
     Exchange-correlation= SLA  PW  SCAN SCAN
                           (   0   0   0   0   0 263 267)

     celldm(1)=  13.517196  celldm(2)=   0.000000  celldm(3)=   0.000000
     celldm(4)=   0.000000  celldm(5)=   0.000000  celldm(6)=   0.000000

     crystal axes: (cart. coord. in units of alat)
               a(1) = (  -0.500000   0.000000   0.500000 )  
               a(2) = (   0.000000   0.500000   0.500000 )  
               a(3) = (  -0.500000   0.500000   0.000000 )  

     reciprocal axes: (cart. coord. in units 2 pi/alat)
               b(1) = ( -1.000000 -1.000000  1.000000 )  
               b(2) = (  1.000000  1.000000  1.000000 )  
               b(3) = ( -1.000000  1.000000 -1.000000 )  


     PseudoPot. # 1 for Ge read from file:
     ~/Documents/TA/PWDFT.jl/pseudopotentials/scan_upf/Ge.SCAN.UPF2
     MD5 check sum: Not computed, couldn't open file
     Pseudo is Norm-conserving, Zval =  4.0
     Generated by new atomic code, or converted to UPF format
     Using radial grid of 1557 points,  2 beta functions with: 
                l(1) =   0
                l(2) =   1

     atomic species   valence    mass     pseudopotential
        Ge             4.00    72.64000     Ge( 1.00)

     48 Sym. Ops., with inversion, found (24 have fractional translation)



   Cartesian axes

     site n.     atom                  positions (alat units)
         1           Ge  tau(   1) = (   0.0000000   0.0000000   0.0000000  )
         2           Ge  tau(   2) = (   0.2500000   0.2500000   0.2500000  )

     number of k points=    47
                       cart. coord. in units 2pi/alat
        k(    1) = (   0.0000000   0.0000000   0.0000000), wk =   0.0020000
        k(    2) = (  -0.1000000   0.1000000  -0.1000000), wk =   0.0160000
        k(    3) = (  -0.2000000   0.2000000  -0.2000000), wk =   0.0160000
        k(    4) = (  -0.3000000   0.3000000  -0.3000000), wk =   0.0160000
        k(    5) = (  -0.4000000   0.4000000  -0.4000000), wk =   0.0160000
        k(    6) = (   0.5000000  -0.5000000   0.5000000), wk =   0.0080000
        k(    7) = (   0.0000000   0.2000000   0.0000000), wk =   0.0120000
        k(    8) = (  -0.1000000   0.3000000  -0.1000000), wk =   0.0480000
        k(    9) = (  -0.2000000   0.4000000  -0.2000000), wk =   0.0480000
        k(   10) = (  -0.3000000   0.5000000  -0.3000000), wk =   0.0480000
        k(   11) = (   0.6000000  -0.4000000   0.6000000), wk =   0.0480000
        k(   12) = (   0.5000000  -0.3000000   0.5000000), wk =   0.0480000
        k(   13) = (   0.4000000  -0.2000000   0.4000000), wk =   0.0480000
        k(   14) = (   0.3000000  -0.1000000   0.3000000), wk =   0.0480000
        k(   15) = (   0.2000000   0.0000000   0.2000000), wk =   0.0240000
        k(   16) = (   0.0000000   0.4000000   0.0000000), wk =   0.0120000
        k(   17) = (  -0.1000000   0.5000000  -0.1000000), wk =   0.0480000
        k(   18) = (  -0.2000000   0.6000000  -0.2000000), wk =   0.0480000
        k(   19) = (   0.7000000  -0.3000000   0.7000000), wk =   0.0480000
        k(   20) = (   0.6000000  -0.2000000   0.6000000), wk =   0.0480000
        k(   21) = (   0.5000000  -0.1000000   0.5000000), wk =   0.0480000
        k(   22) = (   0.4000000   0.0000000   0.4000000), wk =   0.0240000
        k(   23) = (   0.0000000   0.6000000   0.0000000), wk =   0.0120000
        k(   24) = (  -0.1000000   0.7000000  -0.1000000), wk =   0.0480000
        k(   25) = (   0.8000000  -0.2000000   0.8000000), wk =   0.0480000
        k(   26) = (   0.7000000  -0.1000000   0.7000000), wk =   0.0480000
        k(   27) = (   0.6000000  -0.0000000   0.6000000), wk =   0.0240000
        k(   28) = (   0.0000000   0.8000000   0.0000000), wk =   0.0120000
        k(   29) = (   0.9000000  -0.1000000   0.9000000), wk =   0.0480000
        k(   30) = (   0.8000000   0.0000000   0.8000000), wk =   0.0240000
        k(   31) = (   0.0000000  -1.0000000   0.0000000), wk =   0.0060000
        k(   32) = (  -0.2000000   0.4000000   0.0000000), wk =   0.0480000
        k(   33) = (  -0.3000000   0.5000000  -0.1000000), wk =   0.0960000
        k(   34) = (   0.6000000  -0.4000000   0.8000000), wk =   0.0960000
        k(   35) = (   0.5000000  -0.3000000   0.7000000), wk =   0.0480000
        k(   36) = (  -0.2000000   0.6000000   0.0000000), wk =   0.0480000
        k(   37) = (   0.7000000  -0.3000000   0.9000000), wk =   0.0960000
        k(   38) = (   0.6000000  -0.2000000   0.8000000), wk =   0.0960000
        k(   39) = (   0.5000000  -0.1000000   0.7000000), wk =   0.0960000
        k(   40) = (   0.4000000   0.0000000   0.6000000), wk =   0.0480000
        k(   41) = (   0.8000000  -0.2000000   1.0000000), wk =   0.0480000
        k(   42) = (   0.7000000  -0.1000000   0.9000000), wk =   0.0960000
        k(   43) = (   0.6000000   0.0000000   0.8000000), wk =   0.0480000
        k(   44) = (  -0.2000000  -1.0000000   0.0000000), wk =   0.0240000
        k(   45) = (   0.6000000  -0.2000000   1.0000000), wk =   0.0480000
        k(   46) = (   0.5000000  -0.1000000   0.9000000), wk =   0.0480000
        k(   47) = (  -0.4000000  -1.0000000   0.0000000), wk =   0.0240000

     Dense  grid:    29603 G-vectors     FFT dimensions: (  48,  48,  48)

     Estimated max dynamical RAM per process >      57.54 MB

     WARNING: libxc functional with ID  263 depends
      on external parameters: check the user_guide of
      QE if you need to modify them or to check their
      default values.

     Initial potential from superposition of free atoms

     starting charge       7.9987, renormalised to       8.0000
     Starting wfcs are   18 randomized atomic wfcs

     total cpu time spent up to now is       23.4 secs

     Self-consistent Calculation

     iteration #  1     ecut=    50.00 Ry     beta= 0.01
     Davidson diagonalization with overlap
     ethr =  1.00E-02,  avg # of iterations =  1.0

     Threshold (ethr) on eigenvalues was too large:
     Diagonalizing with lowered threshold

     Davidson diagonalization with overlap
     ethr =  2.14E-04,  avg # of iterations =  5.1

     total cpu time spent up to now is       66.1 secs

     total energy              =     -15.60551891 Ry
     estimated scf accuracy    <       0.01769627 Ry

     iteration #  2     ecut=    50.00 Ry     beta= 0.01
     Davidson diagonalization with overlap
     ethr =  2.21E-04,  avg # of iterations =  1.0

     total cpu time spent up to now is       79.7 secs

     total energy              =     -15.61572877 Ry
     estimated scf accuracy    <       0.01752890 Ry

     iteration #  3     ecut=    50.00 Ry     beta= 0.01
     Davidson diagonalization with overlap
     ethr =  2.19E-04,  avg # of iterations =  1.0

     total cpu time spent up to now is       91.8 secs

     total energy              =     -15.63733431 Ry
     estimated scf accuracy    <       0.01369847 Ry

     iteration #  4     ecut=    50.00 Ry     beta= 0.01
     Davidson diagonalization with overlap
     ethr =  1.71E-04,  avg # of iterations =  2.0

     total cpu time spent up to now is      104.8 secs

     total energy              =     -15.63901602 Ry
     estimated scf accuracy    <       0.00077321 Ry

     iteration #  5     ecut=    50.00 Ry     beta= 0.01
     Davidson diagonalization with overlap
     ethr =  9.67E-06,  avg # of iterations =  8.2

     total cpu time spent up to now is      137.5 secs

     total energy              =     -15.64004807 Ry
     estimated scf accuracy    <       0.00103686 Ry

     iteration #  6     ecut=    50.00 Ry     beta= 0.01
     Davidson diagonalization with overlap
     ethr =  9.67E-06,  avg # of iterations =  1.7

     total cpu time spent up to now is      149.1 secs

     total energy              =     -15.64017201 Ry
     estimated scf accuracy    <       0.00117029 Ry

     iteration #  7     ecut=    50.00 Ry     beta= 0.01
     Davidson diagonalization with overlap
     ethr =  9.67E-06,  avg # of iterations =  1.0

     total cpu time spent up to now is      158.9 secs

     total energy              =     -15.64027377 Ry
     estimated scf accuracy    <       0.00094251 Ry

     iteration #  8     ecut=    50.00 Ry     beta= 0.01
     Davidson diagonalization with overlap
     ethr =  9.67E-06,  avg # of iterations =  1.2

     total cpu time spent up to now is      168.2 secs

     total energy              =     -15.64031465 Ry
     estimated scf accuracy    <       0.00026237 Ry

     iteration #  9     ecut=    50.00 Ry     beta= 0.01
     Davidson diagonalization with overlap
     ethr =  3.28E-06,  avg # of iterations =  4.3

     total cpu time spent up to now is      180.8 secs

     total energy              =     -15.64040998 Ry
     estimated scf accuracy    <       0.00028903 Ry

     iteration # 10     ecut=    50.00 Ry     beta= 0.01
     Davidson diagonalization with overlap
     ethr =  3.28E-06,  avg # of iterations =  1.2

     total cpu time spent up to now is      189.6 secs

     total energy              =     -15.64195735 Ry
     estimated scf accuracy    <       0.00023950 Ry

     iteration # 11     ecut=    50.00 Ry     beta= 0.01
     Davidson diagonalization with overlap
     ethr =  2.99E-06,  avg # of iterations =  8.6

     total cpu time spent up to now is      214.0 secs

     total energy              =     -15.64684295 Ry
     estimated scf accuracy    <       0.00627967 Ry

     iteration # 12     ecut=    50.00 Ry     beta= 0.01
     Davidson diagonalization with overlap
     ethr =  2.99E-06,  avg # of iterations =  9.1

     total cpu time spent up to now is      234.4 secs

     total energy              =     -15.65041799 Ry
     estimated scf accuracy    <       0.02884808 Ry

     iteration # 13     ecut=    50.00 Ry     beta= 0.01
     Davidson diagonalization with overlap
     ethr =  2.99E-06,  avg # of iterations =  5.4

     total cpu time spent up to now is      243.0 secs

     total energy              =     -15.63786795 Ry
     estimated scf accuracy    <       0.04283963 Ry

     iteration # 14     ecut=    50.00 Ry     beta= 0.01
     Davidson diagonalization with overlap
     ethr =  2.99E-06,  avg # of iterations = 11.4

     total cpu time spent up to now is      257.6 secs

     total energy              =     -15.64055668 Ry
     estimated scf accuracy    <       0.00026772 Ry

     iteration # 15     ecut=    50.00 Ry     beta= 0.01
     Davidson diagonalization with overlap
     ethr =  2.99E-06,  avg # of iterations =  2.0

     total cpu time spent up to now is      261.4 secs

     total energy              =     -15.64056767 Ry
     estimated scf accuracy    <       0.00004252 Ry

     iteration # 16     ecut=    50.00 Ry     beta= 0.01
     Davidson diagonalization with overlap
     ethr =  5.32E-07,  avg # of iterations =  7.7

     total cpu time spent up to now is      269.0 secs

     total energy              =     -15.64062167 Ry
     estimated scf accuracy    <       0.00002645 Ry

     iteration # 17     ecut=    50.00 Ry     beta= 0.01
     Davidson diagonalization with overlap
     ethr =  3.31E-07,  avg # of iterations =  2.5

     total cpu time spent up to now is      272.4 secs

     total energy              =     -15.64062728 Ry
     estimated scf accuracy    <       0.00002535 Ry

     iteration # 18     ecut=    50.00 Ry     beta= 0.01
     Davidson diagonalization with overlap
     ethr =  3.17E-07,  avg # of iterations =  1.5

     total cpu time spent up to now is      275.6 secs

     total energy              =     -15.64067448 Ry
     estimated scf accuracy    <       0.00002259 Ry

     iteration # 19     ecut=    50.00 Ry     beta= 0.01
     Davidson diagonalization with overlap
     ethr =  2.82E-07,  avg # of iterations =  3.5

     total cpu time spent up to now is      279.6 secs

     total energy              =     -15.64067820 Ry
     estimated scf accuracy    <       0.00001213 Ry

     iteration # 20     ecut=    50.00 Ry     beta= 0.01
     Davidson diagonalization with overlap
     c_bands:  1 eigenvalues not converged
     ethr =  1.52E-07,  avg # of iterations =  4.8

     total cpu time spent up to now is      284.6 secs

     total energy              =     -15.64068186 Ry
     estimated scf accuracy    <       0.00000388 Ry

     iteration # 21     ecut=    50.00 Ry     beta= 0.01
     Davidson diagonalization with overlap
     c_bands:  1 eigenvalues not converged
     ethr =  4.85E-08,  avg # of iterations =  5.4

     total cpu time spent up to now is      290.2 secs

     total energy              =     -15.64068382 Ry
     estimated scf accuracy    <       0.00000165 Ry

     iteration # 22     ecut=    50.00 Ry     beta= 0.01
     Davidson diagonalization with overlap
     c_bands:  1 eigenvalues not converged
     c_bands:  1 eigenvalues not converged
     ethr =  2.07E-08,  avg # of iterations =  8.5

     total cpu time spent up to now is      298.6 secs

     total energy              =     -15.64068708 Ry
     estimated scf accuracy    <       0.00000134 Ry

     iteration # 23     ecut=    50.00 Ry     beta= 0.01
     Davidson diagonalization with overlap
     c_bands:  1 eigenvalues not converged
     c_bands:  1 eigenvalues not converged
     ethr =  1.67E-08,  avg # of iterations =  3.4

     total cpu time spent up to now is      302.5 secs

     End of self-consistent calculation

          k = 0.0000 0.0000 0.0000 (  3695 PWs)   bands (ev):

    -9.0979  -4.3195   0.4258   0.4258

          k =-0.1000 0.1000-0.1000 (  3698 PWs)   bands (ev):

    -9.0388  -4.4939   0.3341   0.3345

          k =-0.2000 0.2000-0.2000 (  3689 PWs)   bands (ev):

    -8.8682  -4.9389   0.1352   0.1676

          k =-0.3000 0.3000-0.3000 (  3687 PWs)   bands (ev):

    -8.6114  -5.4938  -0.0888  -0.0602

          k =-0.4000 0.4000-0.4000 (  3684 PWs)   bands (ev):

    -8.3369  -5.9848  -0.2822  -0.1930

          k = 0.5000-0.5000 0.5000 (  3708 PWs)   bands (ev):

    -8.2022  -6.1977  -0.3517  -0.2393

          k = 0.0000 0.2000 0.0000 (  3691 PWs)   bands (ev):

    -9.0187  -4.5487   0.1879   0.1879

          k =-0.1000 0.3000-0.1000 (  3689 PWs)   bands (ev):

    -8.8837  -4.8954  -0.0824  -0.0289

          k =-0.2000 0.4000-0.2000 (  3685 PWs)   bands (ev):

    -8.6509  -5.4043  -0.4272  -0.2156

          k =-0.3000 0.5000-0.3000 (  3692 PWs)   bands (ev):

    -8.3689  -5.9174  -0.7157  -0.3232

          k = 0.6000-0.4000 0.6000 (  3695 PWs)   bands (ev):

    -8.1626  -6.2411  -0.8774  -0.3342

          k = 0.5000-0.3000 0.5000 (  3707 PWs)   bands (ev):

    -8.2120  -6.1669  -0.8881  -0.2489

          k = 0.4000-0.2000 0.4000 (  3686 PWs)   bands (ev):

    -8.4652  -5.7528  -0.7437  -0.0827

          k = 0.3000-0.1000 0.3000 (  3697 PWs)   bands (ev):

    -8.7392  -5.2235  -0.4558   0.1276

          k = 0.2000 0.0000 0.2000 (  3695 PWs)   bands (ev):

    -8.9419  -4.7536  -0.0632   0.3043

          k = 0.0000 0.4000 0.0000 (  3683 PWs)   bands (ev):

    -8.7841  -5.1157  -0.2554  -0.2554

          k =-0.1000 0.5000-0.1000 (  3675 PWs)   bands (ev):

    -8.5798  -5.5249  -0.5610  -0.4458

          k =-0.2000 0.6000-0.2000 (  3682 PWs)   bands (ev):

    -8.3029  -5.9990  -0.9317  -0.5504

          k = 0.7000-0.3000 0.7000 (  3678 PWs)   bands (ev):

    -8.0444  -6.3798  -1.2086  -0.5511

          k = 0.6000-0.2000 0.6000 (  3690 PWs)   bands (ev):

    -8.0041  -6.4347  -1.3180  -0.4493

          k = 0.5000-0.1000 0.5000 (  3692 PWs)   bands (ev):

    -8.2275  -6.1165  -1.2307  -0.2643

          k = 0.4000 0.0000 0.4000 (  3693 PWs)   bands (ev):

    -8.5117  -5.6556  -0.9377  -0.0423

          k = 0.0000 0.6000 0.0000 (  3663 PWs)   bands (ev):

    -8.4031  -5.8291  -0.6476  -0.6476

          k =-0.1000 0.7000-0.1000 (  3682 PWs)   bands (ev):

    -8.1402  -6.2324  -0.9193  -0.7650

          k = 0.8000-0.2000 0.8000 (  3687 PWs)   bands (ev):

    -7.8497  -6.6191  -1.2588  -0.7759

          k = 0.7000-0.1000 0.7000 (  3698 PWs)   bands (ev):

    -7.7300  -6.7632  -1.4746  -0.6791

          k = 0.6000-0.0000 0.6000 (  3689 PWs)   bands (ev):

    -7.9378  -6.5077  -1.4767  -0.4930

          k = 0.0000 0.8000 0.0000 (  3680 PWs)   bands (ev):

    -7.8911  -6.5689  -0.9021  -0.9021

          k = 0.9000-0.1000 0.9000 (  3684 PWs)   bands (ev):

    -7.5860  -6.9323  -1.1067  -0.9336

          k = 0.8000 0.0000 0.8000 (  3684 PWs)   bands (ev):

    -7.4527  -7.0740  -1.3714  -0.8544

          k = 0.0000-1.0000 0.0000 (  3692 PWs)   bands (ev):

    -7.2699  -7.2699  -0.9895  -0.9895

          k =-0.2000 0.4000 0.0000 (  3679 PWs)   bands (ev):

    -8.7149  -5.2666  -0.5099  -0.1235

          k =-0.3000 0.5000-0.1000 (  3685 PWs)   bands (ev):

    -8.4585  -5.7483  -0.8839  -0.2860

          k = 0.6000-0.4000 0.8000 (  3681 PWs)   bands (ev):

    -8.1781  -6.1961  -1.1245  -0.4248

          k = 0.5000-0.3000 0.7000 (  3682 PWs)   bands (ev):

    -8.0353  -6.3998  -1.2067  -0.4763

          k =-0.2000 0.6000 0.0000 (  3673 PWs)   bands (ev):

    -8.3478  -5.9211  -0.8774  -0.5857

          k = 0.7000-0.3000 0.9000 (  3692 PWs)   bands (ev):

    -8.0587  -6.3477  -1.1844  -0.7108

          k = 0.6000-0.2000 0.8000 (  3680 PWs)   bands (ev):

    -7.8370  -6.6365  -1.3851  -0.7329

          k = 0.5000-0.1000 0.7000 (  3680 PWs)   bands (ev):

    -7.9114  -6.5425  -1.4168  -0.6360

          k = 0.4000 0.0000 0.6000 (  3690 PWs)   bands (ev):

    -8.1874  -6.1681  -1.2489  -0.4562

          k = 0.8000-0.2000 1.0000 (  3699 PWs)   bands (ev):

    -7.8574  -6.6086  -1.0811  -0.9253

          k = 0.7000-0.1000 0.9000 (  3689 PWs)   bands (ev):

    -7.5766  -6.9369  -1.3228  -0.9642

          k = 0.6000 0.0000 0.8000 (  3696 PWs)   bands (ev):

    -7.6217  -6.8845  -1.4763  -0.8465

          k =-0.2000-1.0000 0.0000 (  3694 PWs)   bands (ev):

    -7.2674  -7.2674  -1.0968  -1.0968

          k = 0.6000-0.2000 1.0000 (  3689 PWs)   bands (ev):

    -7.7624  -6.7205  -1.3575  -0.9219

          k = 0.5000-0.1000 0.9000 (  3682 PWs)   bands (ev):

    -7.5707  -6.9399  -1.4092  -1.0206

          k =-0.4000-1.0000 0.0000 (  3686 PWs)   bands (ev):

    -7.2634  -7.2634  -1.2431  -1.2431

     highest occupied level (ev):     0.4258

!    total energy              =     -15.64068844 Ry
     estimated scf accuracy    <       0.00000008 Ry

     The total energy is the sum of the following terms:
     one-electron contribution =      -0.73936261 Ry
     hartree contribution      =       1.98170093 Ry
     xc contribution           =      -4.13056392 Ry
     ewald contribution        =     -12.75246284 Ry

     convergence has been achieved in  23 iterations
     Writing meta-gga kinetic term

     Writing all to output data dir ./input_pw/Ge/14/pwscf.save/
     Writing meta-gga kinetic term
 
     init_run     :     11.44s CPU     23.37s WALL (       1 calls)
     electrons    :    219.48s CPU    279.07s WALL (       1 calls)

     Called by init_run:
     wfcinit      :     11.25s CPU     22.98s WALL (       1 calls)
     potinit      :      0.08s CPU      0.25s WALL (       1 calls)
     hinit0       :      0.07s CPU      0.10s WALL (       1 calls)

     Called by electrons:
     c_bands      :    188.65s CPU    239.45s WALL (      24 calls)
     sum_band     :     27.79s CPU     35.75s WALL (      24 calls)
     v_of_rho     :      1.58s CPU      2.23s WALL (      24 calls)
     mix_rho      :      1.47s CPU      1.76s WALL (      24 calls)

     Called by c_bands:
     init_us_2    :      0.90s CPU      1.23s WALL (    2303 calls)
     init_us_2:cp :      0.89s CPU      1.22s WALL (    2303 calls)
     cegterg      :    187.54s CPU    237.95s WALL (    1128 calls)

     Called by *egterg:
     cdiaghg      :      0.41s CPU      0.47s WALL (    5853 calls)
     h_psi        :    195.43s CPU    256.50s WALL (    5947 calls)
     g_psi        :      0.15s CPU      0.21s WALL (    4772 calls)

     Called by h_psi:
     h_psi:calbec :      0.73s CPU      0.85s WALL (    5947 calls)
     vloc_psi     :     48.36s CPU     63.32s WALL (    5947 calls)
     add_vuspsi   :      0.56s CPU      0.67s WALL (    5947 calls)
     h_psi_meta   :    145.57s CPU    191.43s WALL (    5947 calls)

     General routines
     calbec       :      0.71s CPU      0.82s WALL (    5947 calls)
     fft          :      0.31s CPU      0.44s WALL (     287 calls)
     ffts         :      0.53s CPU      0.68s WALL (     476 calls)
     fftw         :    179.80s CPU    235.48s WALL (  169888 calls)
     interpolate  :      0.01s CPU      0.01s WALL (      24 calls)
 
     Parallel routines
 
     PWSCF        :   3m50.95s CPU   5m 2.51s WALL

 
   This run was terminated on:  11:50:53  29Mar2023            

=------------------------------------------------------------------------------=
   JOB DONE.
=------------------------------------------------------------------------------=
