
     Program PWSCF v.7.0 starts on 29Mar2023 at 11:45:50 

     This program is part of the open-source Quantum ESPRESSO suite
     for quantum simulation of materials; please cite
         "P. Giannozzi et al., J. Phys.:Condens. Matter 21 395502 (2009);
         "P. Giannozzi et al., J. Phys.:Condens. Matter 29 465901 (2017);
         "P. Giannozzi et al., J. Chem. Phys. 152 154105 (2020);
          URL http://www.quantum-espresso.org", 
     in publications or presentations arising from this work. More details at
     http://www.quantum-espresso.org/quote

     Parallel version (MPI), running on     1 processors

     MPI processes distributed on     1 nodes
     23787 MiB available memory on the printing compute node when the environment starts
 
     Waiting for input...
     Reading input from standard input
Warning: card &CELL ignored
Warning: card / ignored

     Current dimensions of program PWSCF are:
     Max number of different atomic species (ntypx) = 10
     Max number of k-points (npk) =  40000
     Max angular momentum in pseudopotentials (lmaxx) =  4
     file Ge.SCAN.UPF2: wavefunction(s)  0D renormalized

     WARNING: the MGGA functional with ID    5 has been 
     read together with other dft terms, but it should 
     stand alone in order to work properly. The other 
     terms will be ignored.

     Subspace diagonalization in iterative solution of the eigenvalue problem:
     a serial algorithm will be used

 
     G-vector sticks info
     --------------------
     sticks:   dense  smooth     PW     G-vecs:    dense   smooth      PW
     Sum         745     745    235                13635    13635    2277
 
     Using Slab Decomposition
 


     bravais-lattice index     =            2
     lattice parameter (alat)  =      10.4451  a.u.
     unit-cell volume          =     284.8909 (a.u.)^3
     number of atoms/cell      =            2
     number of atomic types    =            1
     number of electrons       =         8.00
     number of Kohn-Sham states=            4
     kinetic-energy cutoff     =      50.0000  Ry
     charge density cutoff     =     200.0000  Ry
     scf convergence threshold =      1.0E-06
     mixing beta               =       0.0100
     number of iterations used =            8  local-TF  mixing
     Exchange-correlation= SLA  PW  SCAN SCAN
                           (   0   0   0   0   0 263 267)

     celldm(1)=  10.445106  celldm(2)=   0.000000  celldm(3)=   0.000000
     celldm(4)=   0.000000  celldm(5)=   0.000000  celldm(6)=   0.000000

     crystal axes: (cart. coord. in units of alat)
               a(1) = (  -0.500000   0.000000   0.500000 )  
               a(2) = (   0.000000   0.500000   0.500000 )  
               a(3) = (  -0.500000   0.500000   0.000000 )  

     reciprocal axes: (cart. coord. in units 2 pi/alat)
               b(1) = ( -1.000000 -1.000000  1.000000 )  
               b(2) = (  1.000000  1.000000  1.000000 )  
               b(3) = ( -1.000000  1.000000 -1.000000 )  


     PseudoPot. # 1 for Ge read from file:
     ~/Documents/TA/PWDFT.jl/pseudopotentials/scan_upf/Ge.SCAN.UPF2
     MD5 check sum: Not computed, couldn't open file
     Pseudo is Norm-conserving, Zval =  4.0
     Generated by new atomic code, or converted to UPF format
     Using radial grid of 1557 points,  2 beta functions with: 
                l(1) =   0
                l(2) =   1

     atomic species   valence    mass     pseudopotential
        Ge             4.00    72.64000     Ge( 1.00)

     48 Sym. Ops., with inversion, found (24 have fractional translation)



   Cartesian axes

     site n.     atom                  positions (alat units)
         1           Ge  tau(   1) = (   0.0000000   0.0000000   0.0000000  )
         2           Ge  tau(   2) = (   0.2500000   0.2500000   0.2500000  )

     number of k points=    47
                       cart. coord. in units 2pi/alat
        k(    1) = (   0.0000000   0.0000000   0.0000000), wk =   0.0020000
        k(    2) = (  -0.1000000   0.1000000  -0.1000000), wk =   0.0160000
        k(    3) = (  -0.2000000   0.2000000  -0.2000000), wk =   0.0160000
        k(    4) = (  -0.3000000   0.3000000  -0.3000000), wk =   0.0160000
        k(    5) = (  -0.4000000   0.4000000  -0.4000000), wk =   0.0160000
        k(    6) = (   0.5000000  -0.5000000   0.5000000), wk =   0.0080000
        k(    7) = (   0.0000000   0.2000000   0.0000000), wk =   0.0120000
        k(    8) = (  -0.1000000   0.3000000  -0.1000000), wk =   0.0480000
        k(    9) = (  -0.2000000   0.4000000  -0.2000000), wk =   0.0480000
        k(   10) = (  -0.3000000   0.5000000  -0.3000000), wk =   0.0480000
        k(   11) = (   0.6000000  -0.4000000   0.6000000), wk =   0.0480000
        k(   12) = (   0.5000000  -0.3000000   0.5000000), wk =   0.0480000
        k(   13) = (   0.4000000  -0.2000000   0.4000000), wk =   0.0480000
        k(   14) = (   0.3000000  -0.1000000   0.3000000), wk =   0.0480000
        k(   15) = (   0.2000000   0.0000000   0.2000000), wk =   0.0240000
        k(   16) = (   0.0000000   0.4000000   0.0000000), wk =   0.0120000
        k(   17) = (  -0.1000000   0.5000000  -0.1000000), wk =   0.0480000
        k(   18) = (  -0.2000000   0.6000000  -0.2000000), wk =   0.0480000
        k(   19) = (   0.7000000  -0.3000000   0.7000000), wk =   0.0480000
        k(   20) = (   0.6000000  -0.2000000   0.6000000), wk =   0.0480000
        k(   21) = (   0.5000000  -0.1000000   0.5000000), wk =   0.0480000
        k(   22) = (   0.4000000   0.0000000   0.4000000), wk =   0.0240000
        k(   23) = (   0.0000000   0.6000000   0.0000000), wk =   0.0120000
        k(   24) = (  -0.1000000   0.7000000  -0.1000000), wk =   0.0480000
        k(   25) = (   0.8000000  -0.2000000   0.8000000), wk =   0.0480000
        k(   26) = (   0.7000000  -0.1000000   0.7000000), wk =   0.0480000
        k(   27) = (   0.6000000  -0.0000000   0.6000000), wk =   0.0240000
        k(   28) = (   0.0000000   0.8000000   0.0000000), wk =   0.0120000
        k(   29) = (   0.9000000  -0.1000000   0.9000000), wk =   0.0480000
        k(   30) = (   0.8000000   0.0000000   0.8000000), wk =   0.0240000
        k(   31) = (   0.0000000  -1.0000000   0.0000000), wk =   0.0060000
        k(   32) = (  -0.2000000   0.4000000   0.0000000), wk =   0.0480000
        k(   33) = (  -0.3000000   0.5000000  -0.1000000), wk =   0.0960000
        k(   34) = (   0.6000000  -0.4000000   0.8000000), wk =   0.0960000
        k(   35) = (   0.5000000  -0.3000000   0.7000000), wk =   0.0480000
        k(   36) = (  -0.2000000   0.6000000   0.0000000), wk =   0.0480000
        k(   37) = (   0.7000000  -0.3000000   0.9000000), wk =   0.0960000
        k(   38) = (   0.6000000  -0.2000000   0.8000000), wk =   0.0960000
        k(   39) = (   0.5000000  -0.1000000   0.7000000), wk =   0.0960000
        k(   40) = (   0.4000000   0.0000000   0.6000000), wk =   0.0480000
        k(   41) = (   0.8000000  -0.2000000   1.0000000), wk =   0.0480000
        k(   42) = (   0.7000000  -0.1000000   0.9000000), wk =   0.0960000
        k(   43) = (   0.6000000   0.0000000   0.8000000), wk =   0.0480000
        k(   44) = (  -0.2000000  -1.0000000   0.0000000), wk =   0.0240000
        k(   45) = (   0.6000000  -0.2000000   1.0000000), wk =   0.0480000
        k(   46) = (   0.5000000  -0.1000000   0.9000000), wk =   0.0480000
        k(   47) = (  -0.4000000  -1.0000000   0.0000000), wk =   0.0240000

     Dense  grid:    13635 G-vectors     FFT dimensions: (  36,  36,  36)

     Estimated max dynamical RAM per process >      26.08 MB

     WARNING: libxc functional with ID  263 depends
      on external parameters: check the user_guide of
      QE if you need to modify them or to check their
      default values.

     Initial potential from superposition of free atoms

     starting charge       7.9987, renormalised to       8.0000
     Starting wfcs are   18 randomized atomic wfcs

     total cpu time spent up to now is        9.3 secs

     Self-consistent Calculation

     iteration #  1     ecut=    50.00 Ry     beta= 0.01
     Davidson diagonalization with overlap
     ethr =  1.00E-02,  avg # of iterations =  1.9

     Threshold (ethr) on eigenvalues was too large:
     Diagonalizing with lowered threshold

     Davidson diagonalization with overlap
     ethr =  4.22E-04,  avg # of iterations =  6.0

     total cpu time spent up to now is       28.2 secs

     total energy              =     -15.72291625 Ry
     estimated scf accuracy    <       0.04196201 Ry

     iteration #  2     ecut=    50.00 Ry     beta= 0.01
     Davidson diagonalization with overlap
     ethr =  5.25E-04,  avg # of iterations =  1.0

     total cpu time spent up to now is       33.4 secs

     total energy              =     -15.74704946 Ry
     estimated scf accuracy    <       0.04191152 Ry

     iteration #  3     ecut=    50.00 Ry     beta= 0.01
     Davidson diagonalization with overlap
     ethr =  5.24E-04,  avg # of iterations =  1.3

     total cpu time spent up to now is       39.0 secs

     total energy              =     -15.81814644 Ry
     estimated scf accuracy    <       0.03849218 Ry

     iteration #  4     ecut=    50.00 Ry     beta= 0.01
     Davidson diagonalization with overlap
     ethr =  4.81E-04,  avg # of iterations =  1.1

     total cpu time spent up to now is       44.5 secs

     total energy              =     -15.82061480 Ry
     estimated scf accuracy    <       0.00366867 Ry

     iteration #  5     ecut=    50.00 Ry     beta= 0.01
     Davidson diagonalization with overlap
     ethr =  4.59E-05,  avg # of iterations =  7.0

     total cpu time spent up to now is       57.7 secs

     total energy              =     -15.82504944 Ry
     estimated scf accuracy    <       0.00500959 Ry

     iteration #  6     ecut=    50.00 Ry     beta= 0.01
     Davidson diagonalization with overlap
     ethr =  4.59E-05,  avg # of iterations =  1.4

     total cpu time spent up to now is       63.5 secs

     total energy              =     -15.82218209 Ry
     estimated scf accuracy    <       0.00699039 Ry

     iteration #  7     ecut=    50.00 Ry     beta= 0.01
     Davidson diagonalization with overlap
     ethr =  4.59E-05,  avg # of iterations =  3.1

     total cpu time spent up to now is       71.4 secs

     total energy              =     -15.82273074 Ry
     estimated scf accuracy    <       0.00023331 Ry

     iteration #  8     ecut=    50.00 Ry     beta= 0.01
     Davidson diagonalization with overlap
     ethr =  2.92E-06,  avg # of iterations = 12.4

     total cpu time spent up to now is       91.1 secs

     total energy              =     -15.82386658 Ry
     estimated scf accuracy    <       0.00026130 Ry

     iteration #  9     ecut=    50.00 Ry     beta= 0.01
     Davidson diagonalization with overlap
     ethr =  2.92E-06,  avg # of iterations =  2.1

     total cpu time spent up to now is       96.5 secs

     total energy              =     -15.82395886 Ry
     estimated scf accuracy    <       0.00008636 Ry

     iteration # 10     ecut=    50.00 Ry     beta= 0.01
     Davidson diagonalization with overlap
     ethr =  1.08E-06,  avg # of iterations =  3.1

     total cpu time spent up to now is      103.1 secs

     total energy              =     -15.82403992 Ry
     estimated scf accuracy    <       0.00005469 Ry

     iteration # 11     ecut=    50.00 Ry     beta= 0.01
     Davidson diagonalization with overlap
     ethr =  6.84E-07,  avg # of iterations =  4.4

     total cpu time spent up to now is      111.2 secs

     total energy              =     -15.82406253 Ry
     estimated scf accuracy    <       0.00001469 Ry

     iteration # 12     ecut=    50.00 Ry     beta= 0.01
     Davidson diagonalization with overlap
     ethr =  1.84E-07,  avg # of iterations =  5.5

     total cpu time spent up to now is      121.2 secs

     total energy              =     -15.82406743 Ry
     estimated scf accuracy    <       0.00001214 Ry

     iteration # 13     ecut=    50.00 Ry     beta= 0.01
     Davidson diagonalization with overlap
     ethr =  1.52E-07,  avg # of iterations =  1.6

     total cpu time spent up to now is      125.5 secs

     total energy              =     -15.82406969 Ry
     estimated scf accuracy    <       0.00000689 Ry

     iteration # 14     ecut=    50.00 Ry     beta= 0.01
     Davidson diagonalization with overlap
     ethr =  8.61E-08,  avg # of iterations =  3.2

     total cpu time spent up to now is      131.2 secs

     End of self-consistent calculation

          k = 0.0000 0.0000 0.0000 (  1687 PWs)   bands (ev):

    -7.2401   6.2375   6.2375   6.2376

          k =-0.1000 0.1000-0.1000 (  1720 PWs)   bands (ev):

    -7.1080   4.5952   5.9954   5.9954

          k =-0.2000 0.2000-0.2000 (  1714 PWs)   bands (ev):

    -6.7186   2.4468   5.5276   5.5276

          k =-0.3000 0.3000-0.3000 (  1685 PWs)   bands (ev):

    -6.1027   0.4980   5.1106   5.1106

          k =-0.4000 0.4000-0.4000 (  1685 PWs)   bands (ev):

    -5.3719  -1.0522   4.8422   4.8422

          k = 0.5000-0.5000 0.5000 (  1694 PWs)   bands (ev):

    -4.9524  -1.7475   4.7508   4.7508

          k = 0.0000 0.2000 0.0000 (  1719 PWs)   bands (ev):

    -7.0635   4.6531   5.5673   5.5673

          k =-0.1000 0.3000-0.1000 (  1720 PWs)   bands (ev):

    -6.7582   2.9792   5.0541   5.1550

          k =-0.2000 0.4000-0.2000 (  1698 PWs)   bands (ev):

    -6.2120   1.0732   4.6197   4.6650

          k =-0.3000 0.5000-0.3000 (  1696 PWs)   bands (ev):

    -5.4951  -0.5869   4.1384   4.4713

          k = 0.6000-0.4000 0.6000 (  1705 PWs)   bands (ev):

    -4.8876  -1.6332   3.8155   4.4891

          k = 0.5000-0.3000 0.5000 (  1701 PWs)   bands (ev):

    -5.0423  -1.3882   3.6926   4.7087

          k = 0.4000-0.2000 0.4000 (  1704 PWs)   bands (ev):

    -5.7466  -0.0715   3.7965   5.0980

          k = 0.3000-0.1000 0.3000 (  1706 PWs)   bands (ev):

    -6.4204   1.6817   4.1602   5.5849

          k = 0.2000 0.0000 0.2000 (  1717 PWs)   bands (ev):

    -6.8894   3.4609   4.9039   5.9921

          k = 0.0000 0.4000 0.0000 (  1696 PWs)   bands (ev):

    -6.5369   2.5952   4.5106   4.5106

          k =-0.1000 0.5000-0.1000 (  1698 PWs)   bands (ev):

    -6.0664   1.2635   3.8961   4.1014

          k =-0.2000 0.6000-0.2000 (  1700 PWs)   bands (ev):

    -5.3903  -0.2265   3.1734   3.9032

          k = 0.7000-0.3000 0.7000 (  1700 PWs)   bands (ev):

    -4.6803  -1.4190   2.6086   3.9377

          k = 0.6000-0.2000 0.6000 (  1704 PWs)   bands (ev):

    -4.5415  -1.6165   2.3021   4.1973

          k = 0.5000-0.1000 0.5000 (  1705 PWs)   bands (ev):

    -5.1691  -0.6373   2.3292   4.6441

          k = 0.4000 0.0000 0.4000 (  1708 PWs)   bands (ev):

    -5.8825   0.6589   2.8693   5.1820

          k = 0.0000 0.6000 0.0000 (  1712 PWs)   bands (ev):

    -5.6706   0.5913   3.6523   3.6523

          k =-0.1000 0.7000-0.1000 (  1699 PWs)   bands (ev):

    -5.0501  -0.4863   2.9904   3.4113

          k = 0.8000-0.2000 0.8000 (  1697 PWs)   bands (ev):

    -4.3042  -1.5303   2.1345   3.4094

          k = 0.7000-0.1000 0.7000 (  1700 PWs)   bands (ev):

    -3.9160  -1.9888   1.5697   3.6454

          k = 0.6000-0.0000 0.6000 (  1704 PWs)   bands (ev):

    -4.4465  -1.3771   1.5508   4.0870

          k = 0.0000 0.8000 0.0000 (  1708 PWs)   bands (ev):

    -4.4842  -1.2979   3.1144   3.1144

          k = 0.9000-0.1000 0.9000 (  1704 PWs)   bands (ev):

    -3.7433  -2.1863   2.5357   3.0551

          k = 0.8000 0.0000 0.8000 (  1692 PWs)   bands (ev):

    -3.3016  -2.6021   1.7711   3.2400

          k = 0.0000-1.0000 0.0000 (  1724 PWs)   bands (ev):

    -3.0105  -3.0105   2.9321   2.9321

          k =-0.2000 0.4000 0.0000 (  1704 PWs)   bands (ev):

    -6.3714   1.8634   3.8663   5.0300

          k =-0.3000 0.5000-0.1000 (  1700 PWs)   bands (ev):

    -5.7579   0.3629   3.1629   4.6131

          k = 0.6000-0.4000 0.8000 (  1711 PWs)   bands (ev):

    -5.0233  -1.0325   2.8489   4.2333

          k = 0.5000-0.3000 0.7000 (  1708 PWs)   bands (ev):

    -4.5928  -1.6979   2.7608   4.0868

          k =-0.2000 0.6000 0.0000 (  1695 PWs)   bands (ev):

    -5.5231   0.2397   3.0544   3.8176

          k = 0.7000-0.3000 0.9000 (  1696 PWs)   bands (ev):

    -4.8036  -0.9176   2.3764   3.4764

          k = 0.6000-0.2000 0.8000 (  1698 PWs)   bands (ev):

    -4.1784  -1.7700   1.9318   3.4160

          k = 0.5000-0.1000 0.7000 (  1696 PWs)   bands (ev):

    -4.3745  -1.5138   1.7962   3.6700

          k = 0.4000 0.0000 0.6000 (  1700 PWs)   bands (ev):

    -5.0970  -0.5352   2.1401   4.1420

          k = 0.8000-0.2000 1.0000 (  1692 PWs)   bands (ev):

    -4.3727  -1.3972   2.6006   2.9586

          k = 0.7000-0.1000 0.9000 (  1694 PWs)   bands (ev):

    -3.6408  -2.2104   1.9121   2.8610

          k = 0.6000 0.0000 0.8000 (  1697 PWs)   bands (ev):

    -3.6749  -2.1571   1.4977   3.1497

          k =-0.2000-1.0000 0.0000 (  1694 PWs)   bands (ev):

    -2.9702  -2.9702   2.5568   2.5568

          k = 0.6000-0.2000 1.0000 (  1693 PWs)   bands (ev):

    -4.0707  -1.7069   1.8432   2.8901

          k = 0.5000-0.1000 0.9000 (  1700 PWs)   bands (ev):

    -3.5691  -2.2362   1.6897   2.6301

          k =-0.4000-1.0000 0.0000 (  1708 PWs)   bands (ev):

    -2.9014  -2.9014   2.0757   2.0758

     highest occupied level (ev):     6.2376

!    total energy              =     -15.82407161 Ry
     estimated scf accuracy    <       0.00000037 Ry

     The total energy is the sum of the following terms:
     one-electron contribution =       4.28443056 Ry
     hartree contribution      =       1.13829764 Ry
     xc contribution           =      -4.74361262 Ry
     ewald contribution        =     -16.50318720 Ry

     convergence has been achieved in  14 iterations
     Writing meta-gga kinetic term

     Writing all to output data dir ./input_pw/Ge/4/pwscf.save/
     Writing meta-gga kinetic term
 
     init_run     :      4.42s CPU      9.24s WALL (       1 calls)
     electrons    :     65.05s CPU    121.89s WALL (       1 calls)

     Called by init_run:
     wfcinit      :      4.30s CPU      8.91s WALL (       1 calls)
     potinit      :      0.03s CPU      0.10s WALL (       1 calls)
     hinit0       :      0.07s CPU      0.18s WALL (       1 calls)

     Called by electrons:
     c_bands      :     55.69s CPU    104.52s WALL (      15 calls)
     sum_band     :      8.46s CPU     15.64s WALL (      15 calls)
     v_of_rho     :      0.51s CPU      1.03s WALL (      15 calls)
     mix_rho      :      0.38s CPU      0.75s WALL (      15 calls)

     Called by c_bands:
     init_us_2    :      0.35s CPU      0.53s WALL (    1457 calls)
     init_us_2:cp :      0.34s CPU      0.52s WALL (    1457 calls)
     cegterg      :     55.27s CPU    103.75s WALL (     705 calls)

     Called by *egterg:
     cdiaghg      :      0.28s CPU      0.52s WALL (    3254 calls)
     h_psi        :     58.19s CPU    109.94s WALL (    3348 calls)
     g_psi        :      0.05s CPU      0.07s WALL (    2596 calls)

     Called by h_psi:
     h_psi:calbec :      0.30s CPU      0.53s WALL (    3348 calls)
     vloc_psi     :     14.57s CPU     27.65s WALL (    3348 calls)
     add_vuspsi   :      0.19s CPU      0.42s WALL (    3348 calls)
     h_psi_meta   :     43.03s CPU     81.13s WALL (    3348 calls)

     General routines
     calbec       :      0.29s CPU      0.50s WALL (    3348 calls)
     fft          :      0.10s CPU      0.23s WALL (     179 calls)
     ffts         :      0.14s CPU      0.28s WALL (     241 calls)
     fftw         :     54.92s CPU    103.80s WALL (  100000 calls)
     interpolate  :      0.00s CPU      0.00s WALL (      15 calls)
 
     Parallel routines
 
     PWSCF        :   1m 9.51s CPU   2m11.22s WALL

 
   This run was terminated on:  11:48: 1  29Mar2023            

=------------------------------------------------------------------------------=
   JOB DONE.
=------------------------------------------------------------------------------=
