
     Program PWSCF v.7.0 starts on  7Jul2023 at 14:25:49 

     This program is part of the open-source Quantum ESPRESSO suite
     for quantum simulation of materials; please cite
         "P. Giannozzi et al., J. Phys.:Condens. Matter 21 395502 (2009);
         "P. Giannozzi et al., J. Phys.:Condens. Matter 29 465901 (2017);
         "P. Giannozzi et al., J. Chem. Phys. 152 154105 (2020);
          URL http://www.quantum-espresso.org", 
     in publications or presentations arising from this work. More details at
     http://www.quantum-espresso.org/quote

     Parallel version (MPI), running on     1 processors

     MPI processes distributed on     1 nodes
     27180 MiB available memory on the printing compute node when the environment starts
 
     Waiting for input...
     Reading input from standard input
Warning: card &CELL ignored
Warning: card / ignored

     Current dimensions of program PWSCF are:
     Max number of different atomic species (ntypx) = 10
     Max number of k-points (npk) =  40000
     Max angular momentum in pseudopotentials (lmaxx) =  4
     file Ge.SCAN.UPF2: wavefunction(s)  0D renormalized

     WARNING: the MGGA functional with ID    5 has been 
     read together with other dft terms, but it should 
     stand alone in order to work properly. The other 
     terms will be ignored.

     Subspace diagonalization in iterative solution of the eigenvalue problem:
     a serial algorithm will be used

 
     G-vector sticks info
     --------------------
     sticks:   dense  smooth     PW     G-vecs:    dense   smooth      PW
     Sum         745     745    235                13635    13635    2277
 
     Using Slab Decomposition
 


     bravais-lattice index     =            2
     lattice parameter (alat)  =      10.4451  a.u.
     unit-cell volume          =     284.8909 (a.u.)^3
     number of atoms/cell      =            2
     number of atomic types    =            1
     number of electrons       =         8.00
     number of Kohn-Sham states=            4
     kinetic-energy cutoff     =      50.0000  Ry
     charge density cutoff     =     200.0000  Ry
     scf convergence threshold =      2.0E-05
     mixing beta               =       0.2000
     number of iterations used =            8  local-TF  mixing
     Exchange-correlation= SLA  PW  SCAN SCAN
                           (   0   0   0   0   0 263 267)

     celldm(1)=  10.445106  celldm(2)=   0.000000  celldm(3)=   0.000000
     celldm(4)=   0.000000  celldm(5)=   0.000000  celldm(6)=   0.000000

     crystal axes: (cart. coord. in units of alat)
               a(1) = (  -0.500000   0.000000   0.500000 )  
               a(2) = (   0.000000   0.500000   0.500000 )  
               a(3) = (  -0.500000   0.500000   0.000000 )  

     reciprocal axes: (cart. coord. in units 2 pi/alat)
               b(1) = ( -1.000000 -1.000000  1.000000 )  
               b(2) = (  1.000000  1.000000  1.000000 )  
               b(3) = ( -1.000000  1.000000 -1.000000 )  


     PseudoPot. # 1 for Ge read from file:
     ~/Documents/TA/PWDFT.jl/pseudopotentials/scan_upf/Ge.SCAN.UPF2
     MD5 check sum: Not computed, couldn't open file
     Pseudo is Norm-conserving, Zval =  4.0
     Generated by new atomic code, or converted to UPF format
     Using radial grid of 1557 points,  2 beta functions with: 
                l(1) =   0
                l(2) =   1

     atomic species   valence    mass     pseudopotential
        Ge             4.00    72.64000     Ge( 1.00)

     48 Sym. Ops., with inversion, found (24 have fractional translation)



   Cartesian axes

     site n.     atom                  positions (alat units)
         1           Ge  tau(   1) = (   0.0000000   0.0000000   0.0000000  )
         2           Ge  tau(   2) = (   0.2500000   0.2500000   0.2500000  )

     number of k points=    47
                       cart. coord. in units 2pi/alat
        k(    1) = (   0.0000000   0.0000000   0.0000000), wk =   0.0020000
        k(    2) = (  -0.1000000   0.1000000  -0.1000000), wk =   0.0160000
        k(    3) = (  -0.2000000   0.2000000  -0.2000000), wk =   0.0160000
        k(    4) = (  -0.3000000   0.3000000  -0.3000000), wk =   0.0160000
        k(    5) = (  -0.4000000   0.4000000  -0.4000000), wk =   0.0160000
        k(    6) = (   0.5000000  -0.5000000   0.5000000), wk =   0.0080000
        k(    7) = (   0.0000000   0.2000000   0.0000000), wk =   0.0120000
        k(    8) = (  -0.1000000   0.3000000  -0.1000000), wk =   0.0480000
        k(    9) = (  -0.2000000   0.4000000  -0.2000000), wk =   0.0480000
        k(   10) = (  -0.3000000   0.5000000  -0.3000000), wk =   0.0480000
        k(   11) = (   0.6000000  -0.4000000   0.6000000), wk =   0.0480000
        k(   12) = (   0.5000000  -0.3000000   0.5000000), wk =   0.0480000
        k(   13) = (   0.4000000  -0.2000000   0.4000000), wk =   0.0480000
        k(   14) = (   0.3000000  -0.1000000   0.3000000), wk =   0.0480000
        k(   15) = (   0.2000000   0.0000000   0.2000000), wk =   0.0240000
        k(   16) = (   0.0000000   0.4000000   0.0000000), wk =   0.0120000
        k(   17) = (  -0.1000000   0.5000000  -0.1000000), wk =   0.0480000
        k(   18) = (  -0.2000000   0.6000000  -0.2000000), wk =   0.0480000
        k(   19) = (   0.7000000  -0.3000000   0.7000000), wk =   0.0480000
        k(   20) = (   0.6000000  -0.2000000   0.6000000), wk =   0.0480000
        k(   21) = (   0.5000000  -0.1000000   0.5000000), wk =   0.0480000
        k(   22) = (   0.4000000   0.0000000   0.4000000), wk =   0.0240000
        k(   23) = (   0.0000000   0.6000000   0.0000000), wk =   0.0120000
        k(   24) = (  -0.1000000   0.7000000  -0.1000000), wk =   0.0480000
        k(   25) = (   0.8000000  -0.2000000   0.8000000), wk =   0.0480000
        k(   26) = (   0.7000000  -0.1000000   0.7000000), wk =   0.0480000
        k(   27) = (   0.6000000  -0.0000000   0.6000000), wk =   0.0240000
        k(   28) = (   0.0000000   0.8000000   0.0000000), wk =   0.0120000
        k(   29) = (   0.9000000  -0.1000000   0.9000000), wk =   0.0480000
        k(   30) = (   0.8000000   0.0000000   0.8000000), wk =   0.0240000
        k(   31) = (   0.0000000  -1.0000000   0.0000000), wk =   0.0060000
        k(   32) = (  -0.2000000   0.4000000   0.0000000), wk =   0.0480000
        k(   33) = (  -0.3000000   0.5000000  -0.1000000), wk =   0.0960000
        k(   34) = (   0.6000000  -0.4000000   0.8000000), wk =   0.0960000
        k(   35) = (   0.5000000  -0.3000000   0.7000000), wk =   0.0480000
        k(   36) = (  -0.2000000   0.6000000   0.0000000), wk =   0.0480000
        k(   37) = (   0.7000000  -0.3000000   0.9000000), wk =   0.0960000
        k(   38) = (   0.6000000  -0.2000000   0.8000000), wk =   0.0960000
        k(   39) = (   0.5000000  -0.1000000   0.7000000), wk =   0.0960000
        k(   40) = (   0.4000000   0.0000000   0.6000000), wk =   0.0480000
        k(   41) = (   0.8000000  -0.2000000   1.0000000), wk =   0.0480000
        k(   42) = (   0.7000000  -0.1000000   0.9000000), wk =   0.0960000
        k(   43) = (   0.6000000   0.0000000   0.8000000), wk =   0.0480000
        k(   44) = (  -0.2000000  -1.0000000   0.0000000), wk =   0.0240000
        k(   45) = (   0.6000000  -0.2000000   1.0000000), wk =   0.0480000
        k(   46) = (   0.5000000  -0.1000000   0.9000000), wk =   0.0480000
        k(   47) = (  -0.4000000  -1.0000000   0.0000000), wk =   0.0240000

     Dense  grid:    13635 G-vectors     FFT dimensions: (  36,  36,  36)

     Estimated max dynamical RAM per process >      26.08 MB

     WARNING: libxc functional with ID  263 depends
      on external parameters: check the user_guide of
      QE if you need to modify them or to check their
      default values.

     Initial potential from superposition of free atoms

     starting charge       7.9987, renormalised to       8.0000
     Starting wfcs are   18 randomized atomic wfcs

     total cpu time spent up to now is        9.1 secs

     Self-consistent Calculation

     iteration #  1     ecut=    50.00 Ry     beta= 0.20
     Davidson diagonalization with overlap
     ethr =  1.00E-02,  avg # of iterations =  1.9

     Threshold (ethr) on eigenvalues was too large:
     Diagonalizing with lowered threshold

     Davidson diagonalization with overlap
     ethr =  4.22E-04,  avg # of iterations =  6.0

     total cpu time spent up to now is       27.9 secs

     total energy              =     -15.76188760 Ry
     estimated scf accuracy    <       0.04196201 Ry

     iteration #  2     ecut=    50.00 Ry     beta= 0.20
     Davidson diagonalization with overlap
     ethr =  5.25E-04,  avg # of iterations =  1.6

     total cpu time spent up to now is       33.5 secs

     total energy              =     -15.81684833 Ry
     estimated scf accuracy    <       0.03275134 Ry

     iteration #  3     ecut=    50.00 Ry     beta= 0.20
     Davidson diagonalization with overlap
     ethr =  4.09E-04,  avg # of iterations =  1.1

     total cpu time spent up to now is       39.0 secs

     total energy              =     -15.81925625 Ry
     estimated scf accuracy    <       0.00256061 Ry

     iteration #  4     ecut=    50.00 Ry     beta= 0.20
     Davidson diagonalization with overlap
     ethr =  3.20E-05,  avg # of iterations =  9.0

     total cpu time spent up to now is       52.8 secs

     total energy              =     -15.82320230 Ry
     estimated scf accuracy    <       0.00322500 Ry

     iteration #  5     ecut=    50.00 Ry     beta= 0.20
     Davidson diagonalization with overlap
     ethr =  3.20E-05,  avg # of iterations =  2.1

     total cpu time spent up to now is       57.9 secs

     total energy              =     -15.82336264 Ry
     estimated scf accuracy    <       0.00032616 Ry

     iteration #  6     ecut=    50.00 Ry     beta= 0.20
     Davidson diagonalization with overlap
     ethr =  4.08E-06,  avg # of iterations =  8.7

     total cpu time spent up to now is       73.4 secs

     total energy              =     -15.82396171 Ry
     estimated scf accuracy    <       0.00003859 Ry

     iteration #  7     ecut=    50.00 Ry     beta= 0.20
     Davidson diagonalization with overlap
     ethr =  4.82E-07,  avg # of iterations =  8.4

     total cpu time spent up to now is       88.4 secs

     total energy              =     -15.82405015 Ry
     estimated scf accuracy    <       0.00003173 Ry

     iteration #  8     ecut=    50.00 Ry     beta= 0.20
     Davidson diagonalization with overlap
     ethr =  3.97E-07,  avg # of iterations =  3.9

     total cpu time spent up to now is       95.1 secs

     End of self-consistent calculation

          k = 0.0000 0.0000 0.0000 (  1687 PWs)   bands (ev):

    -7.2413   6.2412   6.2412   6.2412

          k =-0.1000 0.1000-0.1000 (  1720 PWs)   bands (ev):

    -7.1092   4.5969   5.9986   5.9987

          k =-0.2000 0.2000-0.2000 (  1714 PWs)   bands (ev):

    -6.7197   2.4476   5.5303   5.5303

          k =-0.3000 0.3000-0.3000 (  1685 PWs)   bands (ev):

    -6.1037   0.4983   5.1129   5.1130

          k =-0.4000 0.4000-0.4000 (  1685 PWs)   bands (ev):

    -5.3727  -1.0522   4.8444   4.8444

          k = 0.5000-0.5000 0.5000 (  1694 PWs)   bands (ev):

    -4.9531  -1.7476   4.7530   4.7530

          k = 0.0000 0.2000 0.0000 (  1719 PWs)   bands (ev):

    -7.0647   4.6548   5.5699   5.5699

          k =-0.1000 0.3000-0.1000 (  1720 PWs)   bands (ev):

    -6.7593   2.9802   5.0563   5.1571

          k =-0.2000 0.4000-0.2000 (  1698 PWs)   bands (ev):

    -6.2130   1.0736   4.6214   4.6670

          k =-0.3000 0.5000-0.3000 (  1696 PWs)   bands (ev):

    -5.4960  -0.5868   4.1399   4.4732

          k = 0.6000-0.4000 0.6000 (  1705 PWs)   bands (ev):

    -4.8884  -1.6333   3.8168   4.4911

          k = 0.5000-0.3000 0.5000 (  1701 PWs)   bands (ev):

    -5.0431  -1.3883   3.6939   4.7109

          k = 0.4000-0.2000 0.4000 (  1704 PWs)   bands (ev):

    -5.7475  -0.0713   3.7978   5.1004

          k = 0.3000-0.1000 0.3000 (  1706 PWs)   bands (ev):

    -6.4214   1.6824   4.1617   5.5877

          k = 0.2000 0.0000 0.2000 (  1717 PWs)   bands (ev):

    -6.8906   3.4621   4.9058   5.9954

          k = 0.0000 0.4000 0.0000 (  1696 PWs)   bands (ev):

    -6.5380   2.5961   4.5124   4.5124

          k =-0.1000 0.5000-0.1000 (  1698 PWs)   bands (ev):

    -6.0674   1.2641   3.8976   4.1031

          k =-0.2000 0.6000-0.2000 (  1700 PWs)   bands (ev):

    -5.3912  -0.2263   3.1744   3.9048

          k = 0.7000-0.3000 0.7000 (  1700 PWs)   bands (ev):

    -4.6810  -1.4191   2.6095   3.9393

          k = 0.6000-0.2000 0.6000 (  1704 PWs)   bands (ev):

    -4.5422  -1.6166   2.3028   4.1991

          k = 0.5000-0.1000 0.5000 (  1705 PWs)   bands (ev):

    -5.1699  -0.6372   2.3299   4.6462

          k = 0.4000 0.0000 0.4000 (  1708 PWs)   bands (ev):

    -5.8834   0.6593   2.8702   5.1845

          k = 0.0000 0.6000 0.0000 (  1712 PWs)   bands (ev):

    -5.6715   0.5917   3.6538   3.6538

          k =-0.1000 0.7000-0.1000 (  1699 PWs)   bands (ev):

    -5.0509  -0.4861   2.9915   3.4127

          k = 0.8000-0.2000 0.8000 (  1697 PWs)   bands (ev):

    -4.3048  -1.5304   2.1352   3.4108

          k = 0.7000-0.1000 0.7000 (  1700 PWs)   bands (ev):

    -3.9166  -1.9889   1.5702   3.6469

          k = 0.6000-0.0000 0.6000 (  1704 PWs)   bands (ev):

    -4.4472  -1.3771   1.5512   4.0887

          k = 0.0000 0.8000 0.0000 (  1708 PWs)   bands (ev):

    -4.4849  -1.2979   3.1156   3.1156

          k = 0.9000-0.1000 0.9000 (  1704 PWs)   bands (ev):

    -3.7438  -2.1865   2.5366   3.0564

          k = 0.8000 0.0000 0.8000 (  1692 PWs)   bands (ev):

    -3.3020  -2.6023   1.7717   3.2413

          k = 0.0000-1.0000 0.0000 (  1724 PWs)   bands (ev):

    -3.0108  -3.0108   2.9333   2.9333

          k =-0.2000 0.4000 0.0000 (  1704 PWs)   bands (ev):

    -6.3724   1.8641   3.8676   5.0323

          k =-0.3000 0.5000-0.1000 (  1700 PWs)   bands (ev):

    -5.7588   0.3632   3.1639   4.6151

          k = 0.6000-0.4000 0.8000 (  1711 PWs)   bands (ev):

    -5.0241  -1.0325   2.8498   4.2351

          k = 0.5000-0.3000 0.7000 (  1708 PWs)   bands (ev):

    -4.5935  -1.6981   2.7617   4.0884

          k =-0.2000 0.6000 0.0000 (  1695 PWs)   bands (ev):

    -5.5240   0.2400   3.0554   3.8191

          k = 0.7000-0.3000 0.9000 (  1696 PWs)   bands (ev):

    -4.8044  -0.9175   2.3771   3.4778

          k = 0.6000-0.2000 0.8000 (  1698 PWs)   bands (ev):

    -4.1790  -1.7701   1.9324   3.4173

          k = 0.5000-0.1000 0.7000 (  1696 PWs)   bands (ev):

    -4.3751  -1.5138   1.7968   3.6714

          k = 0.4000 0.0000 0.6000 (  1700 PWs)   bands (ev):

    -5.0978  -0.5350   2.1407   4.1437

          k = 0.8000-0.2000 1.0000 (  1692 PWs)   bands (ev):

    -4.3734  -1.3973   2.6015   2.9597

          k = 0.7000-0.1000 0.9000 (  1694 PWs)   bands (ev):

    -3.6413  -2.2106   1.9127   2.8621

          k = 0.6000 0.0000 0.8000 (  1697 PWs)   bands (ev):

    -3.6754  -2.1573   1.4982   3.1509

          k =-0.2000-1.0000 0.0000 (  1694 PWs)   bands (ev):

    -2.9706  -2.9706   2.5578   2.5578

          k = 0.6000-0.2000 1.0000 (  1693 PWs)   bands (ev):

    -4.0713  -1.7069   1.8438   2.8911

          k = 0.5000-0.1000 0.9000 (  1700 PWs)   bands (ev):

    -3.5696  -2.2364   1.6902   2.6310

          k =-0.4000-1.0000 0.0000 (  1708 PWs)   bands (ev):

    -2.9017  -2.9017   2.0764   2.0764

     highest occupied level (ev):     6.2412

!    total energy              =     -15.82406350 Ry
     estimated scf accuracy    <       0.00000111 Ry

     The total energy is the sum of the following terms:
     one-electron contribution =       4.28399375 Ry
     hartree contribution      =       1.13890903 Ry
     xc contribution           =      -4.74377908 Ry
     ewald contribution        =     -16.50318720 Ry

     convergence has been achieved in   8 iterations
     Writing meta-gga kinetic term

     Writing all to output data dir ./input_pw/Ge/4/pwscf.save/
     Writing meta-gga kinetic term
 
     init_run     :      4.40s CPU      9.05s WALL (       1 calls)
     electrons    :     45.71s CPU     85.94s WALL (       1 calls)

     Called by init_run:
     wfcinit      :      4.28s CPU      8.80s WALL (       1 calls)
     potinit      :      0.04s CPU      0.09s WALL (       1 calls)
     hinit0       :      0.07s CPU      0.14s WALL (       1 calls)

     Called by electrons:
     c_bands      :     40.26s CPU     75.98s WALL (       9 calls)
     sum_band     :      4.98s CPU      9.03s WALL (       9 calls)
     v_of_rho     :      0.30s CPU      0.60s WALL (       9 calls)
     mix_rho      :      0.18s CPU      0.37s WALL (       9 calls)

     Called by c_bands:
     init_us_2    :      0.21s CPU      0.49s WALL (     893 calls)
     init_us_2:cp :      0.21s CPU      0.48s WALL (     893 calls)
     cegterg      :     40.00s CPU     75.37s WALL (     423 calls)

     Called by *egterg:
     cdiaghg      :      0.20s CPU      0.37s WALL (    2386 calls)
     h_psi        :     43.20s CPU     82.01s WALL (    2480 calls)
     g_psi        :      0.04s CPU      0.15s WALL (    2010 calls)

     Called by h_psi:
     h_psi:calbec :      0.22s CPU      0.45s WALL (    2480 calls)
     vloc_psi     :     10.83s CPU     21.25s WALL (    2480 calls)
     add_vuspsi   :      0.14s CPU      0.26s WALL (    2480 calls)
     h_psi_meta   :     31.92s CPU     59.92s WALL (    2480 calls)

     General routines
     calbec       :      0.21s CPU      0.43s WALL (    2480 calls)
     fft          :      0.06s CPU      0.14s WALL (     107 calls)
     ffts         :      0.07s CPU      0.13s WALL (     133 calls)
     fftw         :     39.74s CPU     75.87s WALL (   74152 calls)
     interpolate  :      0.00s CPU      0.00s WALL (       9 calls)
 
     Parallel routines
 
     PWSCF        :     50.16s CPU   1m35.11s WALL

 
   This run was terminated on:  14:27:24   7Jul2023            

=------------------------------------------------------------------------------=
   JOB DONE.
=------------------------------------------------------------------------------=
