
     Program PWSCF v.7.0 starts on 14Mar2023 at 11:36:59 

     This program is part of the open-source Quantum ESPRESSO suite
     for quantum simulation of materials; please cite
         "P. Giannozzi et al., J. Phys.:Condens. Matter 21 395502 (2009);
         "P. Giannozzi et al., J. Phys.:Condens. Matter 29 465901 (2017);
         "P. Giannozzi et al., J. Chem. Phys. 152 154105 (2020);
          URL http://www.quantum-espresso.org", 
     in publications or presentations arising from this work. More details at
     http://www.quantum-espresso.org/quote

     Parallel version (MPI), running on     1 processors

     MPI processes distributed on     1 nodes
     27597 MiB available memory on the printing compute node when the environment starts
 
     Waiting for input...
     Reading input from standard input
Warning: card &CELL ignored
Warning: card / ignored

     Current dimensions of program PWSCF are:
     Max number of different atomic species (ntypx) = 10
     Max number of k-points (npk) =  40000
     Max angular momentum in pseudopotentials (lmaxx) =  4
     file Ge.SCAN.UPF2: wavefunction(s)  0D renormalized

     WARNING: the MGGA functional with ID    5 has been 
     read together with other dft terms, but it should 
     stand alone in order to work properly. The other 
     terms will be ignored.

     Subspace diagonalization in iterative solution of the eigenvalue problem:
     a serial algorithm will be used

 
     G-vector sticks info
     --------------------
     sticks:   dense  smooth     PW     G-vecs:    dense   smooth      PW
     Sum         583     583    187                 9377     9377    1687
 
     Using Slab Decomposition
 


     bravais-lattice index     =            2
     lattice parameter (alat)  =       9.2176  a.u.
     unit-cell volume          =     195.7914 (a.u.)^3
     number of atoms/cell      =            2
     number of atomic types    =            1
     number of electrons       =         8.00
     number of Kohn-Sham states=            4
     kinetic-energy cutoff     =      50.0000  Ry
     charge density cutoff     =     200.0000  Ry
     scf convergence threshold =      1.0E-06
     mixing beta               =       0.0100
     number of iterations used =            8  local-TF  mixing
     Exchange-correlation= SLA  PW  SCAN SCAN
                           (   0   0   0   0   0 263 267)

     celldm(1)=   9.217600  celldm(2)=   0.000000  celldm(3)=   0.000000
     celldm(4)=   0.000000  celldm(5)=   0.000000  celldm(6)=   0.000000

     crystal axes: (cart. coord. in units of alat)
               a(1) = (  -0.500000   0.000000   0.500000 )  
               a(2) = (   0.000000   0.500000   0.500000 )  
               a(3) = (  -0.500000   0.500000   0.000000 )  

     reciprocal axes: (cart. coord. in units 2 pi/alat)
               b(1) = ( -1.000000 -1.000000  1.000000 )  
               b(2) = (  1.000000  1.000000  1.000000 )  
               b(3) = ( -1.000000  1.000000 -1.000000 )  


     PseudoPot. # 1 for Ge read from file:
     ~/Documents/TA/PWDFT.jl/pseudopotentials/scan_upf/Ge.SCAN.UPF2
     MD5 check sum: Not computed, couldn't open file
     Pseudo is Norm-conserving, Zval =  4.0
     Generated by new atomic code, or converted to UPF format
     Using radial grid of 1557 points,  2 beta functions with: 
                l(1) =   0
                l(2) =   1

     atomic species   valence    mass     pseudopotential
        Ge             4.00    72.64000     Ge( 1.00)

     48 Sym. Ops., with inversion, found (24 have fractional translation)



   Cartesian axes

     site n.     atom                  positions (alat units)
         1           Ge  tau(   1) = (   0.0000000   0.0000000   0.0000000  )
         2           Ge  tau(   2) = (   0.2500000   0.2500000   0.2500000  )

     number of k points=    47
                       cart. coord. in units 2pi/alat
        k(    1) = (   0.0000000   0.0000000   0.0000000), wk =   0.0020000
        k(    2) = (  -0.1000000   0.1000000  -0.1000000), wk =   0.0160000
        k(    3) = (  -0.2000000   0.2000000  -0.2000000), wk =   0.0160000
        k(    4) = (  -0.3000000   0.3000000  -0.3000000), wk =   0.0160000
        k(    5) = (  -0.4000000   0.4000000  -0.4000000), wk =   0.0160000
        k(    6) = (   0.5000000  -0.5000000   0.5000000), wk =   0.0080000
        k(    7) = (   0.0000000   0.2000000   0.0000000), wk =   0.0120000
        k(    8) = (  -0.1000000   0.3000000  -0.1000000), wk =   0.0480000
        k(    9) = (  -0.2000000   0.4000000  -0.2000000), wk =   0.0480000
        k(   10) = (  -0.3000000   0.5000000  -0.3000000), wk =   0.0480000
        k(   11) = (   0.6000000  -0.4000000   0.6000000), wk =   0.0480000
        k(   12) = (   0.5000000  -0.3000000   0.5000000), wk =   0.0480000
        k(   13) = (   0.4000000  -0.2000000   0.4000000), wk =   0.0480000
        k(   14) = (   0.3000000  -0.1000000   0.3000000), wk =   0.0480000
        k(   15) = (   0.2000000   0.0000000   0.2000000), wk =   0.0240000
        k(   16) = (   0.0000000   0.4000000   0.0000000), wk =   0.0120000
        k(   17) = (  -0.1000000   0.5000000  -0.1000000), wk =   0.0480000
        k(   18) = (  -0.2000000   0.6000000  -0.2000000), wk =   0.0480000
        k(   19) = (   0.7000000  -0.3000000   0.7000000), wk =   0.0480000
        k(   20) = (   0.6000000  -0.2000000   0.6000000), wk =   0.0480000
        k(   21) = (   0.5000000  -0.1000000   0.5000000), wk =   0.0480000
        k(   22) = (   0.4000000   0.0000000   0.4000000), wk =   0.0240000
        k(   23) = (   0.0000000   0.6000000   0.0000000), wk =   0.0120000
        k(   24) = (  -0.1000000   0.7000000  -0.1000000), wk =   0.0480000
        k(   25) = (   0.8000000  -0.2000000   0.8000000), wk =   0.0480000
        k(   26) = (   0.7000000  -0.1000000   0.7000000), wk =   0.0480000
        k(   27) = (   0.6000000  -0.0000000   0.6000000), wk =   0.0240000
        k(   28) = (   0.0000000   0.8000000   0.0000000), wk =   0.0120000
        k(   29) = (   0.9000000  -0.1000000   0.9000000), wk =   0.0480000
        k(   30) = (   0.8000000   0.0000000   0.8000000), wk =   0.0240000
        k(   31) = (   0.0000000  -1.0000000   0.0000000), wk =   0.0060000
        k(   32) = (  -0.2000000   0.4000000   0.0000000), wk =   0.0480000
        k(   33) = (  -0.3000000   0.5000000  -0.1000000), wk =   0.0960000
        k(   34) = (   0.6000000  -0.4000000   0.8000000), wk =   0.0960000
        k(   35) = (   0.5000000  -0.3000000   0.7000000), wk =   0.0480000
        k(   36) = (  -0.2000000   0.6000000   0.0000000), wk =   0.0480000
        k(   37) = (   0.7000000  -0.3000000   0.9000000), wk =   0.0960000
        k(   38) = (   0.6000000  -0.2000000   0.8000000), wk =   0.0960000
        k(   39) = (   0.5000000  -0.1000000   0.7000000), wk =   0.0960000
        k(   40) = (   0.4000000   0.0000000   0.6000000), wk =   0.0480000
        k(   41) = (   0.8000000  -0.2000000   1.0000000), wk =   0.0480000
        k(   42) = (   0.7000000  -0.1000000   0.9000000), wk =   0.0960000
        k(   43) = (   0.6000000   0.0000000   0.8000000), wk =   0.0480000
        k(   44) = (  -0.2000000  -1.0000000   0.0000000), wk =   0.0240000
        k(   45) = (   0.6000000  -0.2000000   1.0000000), wk =   0.0480000
        k(   46) = (   0.5000000  -0.1000000   0.9000000), wk =   0.0480000
        k(   47) = (  -0.4000000  -1.0000000   0.0000000), wk =   0.0240000

     Dense  grid:     9377 G-vectors     FFT dimensions: (  32,  32,  32)

     Estimated max dynamical RAM per process >      18.04 MB

     WARNING: libxc functional with ID  263 depends
      on external parameters: check the user_guide of
      QE if you need to modify them or to check their
      default values.

     Initial potential from superposition of free atoms

     starting charge       7.9987, renormalised to       8.0000
     Starting wfcs are   18 randomized atomic wfcs

     total cpu time spent up to now is        4.5 secs

     Self-consistent Calculation

     iteration #  1     ecut=    50.00 Ry     beta= 0.01
     Davidson diagonalization with overlap
     ethr =  1.00E-02,  avg # of iterations =  1.9

     Threshold (ethr) on eigenvalues was too large:
     Diagonalizing with lowered threshold

     Davidson diagonalization with overlap
     ethr =  7.03E-04,  avg # of iterations =  5.8

     total cpu time spent up to now is       11.8 secs

     total energy              =     -15.47036910 Ry
     estimated scf accuracy    <       0.06595215 Ry

     iteration #  2     ecut=    50.00 Ry     beta= 0.01
     Davidson diagonalization with overlap
     ethr =  8.24E-04,  avg # of iterations =  1.1

     total cpu time spent up to now is       14.0 secs

     total energy              =     -15.48950198 Ry
     estimated scf accuracy    <       0.06593281 Ry

     iteration #  3     ecut=    50.00 Ry     beta= 0.01
     Davidson diagonalization with overlap
     ethr =  8.24E-04,  avg # of iterations =  1.1

     total cpu time spent up to now is       15.7 secs

     total energy              =     -15.57286269 Ry
     estimated scf accuracy    <       0.06510574 Ry

     iteration #  4     ecut=    50.00 Ry     beta= 0.01
     Davidson diagonalization with overlap
     ethr =  8.14E-04,  avg # of iterations =  1.0

     total cpu time spent up to now is       17.5 secs

     total energy              =     -15.57569536 Ry
     estimated scf accuracy    <       0.00838084 Ry

     iteration #  5     ecut=    50.00 Ry     beta= 0.01
     Davidson diagonalization with overlap
     ethr =  1.05E-04,  avg # of iterations =  6.2

     total cpu time spent up to now is       22.2 secs

     total energy              =     -15.58419892 Ry
     estimated scf accuracy    <       0.00686093 Ry

     iteration #  6     ecut=    50.00 Ry     beta= 0.01
     Davidson diagonalization with overlap
     ethr =  8.58E-05,  avg # of iterations =  1.4

     total cpu time spent up to now is       24.3 secs

     total energy              =     -15.58051780 Ry
     estimated scf accuracy    <       0.00896498 Ry

     iteration #  7     ecut=    50.00 Ry     beta= 0.01
     Davidson diagonalization with overlap
     ethr =  8.58E-05,  avg # of iterations =  2.3

     total cpu time spent up to now is       26.7 secs

     total energy              =     -15.58189133 Ry
     estimated scf accuracy    <       0.00150703 Ry

     iteration #  8     ecut=    50.00 Ry     beta= 0.01
     Davidson diagonalization with overlap
     ethr =  1.88E-05,  avg # of iterations =  6.1

     total cpu time spent up to now is       31.0 secs

     total energy              =     -15.58298230 Ry
     estimated scf accuracy    <       0.00227886 Ry

     iteration #  9     ecut=    50.00 Ry     beta= 0.01
     Davidson diagonalization with overlap
     ethr =  1.88E-05,  avg # of iterations =  1.1

     total cpu time spent up to now is       33.0 secs

     total energy              =     -15.58326166 Ry
     estimated scf accuracy    <       0.00060574 Ry

     iteration # 10     ecut=    50.00 Ry     beta= 0.01
     Davidson diagonalization with overlap
     ethr =  7.57E-06,  avg # of iterations =  1.6

     total cpu time spent up to now is       34.6 secs

     total energy              =     -15.58341205 Ry
     estimated scf accuracy    <       0.00022060 Ry

     iteration # 11     ecut=    50.00 Ry     beta= 0.01
     Davidson diagonalization with overlap
     ethr =  2.76E-06,  avg # of iterations =  4.0

     total cpu time spent up to now is       37.8 secs

     total energy              =     -15.58348364 Ry
     estimated scf accuracy    <       0.00004153 Ry

     iteration # 12     ecut=    50.00 Ry     beta= 0.01
     Davidson diagonalization with overlap
     ethr =  5.19E-07,  avg # of iterations =  6.3

     total cpu time spent up to now is       41.9 secs

     total energy              =     -15.58352892 Ry
     estimated scf accuracy    <       0.00001144 Ry

     iteration # 13     ecut=    50.00 Ry     beta= 0.01
     Davidson diagonalization with overlap
     ethr =  1.43E-07,  avg # of iterations =  5.3

     total cpu time spent up to now is       46.2 secs

     total energy              =     -15.58353035 Ry
     estimated scf accuracy    <       0.00001412 Ry

     iteration # 14     ecut=    50.00 Ry     beta= 0.01
     Davidson diagonalization with overlap
     ethr =  1.43E-07,  avg # of iterations =  2.4

     total cpu time spent up to now is       48.8 secs

     End of self-consistent calculation

          k = 0.0000 0.0000 0.0000 (  1211 PWs)   bands (ev):

    -5.8043  11.3371  11.3371  11.3372

          k =-0.1000 0.1000-0.1000 (  1191 PWs)   bands (ev):

    -5.6232   9.5036  10.9258  10.9258

          k =-0.2000 0.2000-0.2000 (  1173 PWs)   bands (ev):

    -5.0849   6.6667  10.2170  10.2170

          k =-0.3000 0.3000-0.3000 (  1164 PWs)   bands (ev):

    -4.2124   3.9985   9.6314   9.6314

          k =-0.4000 0.4000-0.4000 (  1161 PWs)   bands (ev):

    -3.1065   1.7823   9.2689   9.2689

          k = 0.5000-0.5000 0.5000 (  1170 PWs)   bands (ev):

    -2.3718   0.6736   9.1476   9.1476

          k = 0.0000 0.2000 0.0000 (  1195 PWs)   bands (ev):

    -5.5626  10.1249  10.1864  10.1864

          k =-0.1000 0.3000-0.1000 (  1175 PWs)   bands (ev):

    -5.1422   7.6068   9.4178   9.9124

          k =-0.2000 0.4000-0.2000 (  1175 PWs)   bands (ev):

    -4.3768   4.9232   8.8783   9.1912

          k =-0.3000 0.5000-0.3000 (  1162 PWs)   bands (ev):

    -3.3253   2.5572   8.5083   8.6374

          k = 0.6000-0.4000 0.6000 (  1170 PWs)   bands (ev):

    -2.3181   0.9410   8.0164   8.7043

          k = 0.5000-0.3000 0.5000 (  1167 PWs)   bands (ev):

    -2.5938   1.3415   7.7797   9.0588

          k = 0.4000-0.2000 0.4000 (  1167 PWs)   bands (ev):

    -3.7012   3.3014   7.8381   9.6542

          k = 0.3000-0.1000 0.3000 (  1173 PWs)   bands (ev):

    -4.6698   5.7944   8.2237  10.3934

          k = 0.2000 0.0000 0.2000 (  1175 PWs)   bands (ev):

    -5.3226   8.2840   9.1343  11.0116

          k = 0.0000 0.4000 0.0000 (  1170 PWs)   bands (ev):

    -4.8398   7.7476   8.5981   8.5981

          k =-0.1000 0.5000-0.1000 (  1167 PWs)   bands (ev):

    -4.1865   5.7170   7.8980   8.0167

          k =-0.2000 0.6000-0.2000 (  1160 PWs)   bands (ev):

    -3.2177   3.4616   6.9670   7.7548

          k = 0.7000-0.3000 0.7000 (  1164 PWs)   bands (ev):

    -2.1087   1.6085   6.1843   7.8329

          k = 0.6000-0.2000 0.6000 (  1163 PWs)   bands (ev):

    -1.8506   1.2588   5.6948   8.2396

          k = 0.5000-0.1000 0.5000 (  1167 PWs)   bands (ev):

    -2.8679   2.8310   5.5831   8.9271

          k = 0.4000 0.0000 0.4000 (  1169 PWs)   bands (ev):

    -3.9119   4.7530   6.1668   9.7658

          k = 0.0000 0.6000 0.0000 (  1170 PWs)   bands (ev):

    -3.6445   5.1030   7.3649   7.3649

          k =-0.1000 0.7000-0.1000 (  1170 PWs)   bands (ev):

    -2.7720   3.5831   6.3621   7.0291

          k = 0.8000-0.2000 0.8000 (  1166 PWs)   bands (ev):

    -1.6632   2.0389   5.0835   7.0414

          k = 0.7000-0.1000 0.7000 (  1162 PWs)   bands (ev):

    -0.9712   1.2463   4.2281   7.3996

          k = 0.6000-0.0000 0.6000 (  1165 PWs)   bands (ev):

    -1.7961   2.1545   4.1648   8.0659

          k = 0.0000 0.8000 0.0000 (  1162 PWs)   bands (ev):

    -1.9951   2.4796   6.6034   6.6034

          k = 0.9000-0.1000 0.9000 (  1162 PWs)   bands (ev):

    -0.9357   1.2509   5.6551   6.5244

          k = 0.8000 0.0000 0.8000 (  1152 PWs)   bands (ev):

    -0.1482   0.5911   4.4013   6.7986

          k = 0.0000-1.0000 0.0000 (  1162 PWs)   bands (ev):

     0.0705   0.0705   6.3468   6.3468

          k =-0.2000 0.4000 0.0000 (  1176 PWs)   bands (ev):

    -4.6060   6.3883   7.6167   9.6070

          k =-0.3000 0.5000-0.1000 (  1176 PWs)   bands (ev):

    -3.7369   4.2031   6.8052   8.9102

          k = 0.6000-0.4000 0.8000 (  1162 PWs)   bands (ev):

    -2.6323   2.0976   6.5453   8.2686

          k = 0.5000-0.3000 0.7000 (  1168 PWs)   bands (ev):

    -1.8910   1.0083   6.4928   8.0111

          k =-0.2000 0.6000 0.0000 (  1174 PWs)   bands (ev):

    -3.4252   4.4871   6.4514   7.6275

          k = 0.7000-0.3000 0.9000 (  1169 PWs)   bands (ev):

    -2.3779   2.7922   5.5675   7.0424

          k = 0.6000-0.2000 0.8000 (  1171 PWs)   bands (ev):

    -1.3644   1.3948   4.9894   6.9464

          k = 0.5000-0.1000 0.7000 (  1171 PWs)   bands (ev):

    -1.6786   1.8160   4.7090   7.3594

          k = 0.4000 0.0000 0.6000 (  1165 PWs)   bands (ev):

    -2.7851   3.2975   5.0908   8.1149

          k = 0.8000-0.2000 1.0000 (  1171 PWs)   bands (ev):

    -1.8091   2.3706   5.7841   6.2524

          k = 0.7000-0.1000 0.9000 (  1169 PWs)   bands (ev):

    -0.6967   1.2280   4.6480   6.1238

          k = 0.6000 0.0000 0.8000 (  1171 PWs)   bands (ev):

    -0.6455   1.2154   3.9924   6.5672

          k =-0.2000-1.0000 0.0000 (  1164 PWs)   bands (ev):

     0.1750   0.1750   5.6850   5.6850

          k = 0.6000-0.2000 1.0000 (  1175 PWs)   bands (ev):

    -1.2987   1.9189   4.5906   6.0905

          k = 0.5000-0.1000 0.9000 (  1166 PWs)   bands (ev):

    -0.5073   1.1503   4.3397   5.6828

          k =-0.4000-1.0000 0.0000 (  1164 PWs)   bands (ev):

     0.3683   0.3683   4.8493   4.8493

     highest occupied level (ev):    11.3372

!    total energy              =     -15.58353272 Ry
     estimated scf accuracy    <       0.00000048 Ry

     The total energy is the sum of the following terms:
     one-electron contribution =       7.46464636 Ry
     hartree contribution      =       0.80846287 Ry
     xc contribution           =      -5.15572874 Ry
     ewald contribution        =     -18.70091322 Ry

     convergence has been achieved in  14 iterations
     Writing meta-gga kinetic term

     Writing all to output data dir ./input_pw/Ge/0/pwscf.save/
