
     Program PWSCF v.7.0 starts on 29Mar2023 at 11:31: 5 

     This program is part of the open-source Quantum ESPRESSO suite
     for quantum simulation of materials; please cite
         "P. Giannozzi et al., J. Phys.:Condens. Matter 21 395502 (2009);
         "P. Giannozzi et al., J. Phys.:Condens. Matter 29 465901 (2017);
         "P. Giannozzi et al., J. Chem. Phys. 152 154105 (2020);
          URL http://www.quantum-espresso.org", 
     in publications or presentations arising from this work. More details at
     http://www.quantum-espresso.org/quote

     Parallel version (MPI), running on     1 processors

     MPI processes distributed on     1 nodes
     23835 MiB available memory on the printing compute node when the environment starts
 
     Waiting for input...
     Reading input from standard input
Warning: card &CELL ignored
Warning: card / ignored

     Current dimensions of program PWSCF are:
     Max number of different atomic species (ntypx) = 10
     Max number of k-points (npk) =  40000
     Max angular momentum in pseudopotentials (lmaxx) =  4
     file Si.SCAN.UPF2: wavefunction(s)  0D renormalized

     WARNING: the MGGA functional with ID    5 has been 
     read together with other dft terms, but it should 
     stand alone in order to work properly. The other 
     terms will be ignored.

     Subspace diagonalization in iterative solution of the eigenvalue problem:
     a serial algorithm will be used

 
     G-vector sticks info
     --------------------
     sticks:   dense  smooth     PW     G-vecs:    dense   smooth      PW
     Sum         499     499    163                 7391     7391    1363
 
     Using Slab Decomposition
 


     bravais-lattice index     =            2
     lattice parameter (alat)  =       8.5435  a.u.
     unit-cell volume          =     155.9020 (a.u.)^3
     number of atoms/cell      =            2
     number of atomic types    =            1
     number of electrons       =         8.00
     number of Kohn-Sham states=            4
     kinetic-energy cutoff     =      50.0000  Ry
     charge density cutoff     =     200.0000  Ry
     scf convergence threshold =      1.0E-06
     mixing beta               =       0.0100
     number of iterations used =            8  local-TF  mixing
     Exchange-correlation= SLA  PW   SCAN SCAN
                           (   0   0   0   0   0 263 267)

     celldm(1)=   8.543527  celldm(2)=   0.000000  celldm(3)=   0.000000
     celldm(4)=   0.000000  celldm(5)=   0.000000  celldm(6)=   0.000000

     crystal axes: (cart. coord. in units of alat)
               a(1) = (  -0.500000   0.000000   0.500000 )  
               a(2) = (   0.000000   0.500000   0.500000 )  
               a(3) = (  -0.500000   0.500000   0.000000 )  

     reciprocal axes: (cart. coord. in units 2 pi/alat)
               b(1) = ( -1.000000 -1.000000  1.000000 )  
               b(2) = (  1.000000  1.000000  1.000000 )  
               b(3) = ( -1.000000  1.000000 -1.000000 )  


     PseudoPot. # 1 for Si read from file:
     ~/Documents/TA/PWDFT.jl/pseudopotentials/scan_upf/Si.SCAN.UPF2
     MD5 check sum: Not computed, couldn't open file
     Pseudo is Norm-conserving, Zval =  4.0
     Generated by new atomic code, or converted to UPF format
     Using radial grid of 1475 points,  2 beta functions with: 
                l(1) =   0
                l(2) =   1

     atomic species   valence    mass     pseudopotential
        Si             4.00    28.08550     Si( 1.00)

     48 Sym. Ops., with inversion, found (24 have fractional translation)



   Cartesian axes

     site n.     atom                  positions (alat units)
         1           Si  tau(   1) = (   0.0000000   0.0000000   0.0000000  )
         2           Si  tau(   2) = (   0.2500000   0.2500000   0.2500000  )

     number of k points=    47
                       cart. coord. in units 2pi/alat
        k(    1) = (   0.0000000   0.0000000   0.0000000), wk =   0.0020000
        k(    2) = (  -0.1000000   0.1000000  -0.1000000), wk =   0.0160000
        k(    3) = (  -0.2000000   0.2000000  -0.2000000), wk =   0.0160000
        k(    4) = (  -0.3000000   0.3000000  -0.3000000), wk =   0.0160000
        k(    5) = (  -0.4000000   0.4000000  -0.4000000), wk =   0.0160000
        k(    6) = (   0.5000000  -0.5000000   0.5000000), wk =   0.0080000
        k(    7) = (   0.0000000   0.2000000   0.0000000), wk =   0.0120000
        k(    8) = (  -0.1000000   0.3000000  -0.1000000), wk =   0.0480000
        k(    9) = (  -0.2000000   0.4000000  -0.2000000), wk =   0.0480000
        k(   10) = (  -0.3000000   0.5000000  -0.3000000), wk =   0.0480000
        k(   11) = (   0.6000000  -0.4000000   0.6000000), wk =   0.0480000
        k(   12) = (   0.5000000  -0.3000000   0.5000000), wk =   0.0480000
        k(   13) = (   0.4000000  -0.2000000   0.4000000), wk =   0.0480000
        k(   14) = (   0.3000000  -0.1000000   0.3000000), wk =   0.0480000
        k(   15) = (   0.2000000   0.0000000   0.2000000), wk =   0.0240000
        k(   16) = (   0.0000000   0.4000000   0.0000000), wk =   0.0120000
        k(   17) = (  -0.1000000   0.5000000  -0.1000000), wk =   0.0480000
        k(   18) = (  -0.2000000   0.6000000  -0.2000000), wk =   0.0480000
        k(   19) = (   0.7000000  -0.3000000   0.7000000), wk =   0.0480000
        k(   20) = (   0.6000000  -0.2000000   0.6000000), wk =   0.0480000
        k(   21) = (   0.5000000  -0.1000000   0.5000000), wk =   0.0480000
        k(   22) = (   0.4000000   0.0000000   0.4000000), wk =   0.0240000
        k(   23) = (   0.0000000   0.6000000   0.0000000), wk =   0.0120000
        k(   24) = (  -0.1000000   0.7000000  -0.1000000), wk =   0.0480000
        k(   25) = (   0.8000000  -0.2000000   0.8000000), wk =   0.0480000
        k(   26) = (   0.7000000  -0.1000000   0.7000000), wk =   0.0480000
        k(   27) = (   0.6000000  -0.0000000   0.6000000), wk =   0.0240000
        k(   28) = (   0.0000000   0.8000000   0.0000000), wk =   0.0120000
        k(   29) = (   0.9000000  -0.1000000   0.9000000), wk =   0.0480000
        k(   30) = (   0.8000000   0.0000000   0.8000000), wk =   0.0240000
        k(   31) = (   0.0000000  -1.0000000   0.0000000), wk =   0.0060000
        k(   32) = (  -0.2000000   0.4000000   0.0000000), wk =   0.0480000
        k(   33) = (  -0.3000000   0.5000000  -0.1000000), wk =   0.0960000
        k(   34) = (   0.6000000  -0.4000000   0.8000000), wk =   0.0960000
        k(   35) = (   0.5000000  -0.3000000   0.7000000), wk =   0.0480000
        k(   36) = (  -0.2000000   0.6000000   0.0000000), wk =   0.0480000
        k(   37) = (   0.7000000  -0.3000000   0.9000000), wk =   0.0960000
        k(   38) = (   0.6000000  -0.2000000   0.8000000), wk =   0.0960000
        k(   39) = (   0.5000000  -0.1000000   0.7000000), wk =   0.0960000
        k(   40) = (   0.4000000   0.0000000   0.6000000), wk =   0.0480000
        k(   41) = (   0.8000000  -0.2000000   1.0000000), wk =   0.0480000
        k(   42) = (   0.7000000  -0.1000000   0.9000000), wk =   0.0960000
        k(   43) = (   0.6000000   0.0000000   0.8000000), wk =   0.0480000
        k(   44) = (  -0.2000000  -1.0000000   0.0000000), wk =   0.0240000
        k(   45) = (   0.6000000  -0.2000000   1.0000000), wk =   0.0480000
        k(   46) = (   0.5000000  -0.1000000   0.9000000), wk =   0.0480000
        k(   47) = (  -0.4000000  -1.0000000   0.0000000), wk =   0.0240000

     Dense  grid:     7391 G-vectors     FFT dimensions: (  32,  32,  32)

     Estimated max dynamical RAM per process >      15.06 MB

     WARNING: libxc functional with ID  263 depends
      on external parameters: check the user_guide of
      QE if you need to modify them or to check their
      default values.

     Initial potential from superposition of free atoms

     starting charge       7.9990, renormalised to       8.0000
     Starting wfcs are   18 randomized atomic wfcs

     total cpu time spent up to now is        3.6 secs

     Self-consistent Calculation

     iteration #  1     ecut=    50.00 Ry     beta= 0.01
     Davidson diagonalization with overlap
     ethr =  1.00E-02,  avg # of iterations =  2.0

     total cpu time spent up to now is        6.5 secs

     total energy              =     -15.26299752 Ry
     estimated scf accuracy    <       0.13528443 Ry

     iteration #  2     ecut=    50.00 Ry     beta= 0.01
     Davidson diagonalization with overlap
     ethr =  1.69E-03,  avg # of iterations =  1.0

     total cpu time spent up to now is        8.6 secs

     total energy              =     -15.30385247 Ry
     estimated scf accuracy    <       0.13893789 Ry

     iteration #  3     ecut=    50.00 Ry     beta= 0.01
     Davidson diagonalization with overlap
     ethr =  1.69E-03,  avg # of iterations =  1.8

     total cpu time spent up to now is       10.8 secs

     total energy              =     -15.36866363 Ry
     estimated scf accuracy    <       0.24304915 Ry

     iteration #  4     ecut=    50.00 Ry     beta= 0.01
     Davidson diagonalization with overlap
     ethr =  1.69E-03,  avg # of iterations =  1.3

     total cpu time spent up to now is       13.1 secs

     total energy              =     -15.37581470 Ry
     estimated scf accuracy    <       0.01549231 Ry

     iteration #  5     ecut=    50.00 Ry     beta= 0.01
     Davidson diagonalization with overlap
     ethr =  1.94E-04,  avg # of iterations =  1.0

     total cpu time spent up to now is       15.2 secs

     total energy              =     -15.37658057 Ry
     estimated scf accuracy    <       0.00675178 Ry

     iteration #  6     ecut=    50.00 Ry     beta= 0.01
     Davidson diagonalization with overlap
     ethr =  8.44E-05,  avg # of iterations =  1.0

     total cpu time spent up to now is       17.3 secs

     total energy              =     -15.37527139 Ry
     estimated scf accuracy    <       0.00759703 Ry

     iteration #  7     ecut=    50.00 Ry     beta= 0.01
     Davidson diagonalization with overlap
     ethr =  8.44E-05,  avg # of iterations =  1.0

     total cpu time spent up to now is       19.1 secs

     total energy              =     -15.37562717 Ry
     estimated scf accuracy    <       0.00034688 Ry

     iteration #  8     ecut=    50.00 Ry     beta= 0.01
     Davidson diagonalization with overlap
     ethr =  4.34E-06,  avg # of iterations =  2.4

     total cpu time spent up to now is       22.0 secs

     total energy              =     -15.37574910 Ry
     estimated scf accuracy    <       0.00011680 Ry

     iteration #  9     ecut=    50.00 Ry     beta= 0.01
     Davidson diagonalization with overlap
     ethr =  1.46E-06,  avg # of iterations =  1.0

     total cpu time spent up to now is       24.2 secs

     total energy              =     -15.37575899 Ry
     estimated scf accuracy    <       0.00010469 Ry

     iteration # 10     ecut=    50.00 Ry     beta= 0.01
     Davidson diagonalization with overlap
     ethr =  1.31E-06,  avg # of iterations =  1.0

     total cpu time spent up to now is       26.1 secs

     total energy              =     -15.37579107 Ry
     estimated scf accuracy    <       0.00012171 Ry

     iteration # 11     ecut=    50.00 Ry     beta= 0.01
     Davidson diagonalization with overlap
     ethr =  1.31E-06,  avg # of iterations =  2.0

     total cpu time spent up to now is       28.6 secs

     total energy              =     -15.37581126 Ry
     estimated scf accuracy    <       0.00001144 Ry

     iteration # 12     ecut=    50.00 Ry     beta= 0.01
     Davidson diagonalization with overlap
     ethr =  1.43E-07,  avg # of iterations =  2.0

     total cpu time spent up to now is       31.5 secs

     total energy              =     -15.37581440 Ry
     estimated scf accuracy    <       0.00000313 Ry

     iteration # 13     ecut=    50.00 Ry     beta= 0.01
     Davidson diagonalization with overlap
     ethr =  3.91E-08,  avg # of iterations =  1.0

     total cpu time spent up to now is       33.5 secs

     total energy              =     -15.37580870 Ry
     estimated scf accuracy    <       0.00000478 Ry

     iteration # 14     ecut=    50.00 Ry     beta= 0.01
     Davidson diagonalization with overlap
     ethr =  3.91E-08,  avg # of iterations =  2.4

     total cpu time spent up to now is       36.6 secs

     total energy              =     -15.37581105 Ry
     estimated scf accuracy    <       0.00000129 Ry

     iteration # 15     ecut=    50.00 Ry     beta= 0.01
     Davidson diagonalization with overlap
     ethr =  1.61E-08,  avg # of iterations =  1.0

     total cpu time spent up to now is       38.3 secs

     total energy              =     -15.37581107 Ry
     estimated scf accuracy    <       0.00000127 Ry

     iteration # 16     ecut=    50.00 Ry     beta= 0.01
     Davidson diagonalization with overlap
     ethr =  1.59E-08,  avg # of iterations =  1.0

     total cpu time spent up to now is       40.1 secs

     total energy              =     -15.37581080 Ry
     estimated scf accuracy    <       0.00000125 Ry

     iteration # 17     ecut=    50.00 Ry     beta= 0.01
     Davidson diagonalization with overlap
     ethr =  1.57E-08,  avg # of iterations =  1.0

     total cpu time spent up to now is       41.3 secs

     End of self-consistent calculation

          k = 0.0000 0.0000 0.0000 (   941 PWs)   bands (ev):

    -3.8108  13.3045  13.3045  13.3045

          k =-0.1000 0.1000-0.1000 (   929 PWs)   bands (ev):

    -3.5990  11.7866  12.9816  12.9816

          k =-0.2000 0.2000-0.2000 (   920 PWs)   bands (ev):

    -2.9682   9.1376  12.4254  12.4254

          k =-0.3000 0.3000-0.3000 (   932 PWs)   bands (ev):

    -1.9369   6.4443  11.9868  11.9868

          k =-0.4000 0.4000-0.4000 (   932 PWs)   bands (ev):

    -0.5727   4.0274  11.7350  11.7350

          k = 0.5000-0.5000 0.5000 (   912 PWs)   bands (ev):

     0.5068   2.5897  11.6559  11.6559

          k = 0.0000 0.2000 0.0000 (   933 PWs)   bands (ev):

    -3.5283  12.2692  12.2692  12.6233

          k =-0.1000 0.3000-0.1000 (   925 PWs)   bands (ev):

    -3.0368  10.1176  11.5846  12.3630

          k =-0.2000 0.4000-0.2000 (   936 PWs)   bands (ev):

    -2.1370   7.4549  11.1420  11.7619

          k =-0.3000 0.5000-0.3000 (   929 PWs)   bands (ev):

    -0.8703   4.9395  10.9921  11.1309

          k = 0.6000-0.4000 0.6000 (   928 PWs)   bands (ev):

     0.5035   2.9787  10.6184  11.1296

          k = 0.5000-0.3000 0.5000 (   929 PWs)   bands (ev):

     0.0884   3.5133  10.3109  11.5161

          k = 0.4000-0.2000 0.4000 (   934 PWs)   bands (ev):

    -1.3289   5.7486  10.2717  12.0826

          k = 0.3000-0.1000 0.3000 (   929 PWs)   bands (ev):

    -2.4816   8.3469  10.5389  12.7180

          k = 0.2000 0.0000 0.2000 (   923 PWs)   bands (ev):

    -3.2473  10.8235  11.2665  13.1756

          k = 0.0000 0.4000 0.0000 (   926 PWs)   bands (ev):

    -2.6857  10.7955  10.7955  10.8758

          k =-0.1000 0.5000-0.1000 (   933 PWs)   bands (ev):

    -1.9231   8.5794  10.2689  10.4423

          k =-0.2000 0.6000-0.2000 (   926 PWs)   bands (ev):

    -0.7759   6.1352   9.5222  10.0625

          k = 0.7000-0.3000 0.7000 (   932 PWs)   bands (ev):

     0.6350   3.9659   8.6902  10.1860

          k = 0.6000-0.2000 0.6000 (   931 PWs)   bands (ev):

     1.0359   3.4633   8.1227  10.6228

          k = 0.5000-0.1000 0.5000 (   924 PWs)   bands (ev):

    -0.3338   5.4003   7.8939  11.3221

          k = 0.4000 0.0000 0.4000 (   925 PWs)   bands (ev):

    -1.5898   7.6072   8.2661  12.1496

          k = 0.0000 0.6000 0.0000 (   930 PWs)   bands (ev):

    -1.2991   8.4217   9.6429   9.6429

          k =-0.1000 0.7000-0.1000 (   929 PWs)   bands (ev):

    -0.2828   6.8269   8.5037   9.3396

          k = 0.8000-0.2000 0.8000 (   927 PWs)   bands (ev):

     1.0606   5.0358   7.0887   9.3785

          k = 0.7000-0.1000 0.7000 (   933 PWs)   bands (ev):

     2.0936   3.8620   6.1608   9.7543

          k = 0.6000-0.0000 0.6000 (   927 PWs)   bands (ev):

     0.9827   5.0758   5.9831  10.4351

          k = 0.0000 0.8000 0.0000 (   938 PWs)   bands (ev):

     0.6001   5.6419   8.9303   8.9303

          k = 0.9000-0.1000 0.9000 (   946 PWs)   bands (ev):

     1.8348   4.3225   7.7189   8.8648

          k = 0.8000 0.0000 0.8000 (   940 PWs)   bands (ev):

     2.9886   3.4908   6.0897   9.1460

          k = 0.0000-1.0000 0.0000 (   934 PWs)   bands (ev):

     2.9528   2.9528   8.6902   8.6902

          k =-0.2000 0.4000 0.0000 (   934 PWs)   bands (ev):

    -2.4098   9.1966   9.7804  12.0381

          k =-0.3000 0.5000-0.1000 (   928 PWs)   bands (ev):

    -1.3850   6.8520   9.1814  11.3070

          k = 0.6000-0.4000 0.8000 (   932 PWs)   bands (ev):

    -0.0288   4.4986   9.0726  10.5815

          k = 0.5000-0.3000 0.7000 (   938 PWs)   bands (ev):

     1.0495   3.0754   9.1006  10.2593

          k =-0.2000 0.6000 0.0000 (   933 PWs)   bands (ev):

    -1.0340   7.6455   8.6125   9.8842

          k = 0.7000-0.3000 0.9000 (   926 PWs)   bands (ev):

     0.2172   5.6877   7.8738   9.1442

          k = 0.6000-0.2000 0.8000 (   935 PWs)   bands (ev):

     1.5783   3.8643   7.3151   9.0577

          k = 0.5000-0.1000 0.7000 (   932 PWs)   bands (ev):

     1.1435   4.4195   6.9103   9.5493

          k = 0.4000 0.0000 0.6000 (   922 PWs)   bands (ev):

    -0.2530   6.2795   7.0953  10.3929

          k = 0.8000-0.2000 1.0000 (   932 PWs)   bands (ev):

     0.8423   5.6137   7.9136   8.2812

          k = 0.7000-0.1000 0.9000 (   931 PWs)   bands (ev):

     2.2257   4.3568   6.4254   8.2035

          k = 0.6000 0.0000 0.8000 (   930 PWs)   bands (ev):

     2.4504   4.2045   5.6154   8.6969

          k =-0.2000-1.0000 0.0000 (   944 PWs)   bands (ev):

     3.1359   3.1359   7.7555   7.7555

          k = 0.6000-0.2000 1.0000 (   918 PWs)   bands (ev):

     1.5294   5.1147   6.4612   7.9945

          k = 0.5000-0.1000 0.9000 (   930 PWs)   bands (ev):

     2.6078   4.1078   6.2058   7.5144

          k =-0.4000-1.0000 0.0000 (   936 PWs)   bands (ev):

     3.5277   3.5277   6.5841   6.5841

     highest occupied level (ev):    13.3045

!    total energy              =     -15.37581035 Ry
     estimated scf accuracy    <       0.00000066 Ry

     The total energy is the sum of the following terms:
     one-electron contribution =       9.62609946 Ry
     hartree contribution      =       0.69082217 Ry
     xc contribution           =      -5.51634234 Ry
     ewald contribution        =     -20.17638964 Ry

     convergence has been achieved in  17 iterations
     Writing meta-gga kinetic term

     Writing all to output data dir ./input_pw/Si/1/pwscf.save/
     Writing meta-gga kinetic term
 
     init_run     :      1.74s CPU      3.51s WALL (       1 calls)
     electrons    :     18.77s CPU     37.71s WALL (       1 calls)

     Called by init_run:
     wfcinit      :      1.64s CPU      3.25s WALL (       1 calls)
     potinit      :      0.03s CPU      0.07s WALL (       1 calls)
     hinit0       :      0.07s CPU      0.16s WALL (       1 calls)

     Called by electrons:
     c_bands      :     14.73s CPU     29.81s WALL (      17 calls)
     sum_band     :      3.52s CPU      6.88s WALL (      17 calls)
     v_of_rho     :      0.37s CPU      0.71s WALL (      18 calls)
     mix_rho      :      0.16s CPU      0.35s WALL (      17 calls)

     Called by c_bands:
     init_us_2    :      0.20s CPU      0.50s WALL (    1645 calls)
     init_us_2:cp :      0.19s CPU      0.47s WALL (    1645 calls)
     cegterg      :     14.49s CPU     29.27s WALL (     799 calls)

     Called by *egterg:
     cdiaghg      :      0.12s CPU      0.23s WALL (    1926 calls)
     h_psi        :     15.67s CPU     31.63s WALL (    1973 calls)
     g_psi        :      0.01s CPU      0.01s WALL (    1127 calls)

     Called by h_psi:
     h_psi:calbec :      0.08s CPU      0.10s WALL (    1973 calls)
     vloc_psi     :      3.86s CPU      7.96s WALL (    1973 calls)
     add_vuspsi   :      0.06s CPU      0.14s WALL (    1973 calls)
     h_psi_meta   :     11.63s CPU     23.38s WALL (    1973 calls)

     General routines
     calbec       :      0.08s CPU      0.10s WALL (    1973 calls)
     fft          :      0.04s CPU      0.14s WALL (     213 calls)
     ffts         :      0.06s CPU      0.08s WALL (     280 calls)
     fftw         :     15.53s CPU     31.52s WALL (   78464 calls)
     interpolate  :      0.00s CPU      0.00s WALL (      18 calls)
 
     Parallel routines
 
     PWSCF        :     20.56s CPU     41.31s WALL

 
   This run was terminated on:  11:31:47  29Mar2023            

=------------------------------------------------------------------------------=
   JOB DONE.
=------------------------------------------------------------------------------=
