
     Program PWSCF v.7.0 starts on 21Feb2023 at 12:49:41 

     This program is part of the open-source Quantum ESPRESSO suite
     for quantum simulation of materials; please cite
         "P. Giannozzi et al., J. Phys.:Condens. Matter 21 395502 (2009);
         "P. Giannozzi et al., J. Phys.:Condens. Matter 29 465901 (2017);
         "P. Giannozzi et al., J. Chem. Phys. 152 154105 (2020);
          URL http://www.quantum-espresso.org", 
     in publications or presentations arising from this work. More details at
     http://www.quantum-espresso.org/quote

     Parallel version (MPI), running on     1 processors

     MPI processes distributed on     1 nodes
     2926 MiB available memory on the printing compute node when the environment starts
 
     Waiting for input...
     Reading input from standard input
Warning: card &CELL ignored
Warning: card / ignored

     Current dimensions of program PWSCF are:
     Max number of different atomic species (ntypx) = 10
     Max number of k-points (npk) =  40000
     Max angular momentum in pseudopotentials (lmaxx) =  4
     file Si.SCAN.UPF2: wavefunction(s)  0D renormalized

     WARNING: the MGGA functional with ID    5 has been 
     read together with other dft terms, but it should 
     stand alone in order to work properly. The other 
     terms will be ignored.

     Subspace diagonalization in iterative solution of the eigenvalue problem:
     a serial algorithm will be used

 
     G-vector sticks info
     --------------------
     sticks:   dense  smooth     PW     G-vecs:    dense   smooth      PW
     Sum         499     499    163                 7343     7343    1363
 
     Using Slab Decomposition
 


     bravais-lattice index     =            2
     lattice parameter (alat)  =       8.4718  a.u.
     unit-cell volume          =     152.0082 (a.u.)^3
     number of atoms/cell      =            2
     number of atomic types    =            1
     number of electrons       =         8.00
     number of Kohn-Sham states=            4
     kinetic-energy cutoff     =      50.0000  Ry
     charge density cutoff     =     200.0000  Ry
     scf convergence threshold =      1.0E-06
     mixing beta               =       0.0100
     number of iterations used =            8  local-TF  mixing
     Exchange-correlation= SLA  PW   SCAN SCAN
                           (   0   0   0   0   0 263 267)

     celldm(1)=   8.471800  celldm(2)=   0.000000  celldm(3)=   0.000000
     celldm(4)=   0.000000  celldm(5)=   0.000000  celldm(6)=   0.000000

     crystal axes: (cart. coord. in units of alat)
               a(1) = (  -0.500000   0.000000   0.500000 )  
               a(2) = (   0.000000   0.500000   0.500000 )  
               a(3) = (  -0.500000   0.500000   0.000000 )  

     reciprocal axes: (cart. coord. in units 2 pi/alat)
               b(1) = ( -1.000000 -1.000000  1.000000 )  
               b(2) = (  1.000000  1.000000  1.000000 )  
               b(3) = ( -1.000000  1.000000 -1.000000 )  


     PseudoPot. # 1 for Si read from file:
     ~/Documents/TA/PWDFT.jl/pseudopotentials/scan_upf/Si.SCAN.UPF2
     MD5 check sum: Not computed, couldn't open file
     Pseudo is Norm-conserving, Zval =  4.0
     Generated by new atomic code, or converted to UPF format
     Using radial grid of 1475 points,  2 beta functions with: 
                l(1) =   0
                l(2) =   1

     atomic species   valence    mass     pseudopotential
        Si             4.00    28.08550     Si( 1.00)

     48 Sym. Ops., with inversion, found (24 have fractional translation)



   Cartesian axes

     site n.     atom                  positions (alat units)
         1           Si  tau(   1) = (   0.0000000   0.0000000   0.0000000  )
         2           Si  tau(   2) = (   0.2500000   0.2500000   0.2500000  )

     number of k points=    47
                       cart. coord. in units 2pi/alat
        k(    1) = (   0.0000000   0.0000000   0.0000000), wk =   0.0020000
        k(    2) = (  -0.1000000   0.1000000  -0.1000000), wk =   0.0160000
        k(    3) = (  -0.2000000   0.2000000  -0.2000000), wk =   0.0160000
        k(    4) = (  -0.3000000   0.3000000  -0.3000000), wk =   0.0160000
        k(    5) = (  -0.4000000   0.4000000  -0.4000000), wk =   0.0160000
        k(    6) = (   0.5000000  -0.5000000   0.5000000), wk =   0.0080000
        k(    7) = (   0.0000000   0.2000000   0.0000000), wk =   0.0120000
        k(    8) = (  -0.1000000   0.3000000  -0.1000000), wk =   0.0480000
        k(    9) = (  -0.2000000   0.4000000  -0.2000000), wk =   0.0480000
        k(   10) = (  -0.3000000   0.5000000  -0.3000000), wk =   0.0480000
        k(   11) = (   0.6000000  -0.4000000   0.6000000), wk =   0.0480000
        k(   12) = (   0.5000000  -0.3000000   0.5000000), wk =   0.0480000
        k(   13) = (   0.4000000  -0.2000000   0.4000000), wk =   0.0480000
        k(   14) = (   0.3000000  -0.1000000   0.3000000), wk =   0.0480000
        k(   15) = (   0.2000000   0.0000000   0.2000000), wk =   0.0240000
        k(   16) = (   0.0000000   0.4000000   0.0000000), wk =   0.0120000
        k(   17) = (  -0.1000000   0.5000000  -0.1000000), wk =   0.0480000
        k(   18) = (  -0.2000000   0.6000000  -0.2000000), wk =   0.0480000
        k(   19) = (   0.7000000  -0.3000000   0.7000000), wk =   0.0480000
        k(   20) = (   0.6000000  -0.2000000   0.6000000), wk =   0.0480000
        k(   21) = (   0.5000000  -0.1000000   0.5000000), wk =   0.0480000
        k(   22) = (   0.4000000   0.0000000   0.4000000), wk =   0.0240000
        k(   23) = (   0.0000000   0.6000000   0.0000000), wk =   0.0120000
        k(   24) = (  -0.1000000   0.7000000  -0.1000000), wk =   0.0480000
        k(   25) = (   0.8000000  -0.2000000   0.8000000), wk =   0.0480000
        k(   26) = (   0.7000000  -0.1000000   0.7000000), wk =   0.0480000
        k(   27) = (   0.6000000  -0.0000000   0.6000000), wk =   0.0240000
        k(   28) = (   0.0000000   0.8000000   0.0000000), wk =   0.0120000
        k(   29) = (   0.9000000  -0.1000000   0.9000000), wk =   0.0480000
        k(   30) = (   0.8000000   0.0000000   0.8000000), wk =   0.0240000
        k(   31) = (   0.0000000  -1.0000000   0.0000000), wk =   0.0060000
        k(   32) = (  -0.2000000   0.4000000   0.0000000), wk =   0.0480000
        k(   33) = (  -0.3000000   0.5000000  -0.1000000), wk =   0.0960000
        k(   34) = (   0.6000000  -0.4000000   0.8000000), wk =   0.0960000
        k(   35) = (   0.5000000  -0.3000000   0.7000000), wk =   0.0480000
        k(   36) = (  -0.2000000   0.6000000   0.0000000), wk =   0.0480000
        k(   37) = (   0.7000000  -0.3000000   0.9000000), wk =   0.0960000
        k(   38) = (   0.6000000  -0.2000000   0.8000000), wk =   0.0960000
        k(   39) = (   0.5000000  -0.1000000   0.7000000), wk =   0.0960000
        k(   40) = (   0.4000000   0.0000000   0.6000000), wk =   0.0480000
        k(   41) = (   0.8000000  -0.2000000   1.0000000), wk =   0.0480000
        k(   42) = (   0.7000000  -0.1000000   0.9000000), wk =   0.0960000
        k(   43) = (   0.6000000   0.0000000   0.8000000), wk =   0.0480000
        k(   44) = (  -0.2000000  -1.0000000   0.0000000), wk =   0.0240000
        k(   45) = (   0.6000000  -0.2000000   1.0000000), wk =   0.0480000
        k(   46) = (   0.5000000  -0.1000000   0.9000000), wk =   0.0480000
        k(   47) = (  -0.4000000  -1.0000000   0.0000000), wk =   0.0240000

     Dense  grid:     7343 G-vectors     FFT dimensions: (  32,  32,  32)

     Estimated max dynamical RAM per process >      14.94 MB

     WARNING: libxc functional with ID  263 depends
      on external parameters: check the user_guide of
      QE if you need to modify them or to check their
      default values.

     Initial potential from superposition of free atoms

     starting charge       7.9990, renormalised to       8.0000
     Starting wfcs are   18 randomized atomic wfcs

     total cpu time spent up to now is        3.7 secs

     Self-consistent Calculation

     iteration #  1     ecut=    50.00 Ry     beta= 0.01
     Davidson diagonalization with overlap
     ethr =  1.00E-02,  avg # of iterations =  2.0

     total cpu time spent up to now is        6.5 secs

     total energy              =     -15.22308333 Ry
     estimated scf accuracy    <       0.13994357 Ry

     iteration #  2     ecut=    50.00 Ry     beta= 0.01
     Davidson diagonalization with overlap
     ethr =  1.75E-03,  avg # of iterations =  1.0

     total cpu time spent up to now is        8.5 secs

     total energy              =     -15.26434383 Ry
     estimated scf accuracy    <       0.14361440 Ry

     iteration #  3     ecut=    50.00 Ry     beta= 0.01
     Davidson diagonalization with overlap
     ethr =  1.75E-03,  avg # of iterations =  1.7

     total cpu time spent up to now is       10.7 secs

     total energy              =     -15.32676903 Ry
     estimated scf accuracy    <       0.25029103 Ry

     iteration #  4     ecut=    50.00 Ry     beta= 0.01
     Davidson diagonalization with overlap
     ethr =  1.75E-03,  avg # of iterations =  1.3

     total cpu time spent up to now is       12.9 secs

     total energy              =     -15.33433716 Ry
     estimated scf accuracy    <       0.01476955 Ry

     iteration #  5     ecut=    50.00 Ry     beta= 0.01
     Davidson diagonalization with overlap
     ethr =  1.85E-04,  avg # of iterations =  1.0

     total cpu time spent up to now is       14.8 secs

     total energy              =     -15.33504690 Ry
     estimated scf accuracy    <       0.00638882 Ry

     iteration #  6     ecut=    50.00 Ry     beta= 0.01
     Davidson diagonalization with overlap
     ethr =  7.99E-05,  avg # of iterations =  1.0

     total cpu time spent up to now is       16.8 secs

     total energy              =     -15.33368591 Ry
     estimated scf accuracy    <       0.00724125 Ry

     iteration #  7     ecut=    50.00 Ry     beta= 0.01
     Davidson diagonalization with overlap
     ethr =  7.99E-05,  avg # of iterations =  1.0

     total cpu time spent up to now is       18.9 secs

     total energy              =     -15.33400854 Ry
     estimated scf accuracy    <       0.00041988 Ry

     iteration #  8     ecut=    50.00 Ry     beta= 0.01
     Davidson diagonalization with overlap
     ethr =  5.25E-06,  avg # of iterations =  2.3

     total cpu time spent up to now is       21.7 secs

     total energy              =     -15.33414309 Ry
     estimated scf accuracy    <       0.00011413 Ry

     iteration #  9     ecut=    50.00 Ry     beta= 0.01
     Davidson diagonalization with overlap
     ethr =  1.43E-06,  avg # of iterations =  1.1

     total cpu time spent up to now is       23.8 secs

     total energy              =     -15.33413781 Ry
     estimated scf accuracy    <       0.00013292 Ry

     iteration # 10     ecut=    50.00 Ry     beta= 0.01
     Davidson diagonalization with overlap
     ethr =  1.43E-06,  avg # of iterations =  1.0

     total cpu time spent up to now is       25.8 secs

     total energy              =     -15.33418874 Ry
     estimated scf accuracy    <       0.00018826 Ry

     iteration # 11     ecut=    50.00 Ry     beta= 0.01
     Davidson diagonalization with overlap
     ethr =  1.43E-06,  avg # of iterations =  1.0

     total cpu time spent up to now is       27.4 secs

     total energy              =     -15.33421172 Ry
     estimated scf accuracy    <       0.00004198 Ry

     iteration # 12     ecut=    50.00 Ry     beta= 0.01
     Davidson diagonalization with overlap
     ethr =  5.25E-07,  avg # of iterations =  1.8

     total cpu time spent up to now is       29.8 secs

     total energy              =     -15.33421621 Ry
     estimated scf accuracy    <       0.00001294 Ry

     iteration # 13     ecut=    50.00 Ry     beta= 0.01
     Davidson diagonalization with overlap
     ethr =  1.62E-07,  avg # of iterations =  1.0

     total cpu time spent up to now is       31.9 secs

     total energy              =     -15.33421248 Ry
     estimated scf accuracy    <       0.00001475 Ry

     iteration # 14     ecut=    50.00 Ry     beta= 0.01
     Davidson diagonalization with overlap
     ethr =  1.62E-07,  avg # of iterations =  1.0

     total cpu time spent up to now is       33.8 secs

     total energy              =     -15.33421326 Ry
     estimated scf accuracy    <       0.00000558 Ry

     iteration # 15     ecut=    50.00 Ry     beta= 0.01
     Davidson diagonalization with overlap
     ethr =  6.98E-08,  avg # of iterations =  2.0

     total cpu time spent up to now is       36.3 secs

     End of self-consistent calculation

          k = 0.0000 0.0000 0.0000 (   893 PWs)   bands (ev):

    -3.6578  13.7246  13.7246  13.7246

          k =-0.1000 0.1000-0.1000 (   914 PWs)   bands (ev):

    -3.4420  12.1776  13.3952  13.3952

          k =-0.2000 0.2000-0.2000 (   914 PWs)   bands (ev):

    -2.7990   9.4857  12.8323  12.8323

          k =-0.3000 0.3000-0.3000 (   911 PWs)   bands (ev):

    -1.7471   6.7474  12.3922  12.3922

          k =-0.4000 0.4000-0.4000 (   911 PWs)   bands (ev):

    -0.3509   4.2833  12.1422  12.1422

          k = 0.5000-0.5000 0.5000 (   912 PWs)   bands (ev):

     0.7718   2.7971  12.0644  12.0644

          k = 0.0000 0.2000 0.0000 (   917 PWs)   bands (ev):

    -3.3699  12.6634  12.6634  13.0495

          k =-0.1000 0.3000-0.1000 (   907 PWs)   bands (ev):

    -2.8691  10.4847  11.9673  12.7841

          k =-0.2000 0.4000-0.2000 (   908 PWs)   bands (ev):

    -1.9517   7.7778  11.5206  12.1758

          k =-0.3000 0.5000-0.3000 (   908 PWs)   bands (ev):

    -0.6574   5.2161  11.3731  11.5337

          k = 0.6000-0.4000 0.6000 (   903 PWs)   bands (ev):

     0.7609   3.2020  11.0079  11.5184

          k = 0.5000-0.3000 0.5000 (   905 PWs)   bands (ev):

     0.3284   3.7557  10.6886  11.9168

          k = 0.4000-0.2000 0.4000 (   903 PWs)   bands (ev):

    -1.1264   6.0408  10.6421  12.4963

          k = 0.3000-0.1000 0.3000 (   909 PWs)   bands (ev):

    -2.3030   8.6852  10.9075  13.1425

          k = 0.2000 0.0000 0.2000 (   911 PWs)   bands (ev):

    -3.0836  11.2082  11.6377  13.6037

          k = 0.0000 0.4000 0.0000 (   909 PWs)   bands (ev):

    -2.5114  11.1627  11.1627  11.3025

          k =-0.1000 0.5000-0.1000 (   903 PWs)   bands (ev):

    -1.7341   8.9365  10.6284  10.8324

          k =-0.2000 0.6000-0.2000 (   893 PWs)   bands (ev):

    -0.5633   6.4443   9.8914  10.4210

          k = 0.7000-0.3000 0.7000 (   903 PWs)   bands (ev):

     0.8848   4.2235   9.0396  10.5495

          k = 0.6000-0.2000 0.6000 (   918 PWs)   bands (ev):

     1.3033   3.7008   8.4571  10.9973

          k = 0.5000-0.1000 0.5000 (   900 PWs)   bands (ev):

    -0.1101   5.6916   8.2179  11.7133

          k = 0.4000 0.0000 0.4000 (   909 PWs)   bands (ev):

    -1.3935   7.9531   8.5791  12.5613

          k = 0.0000 0.6000 0.0000 (   898 PWs)   bands (ev):

    -1.0984   8.8160   9.9915   9.9915

          k =-0.1000 0.7000-0.1000 (   901 PWs)   bands (ev):

    -0.0621   7.1905   8.8197   9.6842

          k = 0.8000-0.2000 0.8000 (   904 PWs)   bands (ev):

     1.3122   5.3526   7.3772   9.7252

          k = 0.7000-0.1000 0.7000 (   905 PWs)   bands (ev):

     2.3881   4.1257   6.4353  10.1093

          k = 0.6000-0.0000 0.6000 (   899 PWs)   bands (ev):

     1.2382   5.3888   6.2419  10.8048

          k = 0.0000 0.8000 0.0000 (   902 PWs)   bands (ev):

     0.8372   5.9805   9.2681   9.2681

          k = 0.9000-0.1000 0.9000 (   917 PWs)   bands (ev):

     2.0977   4.6376   8.0167   9.2021

          k = 0.8000 0.0000 0.8000 (   922 PWs)   bands (ev):

     3.2970   3.7820   6.3341   9.4889

          k = 0.0000-1.0000 0.0000 (   934 PWs)   bands (ev):

     3.2364   3.2364   9.0243   9.0243

          k =-0.2000 0.4000 0.0000 (   913 PWs)   bands (ev):

    -2.2301   9.5655  10.1237  12.4517

          k =-0.3000 0.5000-0.1000 (   907 PWs)   bands (ev):

    -1.1847   7.1704   9.5300  11.6984

          k = 0.6000-0.4000 0.8000 (   902 PWs)   bands (ev):

     0.2033   4.7682   9.4294  10.9489

          k = 0.5000-0.3000 0.7000 (   910 PWs)   bands (ev):

     1.3242   3.2967   9.4651  10.6131

          k =-0.2000 0.6000 0.0000 (   907 PWs)   bands (ev):

    -0.8275   8.0136   8.9346  10.2345

          k = 0.7000-0.3000 0.9000 (   905 PWs)   bands (ev):

     0.4506   6.0028   8.2029   9.4659

          k = 0.6000-0.2000 0.8000 (   913 PWs)   bands (ev):

     1.8552   4.1215   7.6358   9.3800

          k = 0.5000-0.1000 0.7000 (   911 PWs)   bands (ev):

     1.4044   4.6949   7.2156   9.8876

          k = 0.4000 0.0000 0.6000 (   900 PWs)   bands (ev):

    -0.0287   6.6136   7.3837  10.7544

          k = 0.8000-0.2000 1.0000 (   905 PWs)   bands (ev):

     1.0861   5.9611   8.2211   8.5820

          k = 0.7000-0.1000 0.9000 (   907 PWs)   bands (ev):

     2.5052   4.6798   6.6821   8.5104

          k = 0.6000 0.0000 0.8000 (   909 PWs)   bands (ev):

     2.7500   4.5113   5.8496   9.0161

          k =-0.2000-1.0000 0.0000 (   916 PWs)   bands (ev):

     3.4280   3.4280   8.0548   8.0548

          k = 0.6000-0.2000 1.0000 (   902 PWs)   bands (ev):

     1.7941   5.4519   6.7297   8.2830

          k = 0.5000-0.1000 0.9000 (   904 PWs)   bands (ev):

     2.9116   4.4020   6.4786   7.7891

          k =-0.4000-1.0000 0.0000 (   904 PWs)   bands (ev):

     3.8437   3.8437   6.8391   6.8391

     highest occupied level (ev):    13.7246

!    total energy              =     -15.33421398 Ry
     estimated scf accuracy    <       0.00000050 Ry

     The total energy is the sum of the following terms:
     one-electron contribution =       9.89149345 Ry
     hartree contribution      =       0.67221753 Ry
     xc contribution           =      -5.55070977 Ry
     ewald contribution        =     -20.34721519 Ry

     convergence has been achieved in  15 iterations
     Writing meta-gga kinetic term

     Writing all to output data dir ./input_pw/Si/1/pwscf.save/
     Writing meta-gga kinetic term
 
     init_run     :      1.72s CPU      3.67s WALL (       1 calls)
     electrons    :     16.05s CPU     32.55s WALL (       1 calls)

     Called by init_run:
     wfcinit      :      1.63s CPU      3.42s WALL (       1 calls)
     potinit      :      0.02s CPU      0.07s WALL (       1 calls)
     hinit0       :      0.06s CPU      0.15s WALL (       1 calls)

     Called by electrons:
     c_bands      :     12.53s CPU     25.37s WALL (      15 calls)
     sum_band     :      3.07s CPU      6.25s WALL (      15 calls)
     v_of_rho     :      0.32s CPU      0.69s WALL (      16 calls)
     mix_rho      :      0.13s CPU      0.29s WALL (      15 calls)

     Called by c_bands:
     init_us_2    :      0.17s CPU      0.33s WALL (    1457 calls)
     init_us_2:cp :      0.16s CPU      0.33s WALL (    1457 calls)
     cegterg      :     12.32s CPU     25.00s WALL (     705 calls)

     Called by *egterg:
     cdiaghg      :      0.10s CPU      0.18s WALL (    1661 calls)
     h_psi        :     13.58s CPU     27.67s WALL (    1708 calls)
     g_psi        :      0.01s CPU      0.03s WALL (     956 calls)

     Called by h_psi:
     h_psi:calbec :      0.07s CPU      0.16s WALL (    1708 calls)
     vloc_psi     :      3.35s CPU      6.67s WALL (    1708 calls)
     add_vuspsi   :      0.05s CPU      0.10s WALL (    1708 calls)
     h_psi_meta   :     10.09s CPU     20.66s WALL (    1708 calls)

     General routines
     calbec       :      0.06s CPU      0.14s WALL (    1708 calls)
     fft          :      0.04s CPU      0.09s WALL (     189 calls)
     ffts         :      0.05s CPU      0.11s WALL (     248 calls)
     fftw         :     13.56s CPU     27.73s WALL (   68400 calls)
     interpolate  :      0.00s CPU      0.00s WALL (      16 calls)
 
     Parallel routines
 
     PWSCF        :     17.81s CPU     36.34s WALL

 
   This run was terminated on:  12:50:17  21Feb2023            

=------------------------------------------------------------------------------=
   JOB DONE.
=------------------------------------------------------------------------------=
