
     Program PWSCF v.7.0 starts on 29Mar2023 at 12:56: 4 

     This program is part of the open-source Quantum ESPRESSO suite
     for quantum simulation of materials; please cite
         "P. Giannozzi et al., J. Phys.:Condens. Matter 21 395502 (2009);
         "P. Giannozzi et al., J. Phys.:Condens. Matter 29 465901 (2017);
         "P. Giannozzi et al., J. Chem. Phys. 152 154105 (2020);
          URL http://www.quantum-espresso.org", 
     in publications or presentations arising from this work. More details at
     http://www.quantum-espresso.org/quote

     Parallel version (MPI), running on     1 processors

     MPI processes distributed on     1 nodes
     23253 MiB available memory on the printing compute node when the environment starts
 
     Waiting for input...
     Reading input from standard input
Warning: card &CELL ignored
Warning: card / ignored

     Current dimensions of program PWSCF are:
     Max number of different atomic species (ntypx) = 10
     Max number of k-points (npk) =  40000
     Max angular momentum in pseudopotentials (lmaxx) =  4
     file Si.SCAN.UPF2: wavefunction(s)  0D renormalized

     WARNING: the MGGA functional with ID    5 has been 
     read together with other dft terms, but it should 
     stand alone in order to work properly. The other 
     terms will be ignored.

     WARNING: the MGGA functional with ID    5 has been 
     read together with other dft terms, but it should 
     stand alone in order to work properly. The other 
     terms will be ignored.

     Subspace diagonalization in iterative solution of the eigenvalue problem:
     a serial algorithm will be used

 
     G-vector sticks info
     --------------------
     sticks:   dense  smooth     PW     G-vecs:    dense   smooth      PW
     Sum         649     649    199                11017    11017    1917
 
     Using Slab Decomposition
 


     bravais-lattice index     =            2
     lattice parameter (alat)  =       9.7510  a.u.
     unit-cell volume          =     231.7852 (a.u.)^3
     number of atoms/cell      =            2
     number of atomic types    =            2
     number of electrons       =         8.00
     number of Kohn-Sham states=            4
     kinetic-energy cutoff     =      50.0000  Ry
     charge density cutoff     =     200.0000  Ry
     scf convergence threshold =      1.0E-06
     mixing beta               =       0.0100
     number of iterations used =            8  local-TF  mixing
     Exchange-correlation= SLA  PW   SCAN SCAN
                           (   0   0   0   0   0 263 267)

     celldm(1)=   9.750987  celldm(2)=   0.000000  celldm(3)=   0.000000
     celldm(4)=   0.000000  celldm(5)=   0.000000  celldm(6)=   0.000000

     crystal axes: (cart. coord. in units of alat)
               a(1) = (  -0.500000   0.000000   0.500000 )  
               a(2) = (   0.000000   0.500000   0.500000 )  
               a(3) = (  -0.500000   0.500000   0.000000 )  

     reciprocal axes: (cart. coord. in units 2 pi/alat)
               b(1) = ( -1.000000 -1.000000  1.000000 )  
               b(2) = (  1.000000  1.000000  1.000000 )  
               b(3) = ( -1.000000  1.000000 -1.000000 )  


     PseudoPot. # 1 for Si read from file:
     ~/Documents/TA/PWDFT.jl/pseudopotentials/scan_upf/Si.SCAN.UPF2
     MD5 check sum: Not computed, couldn't open file
     Pseudo is Norm-conserving, Zval =  4.0
     Generated by new atomic code, or converted to UPF format
     Using radial grid of 1475 points,  2 beta functions with: 
                l(1) =   0
                l(2) =   1

     PseudoPot. # 2 for C  read from file:
     ~/Documents/TA/PWDFT.jl/pseudopotentials/scan_upf/C.SCAN.UPF2
     MD5 check sum: Not computed, couldn't open file
     Pseudo is Norm-conserving, Zval =  4.0
     Generated by new atomic code, or converted to UPF format
     Using radial grid of 1389 points,  1 beta functions with: 
                l(1) =   0

     atomic species   valence    mass     pseudopotential
        Si             4.00    28.08550     Si( 1.00)
        C              4.00    12.01100     C ( 1.00)

     24 Sym. Ops. (no inversion) found



   Cartesian axes

     site n.     atom                  positions (alat units)
         1           Si  tau(   1) = (   0.0000000   0.0000000   0.0000000  )
         2           C   tau(   2) = (   0.2500000   0.2500000   0.2500000  )

     number of k points=    47
                       cart. coord. in units 2pi/alat
        k(    1) = (   0.0000000   0.0000000   0.0000000), wk =   0.0020000
        k(    2) = (  -0.1000000   0.1000000  -0.1000000), wk =   0.0160000
        k(    3) = (  -0.2000000   0.2000000  -0.2000000), wk =   0.0160000
        k(    4) = (  -0.3000000   0.3000000  -0.3000000), wk =   0.0160000
        k(    5) = (  -0.4000000   0.4000000  -0.4000000), wk =   0.0160000
        k(    6) = (   0.5000000  -0.5000000   0.5000000), wk =   0.0080000
        k(    7) = (   0.0000000   0.2000000   0.0000000), wk =   0.0120000
        k(    8) = (  -0.1000000   0.3000000  -0.1000000), wk =   0.0480000
        k(    9) = (  -0.2000000   0.4000000  -0.2000000), wk =   0.0480000
        k(   10) = (  -0.3000000   0.5000000  -0.3000000), wk =   0.0480000
        k(   11) = (   0.6000000  -0.4000000   0.6000000), wk =   0.0480000
        k(   12) = (   0.5000000  -0.3000000   0.5000000), wk =   0.0480000
        k(   13) = (   0.4000000  -0.2000000   0.4000000), wk =   0.0480000
        k(   14) = (   0.3000000  -0.1000000   0.3000000), wk =   0.0480000
        k(   15) = (   0.2000000   0.0000000   0.2000000), wk =   0.0240000
        k(   16) = (   0.0000000   0.4000000   0.0000000), wk =   0.0120000
        k(   17) = (  -0.1000000   0.5000000  -0.1000000), wk =   0.0480000
        k(   18) = (  -0.2000000   0.6000000  -0.2000000), wk =   0.0480000
        k(   19) = (   0.7000000  -0.3000000   0.7000000), wk =   0.0480000
        k(   20) = (   0.6000000  -0.2000000   0.6000000), wk =   0.0480000
        k(   21) = (   0.5000000  -0.1000000   0.5000000), wk =   0.0480000
        k(   22) = (   0.4000000   0.0000000   0.4000000), wk =   0.0240000
        k(   23) = (   0.0000000   0.6000000   0.0000000), wk =   0.0120000
        k(   24) = (  -0.1000000   0.7000000  -0.1000000), wk =   0.0480000
        k(   25) = (   0.8000000  -0.2000000   0.8000000), wk =   0.0480000
        k(   26) = (   0.7000000  -0.1000000   0.7000000), wk =   0.0480000
        k(   27) = (   0.6000000  -0.0000000   0.6000000), wk =   0.0240000
        k(   28) = (   0.0000000   0.8000000   0.0000000), wk =   0.0120000
        k(   29) = (   0.9000000  -0.1000000   0.9000000), wk =   0.0480000
        k(   30) = (   0.8000000   0.0000000   0.8000000), wk =   0.0240000
        k(   31) = (   0.0000000  -1.0000000   0.0000000), wk =   0.0060000
        k(   32) = (  -0.2000000   0.4000000   0.0000000), wk =   0.0480000
        k(   33) = (  -0.3000000   0.5000000  -0.1000000), wk =   0.0960000
        k(   34) = (   0.6000000  -0.4000000   0.8000000), wk =   0.0960000
        k(   35) = (   0.5000000  -0.3000000   0.7000000), wk =   0.0480000
        k(   36) = (  -0.2000000   0.6000000   0.0000000), wk =   0.0480000
        k(   37) = (   0.7000000  -0.3000000   0.9000000), wk =   0.0960000
        k(   38) = (   0.6000000  -0.2000000   0.8000000), wk =   0.0960000
        k(   39) = (   0.5000000  -0.1000000   0.7000000), wk =   0.0960000
        k(   40) = (   0.4000000   0.0000000   0.6000000), wk =   0.0480000
        k(   41) = (   0.8000000  -0.2000000   1.0000000), wk =   0.0480000
        k(   42) = (   0.7000000  -0.1000000   0.9000000), wk =   0.0960000
        k(   43) = (   0.6000000   0.0000000   0.8000000), wk =   0.0480000
        k(   44) = (  -0.2000000  -1.0000000   0.0000000), wk =   0.0240000
        k(   45) = (   0.6000000  -0.2000000   1.0000000), wk =   0.0480000
        k(   46) = (   0.5000000  -0.1000000   0.9000000), wk =   0.0480000
        k(   47) = (  -0.4000000  -1.0000000   0.0000000), wk =   0.0240000

     Dense  grid:    11017 G-vectors     FFT dimensions: (  32,  32,  32)

     Estimated max dynamical RAM per process >      20.92 MB

     WARNING: libxc functional with ID  263 depends
      on external parameters: check the user_guide of
      QE if you need to modify them or to check their
      default values.

     Initial potential from superposition of free atoms

     starting charge       7.9995, renormalised to       8.0000
     Starting wfcs are   13 randomized atomic wfcs

     total cpu time spent up to now is        2.8 secs

     Self-consistent Calculation

     iteration #  1     ecut=    50.00 Ry     beta= 0.01
     Davidson diagonalization with overlap
     ethr =  1.00E-02,  avg # of iterations =  1.6

     total cpu time spent up to now is        5.0 secs

     total energy              =     -19.09719268 Ry
     estimated scf accuracy    <       1.22565545 Ry

     iteration #  2     ecut=    50.00 Ry     beta= 0.01
     Davidson diagonalization with overlap
     ethr =  1.00E-02,  avg # of iterations =  1.0

     total cpu time spent up to now is        7.0 secs

     total energy              =     -19.06005342 Ry
     estimated scf accuracy    <       1.20551329 Ry

     iteration #  3     ecut=    50.00 Ry     beta= 0.01
     Davidson diagonalization with overlap
     ethr =  1.00E-02,  avg # of iterations =  1.0

     total cpu time spent up to now is        8.9 secs

     total energy              =     -19.07539676 Ry
     estimated scf accuracy    <       0.10267776 Ry

     iteration #  4     ecut=    50.00 Ry     beta= 0.01
     Davidson diagonalization with overlap
     ethr =  1.28E-03,  avg # of iterations =  2.0

     total cpu time spent up to now is       11.4 secs

     total energy              =     -19.09038200 Ry
     estimated scf accuracy    <       0.02901589 Ry

     iteration #  5     ecut=    50.00 Ry     beta= 0.01
     Davidson diagonalization with overlap
     ethr =  3.63E-04,  avg # of iterations =  2.0

     total cpu time spent up to now is       14.0 secs

     total energy              =     -19.09562129 Ry
     estimated scf accuracy    <       0.11377174 Ry

     iteration #  6     ecut=    50.00 Ry     beta= 0.01
     Davidson diagonalization with overlap
     ethr =  3.63E-04,  avg # of iterations =  1.0

     total cpu time spent up to now is       16.0 secs

     total energy              =     -19.09956897 Ry
     estimated scf accuracy    <       0.13805915 Ry

     iteration #  7     ecut=    50.00 Ry     beta= 0.01
     Davidson diagonalization with overlap
     ethr =  3.63E-04,  avg # of iterations =  1.0

     total cpu time spent up to now is       18.0 secs

     total energy              =     -19.09954689 Ry
     estimated scf accuracy    <       0.05728361 Ry

     iteration #  8     ecut=    50.00 Ry     beta= 0.01
     Davidson diagonalization with overlap
     ethr =  3.63E-04,  avg # of iterations =  1.0

     total cpu time spent up to now is       20.0 secs

     total energy              =     -19.09955016 Ry
     estimated scf accuracy    <       0.02032513 Ry

     iteration #  9     ecut=    50.00 Ry     beta= 0.01
     Davidson diagonalization with overlap
     ethr =  2.54E-04,  avg # of iterations =  1.0

     total cpu time spent up to now is       22.0 secs

     total energy              =     -19.09764185 Ry
     estimated scf accuracy    <       0.01821313 Ry

     iteration # 10     ecut=    50.00 Ry     beta= 0.01
     Davidson diagonalization with overlap
     ethr =  2.28E-04,  avg # of iterations =  1.0

     total cpu time spent up to now is       24.0 secs

     total energy              =     -19.09570178 Ry
     estimated scf accuracy    <       0.00557855 Ry

     iteration # 11     ecut=    50.00 Ry     beta= 0.01
     Davidson diagonalization with overlap
     ethr =  6.97E-05,  avg # of iterations =  3.0

     total cpu time spent up to now is       27.2 secs

     total energy              =     -19.09931225 Ry
     estimated scf accuracy    <       0.01417004 Ry

     iteration # 12     ecut=    50.00 Ry     beta= 0.01
     Davidson diagonalization with overlap
     ethr =  6.97E-05,  avg # of iterations =  1.0

     total cpu time spent up to now is       29.2 secs

     total energy              =     -19.09900856 Ry
     estimated scf accuracy    <       0.01347563 Ry

     iteration # 13     ecut=    50.00 Ry     beta= 0.01
     Davidson diagonalization with overlap
     ethr =  6.97E-05,  avg # of iterations =  1.0

     total cpu time spent up to now is       31.2 secs

     total energy              =     -19.09786691 Ry
     estimated scf accuracy    <       0.01224681 Ry

     iteration # 14     ecut=    50.00 Ry     beta= 0.01
     Davidson diagonalization with overlap
     ethr =  6.97E-05,  avg # of iterations =  1.0

     total cpu time spent up to now is       33.1 secs

     total energy              =     -19.09734480 Ry
     estimated scf accuracy    <       0.00539980 Ry

     iteration # 15     ecut=    50.00 Ry     beta= 0.01
     Davidson diagonalization with overlap
     ethr =  6.75E-05,  avg # of iterations =  1.0

     total cpu time spent up to now is       34.6 secs

     total energy              =     -19.09756432 Ry
     estimated scf accuracy    <       0.00072390 Ry

     iteration # 16     ecut=    50.00 Ry     beta= 0.01
     Davidson diagonalization with overlap
     ethr =  9.05E-06,  avg # of iterations =  1.0

     total cpu time spent up to now is       36.1 secs

     total energy              =     -19.09754625 Ry
     estimated scf accuracy    <       0.00061869 Ry

     iteration # 17     ecut=    50.00 Ry     beta= 0.01
     Davidson diagonalization with overlap
     ethr =  7.73E-06,  avg # of iterations =  1.0

     total cpu time spent up to now is       37.8 secs

     total energy              =     -19.09756765 Ry
     estimated scf accuracy    <       0.00024192 Ry

     iteration # 18     ecut=    50.00 Ry     beta= 0.01
     Davidson diagonalization with overlap
     ethr =  3.02E-06,  avg # of iterations =  1.0

     total cpu time spent up to now is       39.5 secs

     total energy              =     -19.09755967 Ry
     estimated scf accuracy    <       0.00025904 Ry

     iteration # 19     ecut=    50.00 Ry     beta= 0.01
     Davidson diagonalization with overlap
     ethr =  3.02E-06,  avg # of iterations =  1.0

     total cpu time spent up to now is       41.0 secs

     total energy              =     -19.09753535 Ry
     estimated scf accuracy    <       0.00018471 Ry

     iteration # 20     ecut=    50.00 Ry     beta= 0.01
     Davidson diagonalization with overlap
     ethr =  2.31E-06,  avg # of iterations =  1.0

     total cpu time spent up to now is       42.2 secs

     total energy              =     -19.09753756 Ry
     estimated scf accuracy    <       0.00004264 Ry

     iteration # 21     ecut=    50.00 Ry     beta= 0.01
     Davidson diagonalization with overlap
     ethr =  5.33E-07,  avg # of iterations =  1.1

     total cpu time spent up to now is       43.7 secs

     total energy              =     -19.09753710 Ry
     estimated scf accuracy    <       0.00001554 Ry

     iteration # 22     ecut=    50.00 Ry     beta= 0.01
     Davidson diagonalization with overlap
     ethr =  1.94E-07,  avg # of iterations =  2.6

     total cpu time spent up to now is       45.9 secs

     total energy              =     -19.09754252 Ry
     estimated scf accuracy    <       0.00000496 Ry

     iteration # 23     ecut=    50.00 Ry     beta= 0.01
     Davidson diagonalization with overlap
     ethr =  6.20E-08,  avg # of iterations =  1.3

     total cpu time spent up to now is       47.6 secs

     total energy              =     -19.09754128 Ry
     estimated scf accuracy    <       0.00000916 Ry

     iteration # 24     ecut=    50.00 Ry     beta= 0.01
     Davidson diagonalization with overlap
     ethr =  6.20E-08,  avg # of iterations =  1.0

     total cpu time spent up to now is       48.8 secs

     total energy              =     -19.09754108 Ry
     estimated scf accuracy    <       0.00000291 Ry

     iteration # 25     ecut=    50.00 Ry     beta= 0.01
     Davidson diagonalization with overlap
     ethr =  3.63E-08,  avg # of iterations =  1.9

     total cpu time spent up to now is       49.9 secs

     End of self-consistent calculation

          k = 0.0000 0.0000 0.0000 (  1411 PWs)   bands (ev):

    -8.6040   4.0408   4.0408   4.0408

          k =-0.1000 0.1000-0.1000 (  1390 PWs)   bands (ev):

    -8.4746   2.7957   3.9296   3.9296

          k =-0.2000 0.2000-0.2000 (  1387 PWs)   bands (ev):

    -8.0981   1.0552   3.6677   3.6677

          k =-0.3000 0.3000-0.3000 (  1387 PWs)   bands (ev):

    -7.5211  -0.6033   3.3980   3.3980

          k =-0.4000 0.4000-0.4000 (  1389 PWs)   bands (ev):

    -6.8822  -1.9275   3.2106   3.2106

          k = 0.5000-0.5000 0.5000 (  1380 PWs)   bands (ev):

    -6.5535  -2.4891   3.1442   3.1442

          k = 0.0000 0.2000 0.0000 (  1399 PWs)   bands (ev):

    -8.4313   2.7600   3.6982   3.6982

          k =-0.1000 0.3000-0.1000 (  1382 PWs)   bands (ev):

    -8.1360   1.4577   3.3736   3.4487

          k =-0.2000 0.4000-0.2000 (  1381 PWs)   bands (ev):

    -7.6210  -0.1150   3.0941   3.0988

          k =-0.3000 0.5000-0.3000 (  1388 PWs)   bands (ev):

    -6.9830  -1.5194   2.7308   2.9532

          k = 0.6000-0.4000 0.6000 (  1391 PWs)   bands (ev):

    -6.4999  -2.3669   2.4723   2.9626

          k = 0.5000-0.3000 0.5000 (  1385 PWs)   bands (ev):

    -6.6158  -2.1754   2.3764   3.1202

          k = 0.4000-0.2000 0.4000 (  1382 PWs)   bands (ev):

    -7.2005  -1.0856   2.4703   3.3899

          k = 0.3000-0.1000 0.3000 (  1373 PWs)   bands (ev):

    -7.8152   0.3912   2.7750   3.6985

          k = 0.2000 0.0000 0.2000 (  1387 PWs)   bands (ev):

    -8.2623   1.8480   3.3169   3.9239

          k = 0.0000 0.4000 0.0000 (  1375 PWs)   bands (ev):

    -7.9250   1.1014   2.9931   2.9931

          k =-0.1000 0.5000-0.1000 (  1375 PWs)   bands (ev):

    -7.4866   0.0285   2.5515   2.6829

          k =-0.2000 0.6000-0.2000 (  1378 PWs)   bands (ev):

    -6.8906  -1.1827   1.9697   2.5266

          k = 0.7000-0.3000 0.7000 (  1391 PWs)   bands (ev):

    -6.3364  -2.1087   1.4719   2.5508

          k = 0.6000-0.2000 0.6000 (  1382 PWs)   bands (ev):

    -6.2415  -2.2461   1.1999   2.7514

          k = 0.5000-0.1000 0.5000 (  1381 PWs)   bands (ev):

    -6.7083  -1.5090   1.2457   3.0816

          k = 0.4000 0.0000 0.4000 (  1384 PWs)   bands (ev):

    -7.3203  -0.4739   1.7515   3.4500

          k = 0.0000 0.6000 0.0000 (  1371 PWs)   bands (ev):

    -7.1310  -0.5122   2.3286   2.3286

          k =-0.1000 0.7000-0.1000 (  1384 PWs)   bands (ev):

    -6.6087  -1.3556   1.8050   2.1303

          k = 0.8000-0.2000 0.8000 (  1378 PWs)   bands (ev):

    -6.0721  -2.0827   1.0549   2.1286

          k = 0.7000-0.1000 0.7000 (  1381 PWs)   bands (ev):

    -5.8566  -2.3233   0.5235   2.3214

          k = 0.6000-0.0000 0.6000 (  1380 PWs)   bands (ev):

    -6.1667  -1.9764   0.5185   2.6693

          k = 0.0000 0.8000 0.0000 (  1367 PWs)   bands (ev):

    -6.1880  -1.9454   1.8840   1.8840

          k = 0.9000-0.1000 0.9000 (  1378 PWs)   bands (ev):

    -5.7755  -2.4432   1.4015   1.8334

          k = 0.8000 0.0000 0.8000 (  1374 PWs)   bands (ev):

    -5.6347  -2.5241   0.7100   1.9895

          k = 0.0000-1.0000 0.0000 (  1362 PWs)   bands (ev):

    -5.6282  -2.6699   1.7298   1.7298

          k =-0.2000 0.4000 0.0000 (  1379 PWs)   bands (ev):

    -7.7691   0.5195   2.5604   3.3496

          k =-0.3000 0.5000-0.1000 (  1383 PWs)   bands (ev):

    -7.2092  -0.7116   1.9750   3.0682

          k = 0.6000-0.4000 0.8000 (  1391 PWs)   bands (ev):

    -6.5943  -1.8408   1.6835   2.7877

          k = 0.5000-0.3000 0.7000 (  1390 PWs)   bands (ev):

    -6.2812  -2.3415   1.5989   2.6759

          k =-0.2000 0.6000 0.0000 (  1387 PWs)   bands (ev):

    -7.0029  -0.7973   1.8791   2.4685

          k = 0.7000-0.3000 0.9000 (  1381 PWs)   bands (ev):

    -6.4190  -1.6798   1.2825   2.2002

          k = 0.6000-0.2000 0.8000 (  1393 PWs)   bands (ev):

    -6.0014  -2.2481   0.8641   2.1508

          k = 0.5000-0.1000 0.7000 (  1385 PWs)   bands (ev):

    -6.1207  -2.0837   0.7447   2.3583

          k = 0.4000 0.0000 0.6000 (  1378 PWs)   bands (ev):

    -6.6480  -1.4018   1.0850   2.7275

          k = 0.8000-0.2000 1.0000 (  1378 PWs)   bands (ev):

    -6.1133  -1.9909   1.4693   1.7639

          k = 0.7000-0.1000 0.9000 (  1385 PWs)   bands (ev):

    -5.7279  -2.3889   0.8433   1.6837

          k = 0.6000 0.0000 0.8000 (  1390 PWs)   bands (ev):

    -5.7413  -2.3445   0.4510   1.9304

          k =-0.2000-1.0000 0.0000 (  1380 PWs)   bands (ev):

    -5.6071  -2.5974   1.4108   1.4266

          k = 0.6000-0.2000 1.0000 (  1382 PWs)   bands (ev):

    -5.9297  -2.1376   0.7871   1.7163

          k = 0.5000-0.1000 0.9000 (  1396 PWs)   bands (ev):

    -5.6974  -2.3567   0.6314   1.4907

          k =-0.4000-1.0000 0.0000 (  1392 PWs)   bands (ev):

    -5.5720  -2.4648   0.9474   1.0324

     highest occupied level (ev):     4.0408

!    total energy              =     -19.09754111 Ry
     estimated scf accuracy    <       0.00000026 Ry

     The total energy is the sum of the following terms:
     one-electron contribution =       1.26594178 Ry
     hartree contribution      =       2.76795999 Ry
     xc contribution           =      -5.45348462 Ry
     ewald contribution        =     -17.67795826 Ry

     convergence has been achieved in  25 iterations
     Writing meta-gga kinetic term

     Writing all to output data dir ./input_pw/SiC/13/pwscf.save/
     Writing meta-gga kinetic term
 
     init_run     :      1.35s CPU      2.78s WALL (       1 calls)
     electrons    :     26.62s CPU     47.11s WALL (       1 calls)

     Called by init_run:
     wfcinit      :      1.22s CPU      2.54s WALL (       1 calls)
     potinit      :      0.02s CPU      0.12s WALL (       1 calls)
     hinit0       :      0.09s CPU      0.11s WALL (       1 calls)

     Called by electrons:
     c_bands      :     20.72s CPU     36.50s WALL (      25 calls)
     sum_band     :      5.09s CPU      9.20s WALL (      25 calls)
     v_of_rho     :      0.49s CPU      0.91s WALL (      26 calls)
     mix_rho      :      0.32s CPU      0.56s WALL (      25 calls)

     Called by c_bands:
     init_us_2    :      0.41s CPU      0.80s WALL (    2397 calls)
     init_us_2:cp :      0.40s CPU      0.77s WALL (    2397 calls)
     cegterg      :     20.35s CPU     35.82s WALL (    1175 calls)

     Called by *egterg:
     cdiaghg      :      0.13s CPU      0.21s WALL (    2702 calls)
     h_psi        :     20.95s CPU     37.38s WALL (    2749 calls)
     g_psi        :      0.02s CPU      0.03s WALL (    1527 calls)

     Called by h_psi:
     h_psi:calbec :      0.09s CPU      0.17s WALL (    2749 calls)
     vloc_psi     :      5.12s CPU      9.54s WALL (    2749 calls)
     add_vuspsi   :      0.10s CPU      0.20s WALL (    2749 calls)
     h_psi_meta   :     15.59s CPU     27.40s WALL (    2749 calls)

     General routines
     calbec       :      0.08s CPU      0.15s WALL (    2749 calls)
     fft          :      0.06s CPU      0.10s WALL (     309 calls)
     ffts         :      0.11s CPU      0.24s WALL (     526 calls)
     fftw         :     21.46s CPU     38.29s WALL (  106576 calls)
     interpolate  :      0.00s CPU      0.00s WALL (      26 calls)
 
     Parallel routines
 
     PWSCF        :     28.01s CPU     49.96s WALL

 
   This run was terminated on:  12:56:54  29Mar2023            

=------------------------------------------------------------------------------=
   JOB DONE.
=------------------------------------------------------------------------------=
