
     Program PWSCF v.7.0 starts on  7Jul2023 at 14:30:57 

     This program is part of the open-source Quantum ESPRESSO suite
     for quantum simulation of materials; please cite
         "P. Giannozzi et al., J. Phys.:Condens. Matter 21 395502 (2009);
         "P. Giannozzi et al., J. Phys.:Condens. Matter 29 465901 (2017);
         "P. Giannozzi et al., J. Chem. Phys. 152 154105 (2020);
          URL http://www.quantum-espresso.org", 
     in publications or presentations arising from this work. More details at
     http://www.quantum-espresso.org/quote

     Parallel version (MPI), running on     1 processors

     MPI processes distributed on     1 nodes
     27053 MiB available memory on the printing compute node when the environment starts
 
     Waiting for input...
     Reading input from standard input
Warning: card &CELL ignored
Warning: card / ignored

     Current dimensions of program PWSCF are:
     Max number of different atomic species (ntypx) = 10
     Max number of k-points (npk) =  40000
     Max angular momentum in pseudopotentials (lmaxx) =  4
     file Si.SCAN.UPF2: wavefunction(s)  0D renormalized

     WARNING: the MGGA functional with ID    5 has been 
     read together with other dft terms, but it should 
     stand alone in order to work properly. The other 
     terms will be ignored.

     WARNING: the MGGA functional with ID    5 has been 
     read together with other dft terms, but it should 
     stand alone in order to work properly. The other 
     terms will be ignored.

     Subspace diagonalization in iterative solution of the eigenvalue problem:
     a serial algorithm will be used

 
     G-vector sticks info
     --------------------
     sticks:   dense  smooth     PW     G-vecs:    dense   smooth      PW
     Sum         649     649    199                11017    11017    1917
 
     Using Slab Decomposition
 


     bravais-lattice index     =            2
     lattice parameter (alat)  =       9.7510  a.u.
     unit-cell volume          =     231.7852 (a.u.)^3
     number of atoms/cell      =            2
     number of atomic types    =            2
     number of electrons       =         8.00
     number of Kohn-Sham states=            4
     kinetic-energy cutoff     =      50.0000  Ry
     charge density cutoff     =     200.0000  Ry
     scf convergence threshold =      2.0E-05
     mixing beta               =       0.2000
     number of iterations used =            8  local-TF  mixing
     Exchange-correlation= SLA  PW   SCAN SCAN
                           (   0   0   0   0   0 263 267)

     celldm(1)=   9.750987  celldm(2)=   0.000000  celldm(3)=   0.000000
     celldm(4)=   0.000000  celldm(5)=   0.000000  celldm(6)=   0.000000

     crystal axes: (cart. coord. in units of alat)
               a(1) = (  -0.500000   0.000000   0.500000 )  
               a(2) = (   0.000000   0.500000   0.500000 )  
               a(3) = (  -0.500000   0.500000   0.000000 )  

     reciprocal axes: (cart. coord. in units 2 pi/alat)
               b(1) = ( -1.000000 -1.000000  1.000000 )  
               b(2) = (  1.000000  1.000000  1.000000 )  
               b(3) = ( -1.000000  1.000000 -1.000000 )  


     PseudoPot. # 1 for Si read from file:
     ~/Documents/TA/PWDFT.jl/pseudopotentials/scan_upf/Si.SCAN.UPF2
     MD5 check sum: Not computed, couldn't open file
     Pseudo is Norm-conserving, Zval =  4.0
     Generated by new atomic code, or converted to UPF format
     Using radial grid of 1475 points,  2 beta functions with: 
                l(1) =   0
                l(2) =   1

     PseudoPot. # 2 for C  read from file:
     ~/Documents/TA/PWDFT.jl/pseudopotentials/scan_upf/C.SCAN.UPF2
     MD5 check sum: Not computed, couldn't open file
     Pseudo is Norm-conserving, Zval =  4.0
     Generated by new atomic code, or converted to UPF format
     Using radial grid of 1389 points,  1 beta functions with: 
                l(1) =   0

     atomic species   valence    mass     pseudopotential
        Si             4.00    28.08550     Si( 1.00)
        C              4.00    12.01100     C ( 1.00)

     24 Sym. Ops. (no inversion) found



   Cartesian axes

     site n.     atom                  positions (alat units)
         1           Si  tau(   1) = (   0.0000000   0.0000000   0.0000000  )
         2           C   tau(   2) = (   0.2500000   0.2500000   0.2500000  )

     number of k points=    47
                       cart. coord. in units 2pi/alat
        k(    1) = (   0.0000000   0.0000000   0.0000000), wk =   0.0020000
        k(    2) = (  -0.1000000   0.1000000  -0.1000000), wk =   0.0160000
        k(    3) = (  -0.2000000   0.2000000  -0.2000000), wk =   0.0160000
        k(    4) = (  -0.3000000   0.3000000  -0.3000000), wk =   0.0160000
        k(    5) = (  -0.4000000   0.4000000  -0.4000000), wk =   0.0160000
        k(    6) = (   0.5000000  -0.5000000   0.5000000), wk =   0.0080000
        k(    7) = (   0.0000000   0.2000000   0.0000000), wk =   0.0120000
        k(    8) = (  -0.1000000   0.3000000  -0.1000000), wk =   0.0480000
        k(    9) = (  -0.2000000   0.4000000  -0.2000000), wk =   0.0480000
        k(   10) = (  -0.3000000   0.5000000  -0.3000000), wk =   0.0480000
        k(   11) = (   0.6000000  -0.4000000   0.6000000), wk =   0.0480000
        k(   12) = (   0.5000000  -0.3000000   0.5000000), wk =   0.0480000
        k(   13) = (   0.4000000  -0.2000000   0.4000000), wk =   0.0480000
        k(   14) = (   0.3000000  -0.1000000   0.3000000), wk =   0.0480000
        k(   15) = (   0.2000000   0.0000000   0.2000000), wk =   0.0240000
        k(   16) = (   0.0000000   0.4000000   0.0000000), wk =   0.0120000
        k(   17) = (  -0.1000000   0.5000000  -0.1000000), wk =   0.0480000
        k(   18) = (  -0.2000000   0.6000000  -0.2000000), wk =   0.0480000
        k(   19) = (   0.7000000  -0.3000000   0.7000000), wk =   0.0480000
        k(   20) = (   0.6000000  -0.2000000   0.6000000), wk =   0.0480000
        k(   21) = (   0.5000000  -0.1000000   0.5000000), wk =   0.0480000
        k(   22) = (   0.4000000   0.0000000   0.4000000), wk =   0.0240000
        k(   23) = (   0.0000000   0.6000000   0.0000000), wk =   0.0120000
        k(   24) = (  -0.1000000   0.7000000  -0.1000000), wk =   0.0480000
        k(   25) = (   0.8000000  -0.2000000   0.8000000), wk =   0.0480000
        k(   26) = (   0.7000000  -0.1000000   0.7000000), wk =   0.0480000
        k(   27) = (   0.6000000  -0.0000000   0.6000000), wk =   0.0240000
        k(   28) = (   0.0000000   0.8000000   0.0000000), wk =   0.0120000
        k(   29) = (   0.9000000  -0.1000000   0.9000000), wk =   0.0480000
        k(   30) = (   0.8000000   0.0000000   0.8000000), wk =   0.0240000
        k(   31) = (   0.0000000  -1.0000000   0.0000000), wk =   0.0060000
        k(   32) = (  -0.2000000   0.4000000   0.0000000), wk =   0.0480000
        k(   33) = (  -0.3000000   0.5000000  -0.1000000), wk =   0.0960000
        k(   34) = (   0.6000000  -0.4000000   0.8000000), wk =   0.0960000
        k(   35) = (   0.5000000  -0.3000000   0.7000000), wk =   0.0480000
        k(   36) = (  -0.2000000   0.6000000   0.0000000), wk =   0.0480000
        k(   37) = (   0.7000000  -0.3000000   0.9000000), wk =   0.0960000
        k(   38) = (   0.6000000  -0.2000000   0.8000000), wk =   0.0960000
        k(   39) = (   0.5000000  -0.1000000   0.7000000), wk =   0.0960000
        k(   40) = (   0.4000000   0.0000000   0.6000000), wk =   0.0480000
        k(   41) = (   0.8000000  -0.2000000   1.0000000), wk =   0.0480000
        k(   42) = (   0.7000000  -0.1000000   0.9000000), wk =   0.0960000
        k(   43) = (   0.6000000   0.0000000   0.8000000), wk =   0.0480000
        k(   44) = (  -0.2000000  -1.0000000   0.0000000), wk =   0.0240000
        k(   45) = (   0.6000000  -0.2000000   1.0000000), wk =   0.0480000
        k(   46) = (   0.5000000  -0.1000000   0.9000000), wk =   0.0480000
        k(   47) = (  -0.4000000  -1.0000000   0.0000000), wk =   0.0240000

     Dense  grid:    11017 G-vectors     FFT dimensions: (  32,  32,  32)

     Estimated max dynamical RAM per process >      20.92 MB

     WARNING: libxc functional with ID  263 depends
      on external parameters: check the user_guide of
      QE if you need to modify them or to check their
      default values.

     Initial potential from superposition of free atoms

     starting charge       7.9995, renormalised to       8.0000
     Starting wfcs are   13 randomized atomic wfcs

     total cpu time spent up to now is        2.9 secs

     Self-consistent Calculation

     iteration #  1     ecut=    50.00 Ry     beta= 0.20
     Davidson diagonalization with overlap
     ethr =  1.00E-02,  avg # of iterations =  1.6

     total cpu time spent up to now is        5.1 secs

     total energy              =     -19.06568408 Ry
     estimated scf accuracy    <       1.22565545 Ry

     iteration #  2     ecut=    50.00 Ry     beta= 0.20
     Davidson diagonalization with overlap
     ethr =  1.00E-02,  avg # of iterations =  1.0

     total cpu time spent up to now is        7.1 secs

     total energy              =     -19.04582975 Ry
     estimated scf accuracy    <       0.77615682 Ry

     iteration #  3     ecut=    50.00 Ry     beta= 0.20
     Davidson diagonalization with overlap
     ethr =  9.70E-03,  avg # of iterations =  1.0

     total cpu time spent up to now is        8.9 secs

     total energy              =     -19.08812304 Ry
     estimated scf accuracy    <       0.03278881 Ry

     iteration #  4     ecut=    50.00 Ry     beta= 0.20
     Davidson diagonalization with overlap
     ethr =  4.10E-04,  avg # of iterations =  2.0

     total cpu time spent up to now is       11.5 secs

     total energy              =     -19.09581010 Ry
     estimated scf accuracy    <       0.02494063 Ry

     iteration #  5     ecut=    50.00 Ry     beta= 0.20
     Davidson diagonalization with overlap
     ethr =  3.12E-04,  avg # of iterations =  1.0

     total cpu time spent up to now is       13.5 secs

     total energy              =     -19.09703037 Ry
     estimated scf accuracy    <       0.01488814 Ry

     iteration #  6     ecut=    50.00 Ry     beta= 0.20
     Davidson diagonalization with overlap
     ethr =  1.86E-04,  avg # of iterations =  1.0

     total cpu time spent up to now is       15.4 secs

     total energy              =     -19.09732100 Ry
     estimated scf accuracy    <       0.00439294 Ry

     iteration #  7     ecut=    50.00 Ry     beta= 0.20
     Davidson diagonalization with overlap
     ethr =  5.49E-05,  avg # of iterations =  2.0

     total cpu time spent up to now is       17.5 secs

     total energy              =     -19.09722496 Ry
     estimated scf accuracy    <       0.00263503 Ry

     iteration #  8     ecut=    50.00 Ry     beta= 0.20
     Davidson diagonalization with overlap
     ethr =  3.29E-05,  avg # of iterations =  2.0

     total cpu time spent up to now is       19.4 secs

     total energy              =     -19.09764095 Ry
     estimated scf accuracy    <       0.00042614 Ry

     iteration #  9     ecut=    50.00 Ry     beta= 0.20
     Davidson diagonalization with overlap
     ethr =  5.33E-06,  avg # of iterations =  2.0

     total cpu time spent up to now is       21.5 secs

     total energy              =     -19.09745446 Ry
     estimated scf accuracy    <       0.00172823 Ry

     iteration # 10     ecut=    50.00 Ry     beta= 0.20
     Davidson diagonalization with overlap
     ethr =  5.33E-06,  avg # of iterations =  2.0

     total cpu time spent up to now is       23.1 secs

     End of self-consistent calculation

          k = 0.0000 0.0000 0.0000 (  1411 PWs)   bands (ev):

    -8.6066   4.0361   4.0361   4.0361

          k =-0.1000 0.1000-0.1000 (  1390 PWs)   bands (ev):

    -8.4773   2.7916   3.9250   3.9250

          k =-0.2000 0.2000-0.2000 (  1387 PWs)   bands (ev):

    -8.1009   1.0518   3.6634   3.6634

          k =-0.3000 0.3000-0.3000 (  1387 PWs)   bands (ev):

    -7.5241  -0.6060   3.3939   3.3939

          k =-0.4000 0.4000-0.4000 (  1389 PWs)   bands (ev):

    -6.8856  -1.9295   3.2066   3.2066

          k = 0.5000-0.5000 0.5000 (  1380 PWs)   bands (ev):

    -6.5573  -2.4907   3.1403   3.1403

          k = 0.0000 0.2000 0.0000 (  1399 PWs)   bands (ev):

    -8.4339   2.7559   3.6939   3.6939

          k =-0.1000 0.3000-0.1000 (  1382 PWs)   bands (ev):

    -8.1387   1.4541   3.3696   3.4447

          k =-0.2000 0.4000-0.2000 (  1381 PWs)   bands (ev):

    -7.6240  -0.1180   3.0903   3.0950

          k =-0.3000 0.5000-0.3000 (  1388 PWs)   bands (ev):

    -6.9864  -1.5216   2.7273   2.9494

          k = 0.6000-0.4000 0.6000 (  1391 PWs)   bands (ev):

    -6.5037  -2.3686   2.4689   2.9588

          k = 0.5000-0.3000 0.5000 (  1385 PWs)   bands (ev):

    -6.6195  -2.1772   2.3731   3.1163

          k = 0.4000-0.2000 0.4000 (  1382 PWs)   bands (ev):

    -7.2038  -1.0880   2.4669   3.3858

          k = 0.3000-0.1000 0.3000 (  1373 PWs)   bands (ev):

    -7.8181   0.3881   2.7715   3.6941

          k = 0.2000 0.0000 0.2000 (  1387 PWs)   bands (ev):

    -8.2650   1.8443   3.3130   3.9193

          k = 0.0000 0.4000 0.0000 (  1375 PWs)   bands (ev):

    -7.9278   1.0977   2.9893   2.9893

          k =-0.1000 0.5000-0.1000 (  1375 PWs)   bands (ev):

    -7.4897   0.0253   2.5481   2.6794

          k =-0.2000 0.6000-0.2000 (  1378 PWs)   bands (ev):

    -6.8940  -1.1852   1.9667   2.5231

          k = 0.7000-0.3000 0.7000 (  1391 PWs)   bands (ev):

    -6.3403  -2.1105   1.4691   2.5473

          k = 0.6000-0.2000 0.6000 (  1382 PWs)   bands (ev):

    -6.2455  -2.2478   1.1972   2.7478

          k = 0.5000-0.1000 0.5000 (  1381 PWs)   bands (ev):

    -6.7118  -1.5112   1.2430   3.0778

          k = 0.4000 0.0000 0.4000 (  1384 PWs)   bands (ev):

    -7.3234  -0.4767   1.7487   3.4458

          k = 0.0000 0.6000 0.0000 (  1371 PWs)   bands (ev):

    -7.1342  -0.5151   2.3253   2.3253

          k =-0.1000 0.7000-0.1000 (  1384 PWs)   bands (ev):

    -6.6123  -1.3581   1.8021   2.1271

          k = 0.8000-0.2000 0.8000 (  1378 PWs)   bands (ev):

    -6.0762  -2.0845   1.0523   2.1254

          k = 0.7000-0.1000 0.7000 (  1381 PWs)   bands (ev):

    -5.8611  -2.3247   0.5211   2.3181

          k = 0.6000-0.0000 0.6000 (  1380 PWs)   bands (ev):

    -6.1707  -1.9782   0.5162   2.6658

          k = 0.0000 0.8000 0.0000 (  1367 PWs)   bands (ev):

    -6.1920  -1.9474   1.8809   1.8809

          k = 0.9000-0.1000 0.9000 (  1378 PWs)   bands (ev):

    -5.7801  -2.4445   1.3987   1.8304

          k = 0.8000 0.0000 0.8000 (  1374 PWs)   bands (ev):

    -5.6394  -2.5252   0.7076   1.9864

          k = 0.0000-1.0000 0.0000 (  1362 PWs)   bands (ev):

    -5.6330  -2.6710   1.7268   1.7268

          k =-0.2000 0.4000 0.0000 (  1379 PWs)   bands (ev):

    -7.7720   0.5162   2.5571   3.3456

          k =-0.3000 0.5000-0.1000 (  1383 PWs)   bands (ev):

    -7.2124  -0.7143   1.9721   3.0644

          k = 0.6000-0.4000 0.8000 (  1391 PWs)   bands (ev):

    -6.5980  -1.8428   1.6806   2.7841

          k = 0.5000-0.3000 0.7000 (  1390 PWs)   bands (ev):

    -6.2852  -2.3431   1.5960   2.6723

          k =-0.2000 0.6000 0.0000 (  1387 PWs)   bands (ev):

    -7.0062  -0.8001   1.8762   2.4651

          k = 0.7000-0.3000 0.9000 (  1381 PWs)   bands (ev):

    -6.4228  -1.6819   1.2798   2.1970

          k = 0.6000-0.2000 0.8000 (  1393 PWs)   bands (ev):

    -6.0057  -2.2496   0.8616   2.1476

          k = 0.5000-0.1000 0.7000 (  1385 PWs)   bands (ev):

    -6.1248  -2.0854   0.7423   2.3550

          k = 0.4000 0.0000 0.6000 (  1378 PWs)   bands (ev):

    -6.6516  -1.4041   1.0825   2.7240

          k = 0.8000-0.2000 1.0000 (  1378 PWs)   bands (ev):

    -6.1174  -1.9928   1.4666   1.7609

          k = 0.7000-0.1000 0.9000 (  1385 PWs)   bands (ev):

    -5.7325  -2.3902   0.8408   1.6808

          k = 0.6000 0.0000 0.8000 (  1390 PWs)   bands (ev):

    -5.7459  -2.3458   0.4487   1.9274

          k =-0.2000-1.0000 0.0000 (  1380 PWs)   bands (ev):

    -5.6119  -2.5985   1.4079   1.4239

          k = 0.6000-0.2000 1.0000 (  1382 PWs)   bands (ev):

    -5.9340  -2.1392   0.7847   1.7134

          k = 0.5000-0.1000 0.9000 (  1396 PWs)   bands (ev):

    -5.7021  -2.3579   0.6291   1.4879

          k =-0.4000-1.0000 0.0000 (  1392 PWs)   bands (ev):

    -5.5768  -2.4658   0.9447   1.0300

     highest occupied level (ev):     4.0361

!    total energy              =     -19.09752939 Ry
     estimated scf accuracy    <       0.00001499 Ry

     The total energy is the sum of the following terms:
     one-electron contribution =       1.27064540 Ry
     hartree contribution      =       2.76176310 Ry
     xc contribution           =      -5.45197963 Ry
     ewald contribution        =     -17.67795826 Ry

     convergence has been achieved in  10 iterations
     Writing meta-gga kinetic term

     Writing all to output data dir ./input_pw/SiC/13/pwscf.save/
     Writing meta-gga kinetic term
 
     init_run     :      1.33s CPU      2.88s WALL (       1 calls)
     electrons    :     11.57s CPU     20.16s WALL (       1 calls)

     Called by init_run:
     wfcinit      :      1.21s CPU      2.62s WALL (       1 calls)
     potinit      :      0.02s CPU      0.08s WALL (       1 calls)
     hinit0       :      0.09s CPU      0.17s WALL (       1 calls)

     Called by electrons:
     c_bands      :      9.21s CPU     16.07s WALL (      10 calls)
     sum_band     :      2.06s CPU      3.54s WALL (      10 calls)
     v_of_rho     :      0.21s CPU      0.40s WALL (      11 calls)
     mix_rho      :      0.11s CPU      0.21s WALL (      10 calls)

     Called by c_bands:
     init_us_2    :      0.17s CPU      0.26s WALL (     987 calls)
     init_us_2:cp :      0.16s CPU      0.26s WALL (     987 calls)
     cegterg      :      9.06s CPU     15.82s WALL (     470 calls)

     Called by *egterg:
     cdiaghg      :      0.06s CPU      0.10s WALL (    1201 calls)
     h_psi        :      9.95s CPU     17.82s WALL (    1248 calls)
     g_psi        :      0.01s CPU      0.04s WALL (     731 calls)

     Called by h_psi:
     h_psi:calbec :      0.04s CPU      0.06s WALL (    1248 calls)
     vloc_psi     :      2.44s CPU      4.50s WALL (    1248 calls)
     add_vuspsi   :      0.05s CPU      0.08s WALL (    1248 calls)
     h_psi_meta   :      7.40s CPU     13.16s WALL (    1248 calls)

     General routines
     calbec       :      0.04s CPU      0.05s WALL (    1248 calls)
     fft          :      0.02s CPU      0.08s WALL (     129 calls)
     ffts         :      0.04s CPU      0.12s WALL (     197 calls)
     fftw         :      9.94s CPU     17.95s WALL (   48624 calls)
     interpolate  :      0.00s CPU      0.00s WALL (      11 calls)
 
     Parallel routines
 
     PWSCF        :     12.95s CPU     23.11s WALL

 
   This run was terminated on:  14:31:20   7Jul2023            

=------------------------------------------------------------------------------=
   JOB DONE.
=------------------------------------------------------------------------------=
