
     Program PWSCF v.7.0 starts on  4Apr2023 at  9:49: 0 

     This program is part of the open-source Quantum ESPRESSO suite
     for quantum simulation of materials; please cite
         "P. Giannozzi et al., J. Phys.:Condens. Matter 21 395502 (2009);
         "P. Giannozzi et al., J. Phys.:Condens. Matter 29 465901 (2017);
         "P. Giannozzi et al., J. Chem. Phys. 152 154105 (2020);
          URL http://www.quantum-espresso.org", 
     in publications or presentations arising from this work. More details at
     http://www.quantum-espresso.org/quote

     Parallel version (MPI), running on     1 processors

     MPI processes distributed on     1 nodes
     20114 MiB available memory on the printing compute node when the environment starts
 
     Waiting for input...
     Reading input from standard input
Warning: card &CELL ignored
Warning: card / ignored

     Current dimensions of program PWSCF are:
     Max number of different atomic species (ntypx) = 10
     Max number of k-points (npk) =  40000
     Max angular momentum in pseudopotentials (lmaxx) =  4
     file Al.SCAN.UPF2: wavefunction(s)  0D renormalized

     WARNING: the MGGA functional with ID    5 has been 
     read together with other dft terms, but it should 
     stand alone in order to work properly. The other 
     terms will be ignored.

     Subspace diagonalization in iterative solution of the eigenvalue problem:
     a serial algorithm will be used

 
     G-vector sticks info
     --------------------
     sticks:   dense  smooth     PW     G-vecs:    dense   smooth      PW
     Sum         475     475    151                 6879     6879    1243
 
     Using Slab Decomposition
 


     bravais-lattice index     =            2
     lattice parameter (alat)  =       7.6194  a.u.
     unit-cell volume          =     110.5855 (a.u.)^3
     number of atoms/cell      =            1
     number of atomic types    =            1
     number of electrons       =         3.00
     number of Kohn-Sham states=            6
     kinetic-energy cutoff     =      60.0000  Ry
     charge density cutoff     =     240.0000  Ry
     scf convergence threshold =      1.0E-06
     mixing beta               =       0.0100
     number of iterations used =            8  local-TF  mixing
     Exchange-correlation= SLA  PW   SCAN SCAN
                           (   0   0   0   0   0 263 267)

     celldm(1)=   7.619376  celldm(2)=   0.000000  celldm(3)=   0.000000
     celldm(4)=   0.000000  celldm(5)=   0.000000  celldm(6)=   0.000000

     crystal axes: (cart. coord. in units of alat)
               a(1) = (  -0.500000   0.000000   0.500000 )  
               a(2) = (   0.000000   0.500000   0.500000 )  
               a(3) = (  -0.500000   0.500000   0.000000 )  

     reciprocal axes: (cart. coord. in units 2 pi/alat)
               b(1) = ( -1.000000 -1.000000  1.000000 )  
               b(2) = (  1.000000  1.000000  1.000000 )  
               b(3) = ( -1.000000  1.000000 -1.000000 )  


     PseudoPot. # 1 for Al read from file:
     ~/Documents/TA/PWDFT.jl/pseudopotentials/scan_upf/Al.SCAN.UPF2
     MD5 check sum: Not computed, couldn't open file
     Pseudo is Norm-conserving, Zval =  3.0
     Generated by new atomic code, or converted to UPF format
     Using radial grid of 1467 points,  2 beta functions with: 
                l(1) =   0
                l(2) =   1

     atomic species   valence    mass     pseudopotential
        Al             3.00    26.98154     Al( 1.00)

     Starting magnetic structure 
     atomic species   magnetization
        Al           1.000

     48 Sym. Ops., with inversion, found



   Cartesian axes

     site n.     atom                  positions (alat units)
         1           Al  tau(   1) = (   0.0000000   0.0000000   0.0000000  )

     number of k points=    47  Gaussian smearing, width (Ry)=  0.1000
                       cart. coord. in units 2pi/alat
        k(    1) = (   0.0000000   0.0000000   0.0000000), wk =   0.0010000
        k(    2) = (  -0.1000000   0.1000000  -0.1000000), wk =   0.0080000
        k(    3) = (  -0.2000000   0.2000000  -0.2000000), wk =   0.0080000
        k(    4) = (  -0.3000000   0.3000000  -0.3000000), wk =   0.0080000
        k(    5) = (  -0.4000000   0.4000000  -0.4000000), wk =   0.0080000
        k(    6) = (   0.5000000  -0.5000000   0.5000000), wk =   0.0040000
        k(    7) = (   0.0000000   0.2000000   0.0000000), wk =   0.0060000
        k(    8) = (  -0.1000000   0.3000000  -0.1000000), wk =   0.0240000
        k(    9) = (  -0.2000000   0.4000000  -0.2000000), wk =   0.0240000
        k(   10) = (  -0.3000000   0.5000000  -0.3000000), wk =   0.0240000
        k(   11) = (   0.6000000  -0.4000000   0.6000000), wk =   0.0240000
        k(   12) = (   0.5000000  -0.3000000   0.5000000), wk =   0.0240000
        k(   13) = (   0.4000000  -0.2000000   0.4000000), wk =   0.0240000
        k(   14) = (   0.3000000  -0.1000000   0.3000000), wk =   0.0240000
        k(   15) = (   0.2000000   0.0000000   0.2000000), wk =   0.0120000
        k(   16) = (   0.0000000   0.4000000   0.0000000), wk =   0.0060000
        k(   17) = (  -0.1000000   0.5000000  -0.1000000), wk =   0.0240000
        k(   18) = (  -0.2000000   0.6000000  -0.2000000), wk =   0.0240000
        k(   19) = (   0.7000000  -0.3000000   0.7000000), wk =   0.0240000
        k(   20) = (   0.6000000  -0.2000000   0.6000000), wk =   0.0240000
        k(   21) = (   0.5000000  -0.1000000   0.5000000), wk =   0.0240000
        k(   22) = (   0.4000000   0.0000000   0.4000000), wk =   0.0120000
        k(   23) = (   0.0000000   0.6000000   0.0000000), wk =   0.0060000
        k(   24) = (  -0.1000000   0.7000000  -0.1000000), wk =   0.0240000
        k(   25) = (   0.8000000  -0.2000000   0.8000000), wk =   0.0240000
        k(   26) = (   0.7000000  -0.1000000   0.7000000), wk =   0.0240000
        k(   27) = (   0.6000000  -0.0000000   0.6000000), wk =   0.0120000
        k(   28) = (   0.0000000   0.8000000   0.0000000), wk =   0.0060000
        k(   29) = (   0.9000000  -0.1000000   0.9000000), wk =   0.0240000
        k(   30) = (   0.8000000   0.0000000   0.8000000), wk =   0.0120000
        k(   31) = (   0.0000000  -1.0000000   0.0000000), wk =   0.0030000
        k(   32) = (  -0.2000000   0.4000000   0.0000000), wk =   0.0240000
        k(   33) = (  -0.3000000   0.5000000  -0.1000000), wk =   0.0480000
        k(   34) = (   0.6000000  -0.4000000   0.8000000), wk =   0.0480000
        k(   35) = (   0.5000000  -0.3000000   0.7000000), wk =   0.0240000
        k(   36) = (  -0.2000000   0.6000000   0.0000000), wk =   0.0240000
        k(   37) = (   0.7000000  -0.3000000   0.9000000), wk =   0.0480000
        k(   38) = (   0.6000000  -0.2000000   0.8000000), wk =   0.0480000
        k(   39) = (   0.5000000  -0.1000000   0.7000000), wk =   0.0480000
        k(   40) = (   0.4000000   0.0000000   0.6000000), wk =   0.0240000
        k(   41) = (   0.8000000  -0.2000000   1.0000000), wk =   0.0240000
        k(   42) = (   0.7000000  -0.1000000   0.9000000), wk =   0.0480000
        k(   43) = (   0.6000000   0.0000000   0.8000000), wk =   0.0240000
        k(   44) = (  -0.2000000  -1.0000000   0.0000000), wk =   0.0120000
        k(   45) = (   0.6000000  -0.2000000   1.0000000), wk =   0.0240000
        k(   46) = (   0.5000000  -0.1000000   0.9000000), wk =   0.0240000
        k(   47) = (  -0.4000000  -1.0000000   0.0000000), wk =   0.0120000

     Dense  grid:     6879 G-vectors     FFT dimensions: (  27,  27,  27)

     Estimated max dynamical RAM per process >      23.46 MB

     WARNING: libxc functional with ID  263 depends
      on external parameters: check the user_guide of
      QE if you need to modify them or to check their
      default values.
     Generating pointlists ...
     new r_m :   0.2917 (alat units)  2.2224 (a.u.) for type    1

     Initial potential from superposition of free atoms

     starting charge       2.9979, renormalised to       3.0000
     Starting wfcs are    9 randomized atomic wfcs

     total cpu time spent up to now is        3.4 secs

     Self-consistent Calculation

     iteration #  1     ecut=    60.00 Ry     beta= 0.01
     Davidson diagonalization with overlap
     c_bands:  4 eigenvalues not converged
     c_bands:  3 eigenvalues not converged
     c_bands:  5 eigenvalues not converged
     c_bands:  3 eigenvalues not converged
     c_bands:  4 eigenvalues not converged
     c_bands:  4 eigenvalues not converged
     c_bands:  4 eigenvalues not converged
     c_bands:  5 eigenvalues not converged
     c_bands:  3 eigenvalues not converged
     c_bands:  5 eigenvalues not converged
     c_bands:  4 eigenvalues not converged
     c_bands:  3 eigenvalues not converged
     c_bands:  4 eigenvalues not converged
     c_bands:  5 eigenvalues not converged
     c_bands:  5 eigenvalues not converged
     c_bands:  4 eigenvalues not converged
     c_bands:  5 eigenvalues not converged
     c_bands:  5 eigenvalues not converged
     c_bands:  4 eigenvalues not converged
     c_bands:  1 eigenvalues not converged
     c_bands:  4 eigenvalues not converged
     c_bands:  5 eigenvalues not converged
     c_bands:  4 eigenvalues not converged
     c_bands:  4 eigenvalues not converged
     c_bands:  5 eigenvalues not converged
     c_bands:  4 eigenvalues not converged
     c_bands:  4 eigenvalues not converged
     c_bands:  4 eigenvalues not converged
     c_bands:  5 eigenvalues not converged
     c_bands:  5 eigenvalues not converged
     c_bands:  4 eigenvalues not converged
     c_bands:  5 eigenvalues not converged
     c_bands:  5 eigenvalues not converged
     c_bands:  5 eigenvalues not converged
     c_bands:  5 eigenvalues not converged
     c_bands:  4 eigenvalues not converged
     c_bands:  5 eigenvalues not converged
     c_bands:  5 eigenvalues not converged
     c_bands:  3 eigenvalues not converged
     c_bands:  5 eigenvalues not converged
     c_bands:  4 eigenvalues not converged
     c_bands:  5 eigenvalues not converged
     c_bands:  5 eigenvalues not converged
     c_bands:  4 eigenvalues not converged
     c_bands:  5 eigenvalues not converged
     c_bands:  3 eigenvalues not converged
     c_bands:  5 eigenvalues not converged
     ethr =  1.00E-02,  avg # of iterations = 22.3

     negative rho (up,down):  0.000E+00 1.401E-04

     total cpu time spent up to now is       55.0 secs

     total energy              =    -280.53404431 Ry
     estimated scf accuracy    <   75004.81845407 Ry

     total magnetization       =    -3.00 Bohr mag/cell
     absolute magnetization    =     3.00 Bohr mag/cell

     iteration #  2     ecut=    60.00 Ry     beta= 0.01
     Davidson diagonalization with overlap
     c_bands:  1 eigenvalues not converged
     ethr =  1.00E-02,  avg # of iterations = 18.4

     negative rho (up,down):  0.000E+00 6.936E-05

     total cpu time spent up to now is       94.3 secs

     total energy              =      -3.56399769 Ry
     estimated scf accuracy    <      97.43320475 Ry

     total magnetization       =     2.33 Bohr mag/cell
     absolute magnetization    =     2.33 Bohr mag/cell

     iteration #  3     ecut=    60.00 Ry     beta= 0.01
     Davidson diagonalization with overlap
     ethr =  1.00E-02,  avg # of iterations =  2.3

     negative rho (up,down):  0.000E+00 5.546E-03

     total cpu time spent up to now is       99.9 secs

     total energy              =      -1.03465145 Ry
     estimated scf accuracy    <      92.58131238 Ry

     total magnetization       =     2.09 Bohr mag/cell
     absolute magnetization    =     2.09 Bohr mag/cell

     iteration #  4     ecut=    60.00 Ry     beta= 0.01
     Davidson diagonalization with overlap
     ethr =  1.00E-02,  avg # of iterations =  4.7

     negative rho (up,down):  0.000E+00 6.448E-03

     total cpu time spent up to now is      110.9 secs

     total energy              =      -3.07349330 Ry
     estimated scf accuracy    <     116.48400616 Ry

     total magnetization       =     2.99 Bohr mag/cell
     absolute magnetization    =     2.99 Bohr mag/cell

     iteration #  5     ecut=    60.00 Ry     beta= 0.01
     Davidson diagonalization with overlap
     c_bands:  1 eigenvalues not converged
     c_bands:  3 eigenvalues not converged
     c_bands:  1 eigenvalues not converged
     c_bands:  4 eigenvalues not converged
     c_bands:  1 eigenvalues not converged
     c_bands:  1 eigenvalues not converged
     c_bands:  1 eigenvalues not converged
     c_bands:  1 eigenvalues not converged
     c_bands:  3 eigenvalues not converged
     c_bands:  1 eigenvalues not converged
     c_bands:  3 eigenvalues not converged
     c_bands:  1 eigenvalues not converged
     c_bands:  2 eigenvalues not converged
     c_bands:  1 eigenvalues not converged
     c_bands:  1 eigenvalues not converged
     c_bands:  2 eigenvalues not converged
     c_bands:  1 eigenvalues not converged
     c_bands:  2 eigenvalues not converged
     c_bands:  5 eigenvalues not converged
     c_bands:  2 eigenvalues not converged
     c_bands:  2 eigenvalues not converged
     c_bands:  1 eigenvalues not converged
     c_bands:  3 eigenvalues not converged
     c_bands:  2 eigenvalues not converged
     c_bands:  1 eigenvalues not converged
     c_bands:  2 eigenvalues not converged
     c_bands:  1 eigenvalues not converged
     c_bands:  1 eigenvalues not converged
     c_bands:  1 eigenvalues not converged
     c_bands:  2 eigenvalues not converged
     c_bands:  2 eigenvalues not converged
     ethr =  1.00E-02,  avg # of iterations = 10.3

     negative rho (up,down):  0.000E+00 5.778E-04

     total cpu time spent up to now is      128.5 secs

     total energy              =      -3.48382583 Ry
     estimated scf accuracy    <     115.33202391 Ry

     total magnetization       =     3.00 Bohr mag/cell
     absolute magnetization    =     3.00 Bohr mag/cell

     iteration #  6     ecut=    60.00 Ry     beta= 0.01
     Davidson diagonalization with overlap
     ethr =  1.00E-02,  avg # of iterations =  4.8

     negative rho (up,down):  0.000E+00 5.589E-04

     total cpu time spent up to now is      139.2 secs

     total energy              =      -3.48448357 Ry
     estimated scf accuracy    <     116.77687560 Ry

     total magnetization       =     2.44 Bohr mag/cell
     absolute magnetization    =     2.44 Bohr mag/cell

     iteration #  7     ecut=    60.00 Ry     beta= 0.01
     Davidson diagonalization with overlap
     ethr =  1.00E-02,  avg # of iterations =  1.7

     total cpu time spent up to now is      145.0 secs

     total energy              =      -3.60476129 Ry
     estimated scf accuracy    <     114.93774891 Ry

     total magnetization       =     2.32 Bohr mag/cell
     absolute magnetization    =     2.32 Bohr mag/cell

     iteration #  8     ecut=    60.00 Ry     beta= 0.01
     Davidson diagonalization with overlap
     ethr =  1.00E-02,  avg # of iterations =  2.1

     total cpu time spent up to now is      151.5 secs

     total energy              =      -3.91891856 Ry
     estimated scf accuracy    <      43.64686282 Ry

     total magnetization       =     0.98 Bohr mag/cell
     absolute magnetization    =     0.98 Bohr mag/cell

     iteration #  9     ecut=    60.00 Ry     beta= 0.01
     Davidson diagonalization with overlap
     ethr =  1.00E-02,  avg # of iterations =  1.0

     total cpu time spent up to now is      156.8 secs

     total energy              =      -3.93513925 Ry
     estimated scf accuracy    <      30.78994437 Ry

     total magnetization       =     0.96 Bohr mag/cell
     absolute magnetization    =     0.96 Bohr mag/cell

     iteration # 10     ecut=    60.00 Ry     beta= 0.01
     Davidson diagonalization with overlap
     ethr =  1.00E-02,  avg # of iterations =  1.0

     total cpu time spent up to now is      161.8 secs

     total energy              =      -3.93961821 Ry
     estimated scf accuracy    <       0.58521287 Ry

     total magnetization       =     0.99 Bohr mag/cell
     absolute magnetization    =     0.99 Bohr mag/cell

     iteration # 11     ecut=    60.00 Ry     beta= 0.01
     Davidson diagonalization with overlap
     ethr =  1.00E-02,  avg # of iterations =  1.0

     total cpu time spent up to now is      167.7 secs

     total energy              =      -3.90917166 Ry
     estimated scf accuracy    <       1.12447159 Ry

     total magnetization       =     0.98 Bohr mag/cell
     absolute magnetization    =     0.98 Bohr mag/cell

     iteration # 12     ecut=    60.00 Ry     beta= 0.01
     Davidson diagonalization with overlap
     ethr =  1.00E-02,  avg # of iterations =  1.0

     total cpu time spent up to now is      172.5 secs

     total energy              =      -3.91406462 Ry
     estimated scf accuracy    <       1.42864600 Ry

     total magnetization       =     1.09 Bohr mag/cell
     absolute magnetization    =     1.09 Bohr mag/cell

     iteration # 13     ecut=    60.00 Ry     beta= 0.01
     Davidson diagonalization with overlap
     ethr =  1.00E-02,  avg # of iterations =  1.0

     total cpu time spent up to now is      177.3 secs

     total energy              =      -3.91626712 Ry
     estimated scf accuracy    <       1.35920120 Ry

     total magnetization       =     1.09 Bohr mag/cell
     absolute magnetization    =     1.09 Bohr mag/cell

     iteration # 14     ecut=    60.00 Ry     beta= 0.01
     Davidson diagonalization with overlap
     ethr =  1.00E-02,  avg # of iterations =  1.0

     total cpu time spent up to now is      182.4 secs

     total energy              =      -3.91999675 Ry
     estimated scf accuracy    <       1.36334728 Ry

     total magnetization       =     1.09 Bohr mag/cell
     absolute magnetization    =     1.09 Bohr mag/cell

     iteration # 15     ecut=    60.00 Ry     beta= 0.01
     Davidson diagonalization with overlap
     ethr =  1.00E-02,  avg # of iterations =  1.0

     negative rho (up,down):  0.000E+00 2.442E-02

     total cpu time spent up to now is      187.0 secs

     total energy              =      -0.32093552 Ry
     estimated scf accuracy    <       1.26771150 Ry

     total magnetization       =     1.10 Bohr mag/cell
     absolute magnetization    =     1.10 Bohr mag/cell

     iteration # 16     ecut=    60.00 Ry     beta= 0.01
     Davidson diagonalization with overlap
     c_bands:  3 eigenvalues not converged
     c_bands:  4 eigenvalues not converged
     c_bands:  2 eigenvalues not converged
     c_bands:  1 eigenvalues not converged
     ethr =  1.00E-02,  avg # of iterations =  7.2

     negative rho (up,down):  0.000E+00 2.096E-02

     total cpu time spent up to now is      199.5 secs

     total energy              =     127.49499268 Ry
     estimated scf accuracy    <  112196.30078493 Ry

     total magnetization       =    -3.00 Bohr mag/cell
     absolute magnetization    =     3.00 Bohr mag/cell

     iteration # 17     ecut=    60.00 Ry     beta= 0.01
     Davidson diagonalization with overlap
     c_bands:  3 eigenvalues not converged
     c_bands:  5 eigenvalues not converged
     c_bands:  2 eigenvalues not converged
     c_bands:  3 eigenvalues not converged
     c_bands:  3 eigenvalues not converged
     c_bands:  5 eigenvalues not converged
     c_bands:  2 eigenvalues not converged
     c_bands:  2 eigenvalues not converged
     c_bands:  1 eigenvalues not converged
     c_bands:  5 eigenvalues not converged
     c_bands:  3 eigenvalues not converged
     c_bands:  4 eigenvalues not converged
     c_bands:  3 eigenvalues not converged
     c_bands:  5 eigenvalues not converged
     c_bands:  5 eigenvalues not converged
     c_bands:  4 eigenvalues not converged
     c_bands:  5 eigenvalues not converged
     c_bands:  1 eigenvalues not converged
     c_bands:  3 eigenvalues not converged
     ethr =  1.00E-02,  avg # of iterations = 10.1

     negative rho (up,down):  0.000E+00 4.212E-02

     total cpu time spent up to now is      217.4 secs

     total energy              =      57.63428974 Ry
     estimated scf accuracy    <   58277.27354475 Ry

     total magnetization       =    -3.00 Bohr mag/cell
     absolute magnetization    =     3.00 Bohr mag/cell

     iteration # 18     ecut=    60.00 Ry     beta= 0.01
     Davidson diagonalization with overlap
     ethr =  1.00E-02,  avg # of iterations =  6.1

     negative rho (up,down):  0.000E+00 3.872E-02

     total cpu time spent up to now is      227.6 secs

     total energy              =      14.73494175 Ry
     estimated scf accuracy    <   13229.30785119 Ry

     total magnetization       =    -3.00 Bohr mag/cell
     absolute magnetization    =     3.00 Bohr mag/cell

     iteration # 19     ecut=    60.00 Ry     beta= 0.01
     Davidson diagonalization with overlap
     ethr =  1.00E-02,  avg # of iterations =  7.0

     negative rho (up,down):  0.000E+00 2.643E-02

     total cpu time spent up to now is      239.1 secs

     total energy              =      30.12738136 Ry
     estimated scf accuracy    <   12154.14439538 Ry

     total magnetization       =    -3.00 Bohr mag/cell
     absolute magnetization    =     3.00 Bohr mag/cell

     iteration # 20     ecut=    60.00 Ry     beta= 0.01
     Davidson diagonalization with overlap
     ethr =  1.00E-02,  avg # of iterations =  4.1

     negative rho (up,down):  0.000E+00 4.376E-02

     total cpu time spent up to now is      246.3 secs

     total energy              =      -1.08648720 Ry
     estimated scf accuracy    <     848.43610099 Ry

     total magnetization       =     0.18 Bohr mag/cell
     absolute magnetization    =     2.12 Bohr mag/cell

     iteration # 21     ecut=    60.00 Ry     beta= 0.01
     Davidson diagonalization with overlap
     ethr =  1.00E-02,  avg # of iterations =  2.1

     negative rho (up,down):  0.000E+00 6.394E-02

     total cpu time spent up to now is      251.3 secs

     total energy              =      -3.00368258 Ry
     estimated scf accuracy    <      43.94165281 Ry

     total magnetization       =     1.61 Bohr mag/cell
     absolute magnetization    =     1.61 Bohr mag/cell

     iteration # 22     ecut=    60.00 Ry     beta= 0.01
     Davidson diagonalization with overlap
     ethr =  1.00E-02,  avg # of iterations =  1.6

     negative rho (up,down):  0.000E+00 6.015E-02

     total cpu time spent up to now is      256.1 secs

     total energy              =      -3.21739075 Ry
     estimated scf accuracy    <      81.21526401 Ry

     total magnetization       =     1.44 Bohr mag/cell
     absolute magnetization    =     1.45 Bohr mag/cell

     iteration # 23     ecut=    60.00 Ry     beta= 0.01
     Davidson diagonalization with overlap
     ethr =  1.00E-02,  avg # of iterations =  1.5

     negative rho (up,down):  0.000E+00 4.164E-02

     total cpu time spent up to now is      260.9 secs

     total energy              =      -3.47641992 Ry
     estimated scf accuracy    <      83.47208427 Ry

     total magnetization       =     1.60 Bohr mag/cell
     absolute magnetization    =     1.60 Bohr mag/cell

     iteration # 24     ecut=    60.00 Ry     beta= 0.01
     Davidson diagonalization with overlap
     ethr =  1.00E-02,  avg # of iterations =  2.4

     negative rho (up,down):  0.000E+00 3.902E-02

     total cpu time spent up to now is      265.5 secs

     total energy              =      -2.83613383 Ry
     estimated scf accuracy    <      54.79574604 Ry

     total magnetization       =     1.76 Bohr mag/cell
     absolute magnetization    =     1.76 Bohr mag/cell

     iteration # 25     ecut=    60.00 Ry     beta= 0.01
     Davidson diagonalization with overlap
     c_bands:  5 eigenvalues not converged
     c_bands:  3 eigenvalues not converged
     c_bands:  4 eigenvalues not converged
     c_bands:  3 eigenvalues not converged
     c_bands:  4 eigenvalues not converged
     c_bands:  4 eigenvalues not converged
     ethr =  1.00E-02,  avg # of iterations =  7.8

     negative rho (up,down):  0.000E+00 3.833E-02

     total cpu time spent up to now is      278.9 secs

     total energy              =      67.08058268 Ry
     estimated scf accuracy    <  114756.17823539 Ry

     total magnetization       =    -3.00 Bohr mag/cell
     absolute magnetization    =     3.00 Bohr mag/cell

     iteration # 26     ecut=    60.00 Ry     beta= 0.01
     Davidson diagonalization with overlap
     c_bands:  4 eigenvalues not converged
     c_bands:  3 eigenvalues not converged
     c_bands:  5 eigenvalues not converged
     c_bands:  4 eigenvalues not converged
     c_bands:  2 eigenvalues not converged
     c_bands:  5 eigenvalues not converged
     c_bands:  5 eigenvalues not converged
     c_bands:  4 eigenvalues not converged
     c_bands:  5 eigenvalues not converged
     c_bands:  5 eigenvalues not converged
     c_bands:  5 eigenvalues not converged
     c_bands:  5 eigenvalues not converged
     c_bands:  5 eigenvalues not converged
     c_bands:  2 eigenvalues not converged
     c_bands:  5 eigenvalues not converged
     c_bands:  4 eigenvalues not converged
     c_bands:  5 eigenvalues not converged
     c_bands:  5 eigenvalues not converged
     c_bands:  5 eigenvalues not converged
     c_bands:  2 eigenvalues not converged
     c_bands:  5 eigenvalues not converged
     c_bands:  1 eigenvalues not converged
     c_bands:  4 eigenvalues not converged
     c_bands:  2 eigenvalues not converged
     c_bands:  2 eigenvalues not converged
     c_bands:  5 eigenvalues not converged
     c_bands:  3 eigenvalues not converged
     c_bands:  4 eigenvalues not converged
     c_bands:  5 eigenvalues not converged
     c_bands:  4 eigenvalues not converged
     c_bands:  3 eigenvalues not converged
     c_bands:  2 eigenvalues not converged
     c_bands:  1 eigenvalues not converged
     c_bands:  2 eigenvalues not converged
     c_bands:  5 eigenvalues not converged
     c_bands:  5 eigenvalues not converged
     ethr =  1.00E-02,  avg # of iterations = 14.6

     negative rho (up,down):  0.000E+00 3.828E-02

     total cpu time spent up to now is      302.9 secs

     total energy              =      -0.83661177 Ry
     estimated scf accuracy    <   56876.06063689 Ry

     total magnetization       =    -3.00 Bohr mag/cell
     absolute magnetization    =     3.00 Bohr mag/cell

     iteration # 27     ecut=    60.00 Ry     beta= 0.01
     Davidson diagonalization with overlap
     c_bands:  2 eigenvalues not converged
     c_bands:  2 eigenvalues not converged
     ethr =  1.00E-02,  avg # of iterations =  7.5

     negative rho (up,down):  0.000E+00 4.453E-02

     total cpu time spent up to now is      313.2 secs

     total energy              =       6.47441816 Ry
     estimated scf accuracy    <   11521.30479637 Ry

     total magnetization       =    -3.00 Bohr mag/cell
     absolute magnetization    =     3.00 Bohr mag/cell

     iteration # 28     ecut=    60.00 Ry     beta= 0.01
     Davidson diagonalization with overlap
     ethr =  1.00E-02,  avg # of iterations =  6.9

     negative rho (up,down):  0.000E+00 4.454E-02

     total cpu time spent up to now is      323.0 secs

     total energy              =     -20.08233058 Ry
     estimated scf accuracy    <   18863.77621671 Ry

     total magnetization       =    -3.00 Bohr mag/cell
     absolute magnetization    =     3.00 Bohr mag/cell

     iteration # 29     ecut=    60.00 Ry     beta= 0.01
     Davidson diagonalization with overlap
     ethr =  1.00E-02,  avg # of iterations =  2.1

     negative rho (up,down):  0.000E+00 4.904E-02

     total cpu time spent up to now is      327.6 secs

     total energy              =     -56.52400703 Ry
     estimated scf accuracy    <   21095.79292788 Ry

     total magnetization       =    -3.00 Bohr mag/cell
     absolute magnetization    =     3.00 Bohr mag/cell

     iteration # 30     ecut=    60.00 Ry     beta= 0.01
     Davidson diagonalization with overlap
     c_bands:  1 eigenvalues not converged
     ethr =  1.00E-02,  avg # of iterations =  5.3

     negative rho (up,down):  0.000E+00 6.446E-02

     total cpu time spent up to now is      334.8 secs

     total energy              =      87.14380293 Ry
     estimated scf accuracy    <   76051.07292273 Ry

     total magnetization       =    -3.00 Bohr mag/cell
     absolute magnetization    =     3.00 Bohr mag/cell

     iteration # 31     ecut=    60.00 Ry     beta= 0.01
     Davidson diagonalization with overlap
     ethr =  1.00E-02,  avg # of iterations =  5.9

     negative rho (up,down):  0.000E+00 6.489E-02

     total cpu time spent up to now is      345.1 secs

     total energy              =      -3.22979382 Ry
     estimated scf accuracy    <      90.29691423 Ry

     total magnetization       =     1.49 Bohr mag/cell
     absolute magnetization    =     1.49 Bohr mag/cell

     iteration # 32     ecut=    60.00 Ry     beta= 0.01
     Davidson diagonalization with overlap
     ethr =  1.00E-02,  avg # of iterations =  1.8

     negative rho (up,down):  0.000E+00 6.087E-02

     total cpu time spent up to now is      348.7 secs

     total energy              =      -3.21859203 Ry
     estimated scf accuracy    <      92.74840729 Ry

     total magnetization       =     1.48 Bohr mag/cell
     absolute magnetization    =     1.48 Bohr mag/cell

     iteration # 33     ecut=    60.00 Ry     beta= 0.01
     Davidson diagonalization with overlap
     ethr =  1.00E-02,  avg # of iterations =  2.0

     negative rho (up,down):  0.000E+00 4.894E-02

     total cpu time spent up to now is      352.7 secs

     total energy              =      -2.75445557 Ry
     estimated scf accuracy    <      85.02036076 Ry

     total magnetization       =     1.46 Bohr mag/cell
     absolute magnetization    =     1.46 Bohr mag/cell

     iteration # 34     ecut=    60.00 Ry     beta= 0.01
     Davidson diagonalization with overlap
     ethr =  1.00E-02,  avg # of iterations =  1.5

     negative rho (up,down):  0.000E+00 3.017E-02

     total cpu time spent up to now is      358.1 secs

     total energy              =      -3.06199879 Ry
     estimated scf accuracy    <      58.76066135 Ry

     total magnetization       =     1.41 Bohr mag/cell
     absolute magnetization    =     1.41 Bohr mag/cell

     iteration # 35     ecut=    60.00 Ry     beta= 0.01
     Davidson diagonalization with overlap
     ethr =  1.00E-02,  avg # of iterations =  2.0

     negative rho (up,down):  0.000E+00 1.804E-02

     total cpu time spent up to now is      362.9 secs

     total energy              =      -3.18436950 Ry
     estimated scf accuracy    <      25.11440768 Ry

     total magnetization       =     1.30 Bohr mag/cell
     absolute magnetization    =     1.31 Bohr mag/cell

     iteration # 36     ecut=    60.00 Ry     beta= 0.01
     Davidson diagonalization with overlap
     ethr =  1.00E-02,  avg # of iterations =  1.9

     negative rho (up,down):  0.000E+00 1.716E-02

     total cpu time spent up to now is      368.1 secs

     total energy              =      -3.51463857 Ry
     estimated scf accuracy    <       7.99351216 Ry

     total magnetization       =     1.02 Bohr mag/cell
     absolute magnetization    =     1.03 Bohr mag/cell

     iteration # 37     ecut=    60.00 Ry     beta= 0.01
     Davidson diagonalization with overlap
     ethr =  1.00E-02,  avg # of iterations =  1.5

     negative rho (up,down):  0.000E+00 5.181E-03

     total cpu time spent up to now is      373.1 secs

     total energy              =      -3.19005414 Ry
     estimated scf accuracy    <      10.21900129 Ry

     total magnetization       =     1.10 Bohr mag/cell
     absolute magnetization    =     1.10 Bohr mag/cell

     iteration # 38     ecut=    60.00 Ry     beta= 0.01
     Davidson diagonalization with overlap
     c_bands:  3 eigenvalues not converged
     c_bands:  4 eigenvalues not converged
     c_bands:  5 eigenvalues not converged
     c_bands:  5 eigenvalues not converged
     c_bands:  5 eigenvalues not converged
     c_bands:  2 eigenvalues not converged
     c_bands:  4 eigenvalues not converged
     c_bands:  2 eigenvalues not converged
     c_bands:  4 eigenvalues not converged
     c_bands:  1 eigenvalues not converged
     c_bands:  2 eigenvalues not converged
     c_bands:  3 eigenvalues not converged
     c_bands:  3 eigenvalues not converged
     c_bands:  2 eigenvalues not converged
     c_bands:  1 eigenvalues not converged
     c_bands:  3 eigenvalues not converged
     c_bands:  5 eigenvalues not converged
     c_bands:  5 eigenvalues not converged
     c_bands:  1 eigenvalues not converged
     c_bands:  4 eigenvalues not converged
     c_bands:  1 eigenvalues not converged
     c_bands:  2 eigenvalues not converged
     c_bands:  4 eigenvalues not converged
     c_bands:  5 eigenvalues not converged
     c_bands:  1 eigenvalues not converged
     c_bands:  2 eigenvalues not converged
     ethr =  1.00E-02,  avg # of iterations =  9.6

     negative rho (up,down):  0.000E+00 3.695E-03

     total cpu time spent up to now is      387.4 secs

     total energy              =      30.87133467 Ry
     estimated scf accuracy    <   11608.74023060 Ry

     total magnetization       =    -3.00 Bohr mag/cell
     absolute magnetization    =     3.00 Bohr mag/cell

     iteration # 39     ecut=    60.00 Ry     beta= 0.01
     Davidson diagonalization with overlap
     c_bands:  4 eigenvalues not converged
     c_bands:  1 eigenvalues not converged
     c_bands:  1 eigenvalues not converged
     c_bands:  3 eigenvalues not converged
     c_bands:  3 eigenvalues not converged
     c_bands:  2 eigenvalues not converged
     c_bands:  3 eigenvalues not converged
     c_bands:  2 eigenvalues not converged
     c_bands:  1 eigenvalues not converged
     c_bands:  3 eigenvalues not converged
     c_bands:  1 eigenvalues not converged
     c_bands:  3 eigenvalues not converged
     c_bands:  1 eigenvalues not converged
     c_bands:  1 eigenvalues not converged
     ethr =  1.00E-02,  avg # of iterations =  9.3

     negative rho (up,down):  0.000E+00 3.787E-03

     total cpu time spent up to now is      401.9 secs

     total energy              =      15.96904536 Ry
     estimated scf accuracy    <   65359.20929459 Ry

     total magnetization       =    -3.00 Bohr mag/cell
     absolute magnetization    =     3.00 Bohr mag/cell

     iteration # 40     ecut=    60.00 Ry     beta= 0.01
     Davidson diagonalization with overlap
     ethr =  1.00E-02,  avg # of iterations =  6.2

     negative rho (up,down):  0.000E+00 1.257E-02

     total cpu time spent up to now is      409.9 secs

     total energy              =      11.52090552 Ry
     estimated scf accuracy    <     852.18527260 Ry

     total magnetization       =    -1.97 Bohr mag/cell
     absolute magnetization    =     1.98 Bohr mag/cell

     iteration # 41     ecut=    60.00 Ry     beta= 0.01
     Davidson diagonalization with overlap
     ethr =  1.00E-02,  avg # of iterations =  3.7

     negative rho (up,down):  0.000E+00 1.224E-02

     total cpu time spent up to now is      415.2 secs

     total energy              =      -3.35010366 Ry
     estimated scf accuracy    <       5.53909279 Ry

     total magnetization       =     1.17 Bohr mag/cell
     absolute magnetization    =     1.17 Bohr mag/cell

     iteration # 42     ecut=    60.00 Ry     beta= 0.01
     Davidson diagonalization with overlap
     ethr =  1.00E-02,  avg # of iterations =  1.3

     negative rho (up,down):  0.000E+00 7.935E-03

     total cpu time spent up to now is      418.3 secs

     total energy              =      -3.51024598 Ry
     estimated scf accuracy    <       4.93111977 Ry

     total magnetization       =     1.15 Bohr mag/cell
     absolute magnetization    =     1.15 Bohr mag/cell

     iteration # 43     ecut=    60.00 Ry     beta= 0.01
     Davidson diagonalization with overlap
     ethr =  1.00E-02,  avg # of iterations =  1.6

     negative rho (up,down):  0.000E+00 9.078E-04

     total cpu time spent up to now is      421.4 secs

     total energy              =      -3.64066836 Ry
     estimated scf accuracy    <       3.71980263 Ry

     total magnetization       =     1.22 Bohr mag/cell
     absolute magnetization    =     1.22 Bohr mag/cell

     iteration # 44     ecut=    60.00 Ry     beta= 0.01
     Davidson diagonalization with overlap
     ethr =  1.00E-02,  avg # of iterations =  2.4

     negative rho (up,down):  0.000E+00 6.665E-04

     total cpu time spent up to now is      425.3 secs

     total energy              =      -3.70869736 Ry
     estimated scf accuracy    <       0.05025359 Ry

     total magnetization       =     1.03 Bohr mag/cell
     absolute magnetization    =     1.03 Bohr mag/cell

     iteration # 45     ecut=    60.00 Ry     beta= 0.01
     Davidson diagonalization with overlap
     ethr =  1.68E-03,  avg # of iterations =  8.2

     negative rho (up,down):  0.000E+00 6.592E-05

     total cpu time spent up to now is      434.7 secs

     total energy              =      31.90279245 Ry
     estimated scf accuracy    <    3833.69717927 Ry

     total magnetization       =    -2.43 Bohr mag/cell
     absolute magnetization    =     2.49 Bohr mag/cell

     iteration # 46     ecut=    60.00 Ry     beta= 0.01
     Davidson diagonalization with overlap
     ethr =  1.68E-03,  avg # of iterations =  5.5

     negative rho (up,down):  0.000E+00 2.778E-03

     total cpu time spent up to now is      441.3 secs

     total energy              =      -3.10094711 Ry
     estimated scf accuracy    <       0.21521064 Ry

     total magnetization       =     0.78 Bohr mag/cell
     absolute magnetization    =     0.78 Bohr mag/cell

     iteration # 47     ecut=    60.00 Ry     beta= 0.01
     Davidson diagonalization with overlap
     ethr =  1.68E-03,  avg # of iterations =  3.7

     negative rho (up,down):  0.000E+00 9.331E-03

     total cpu time spent up to now is      446.5 secs

     total energy              =      -3.41103584 Ry
     estimated scf accuracy    <       0.99170790 Ry

     total magnetization       =     1.20 Bohr mag/cell
     absolute magnetization    =     1.21 Bohr mag/cell

     iteration # 48     ecut=    60.00 Ry     beta= 0.01
     Davidson diagonalization with overlap
     ethr =  1.68E-03,  avg # of iterations =  1.8

     negative rho (up,down):  0.000E+00 1.543E-04

     total cpu time spent up to now is      450.0 secs

     total energy              =      -3.72652330 Ry
     estimated scf accuracy    <       5.38660344 Ry

     total magnetization       =     1.28 Bohr mag/cell
     absolute magnetization    =     1.28 Bohr mag/cell

     iteration # 49     ecut=    60.00 Ry     beta= 0.01
     Davidson diagonalization with overlap
     ethr =  1.68E-03,  avg # of iterations =  2.4

     negative rho (up,down):  0.000E+00 2.976E-03

     total cpu time spent up to now is      454.0 secs

     total energy              =      -3.42372735 Ry
     estimated scf accuracy    <       0.02933956 Ry

     total magnetization       =     1.04 Bohr mag/cell
     absolute magnetization    =     1.05 Bohr mag/cell

     iteration # 50     ecut=    60.00 Ry     beta= 0.01
     Davidson diagonalization with overlap
     ethr =  9.78E-04,  avg # of iterations =  2.7

     negative rho (up,down):  0.000E+00 7.767E-03

     total cpu time spent up to now is      458.4 secs

     total energy              =      -3.59284862 Ry
     estimated scf accuracy    <       0.16422703 Ry

     total magnetization       =     1.13 Bohr mag/cell
     absolute magnetization    =     1.14 Bohr mag/cell

     iteration # 51     ecut=    60.00 Ry     beta= 0.01
     Davidson diagonalization with overlap
     ethr =  9.78E-04,  avg # of iterations =  2.3

     negative rho (up,down):  0.000E+00 7.833E-03

     total cpu time spent up to now is      462.5 secs

     total energy              =      -4.07105156 Ry
     estimated scf accuracy    <       1.06196080 Ry

     total magnetization       =     0.94 Bohr mag/cell
     absolute magnetization    =     0.97 Bohr mag/cell

     iteration # 52     ecut=    60.00 Ry     beta= 0.01
     Davidson diagonalization with overlap
     c_bands:  5 eigenvalues not converged
     c_bands:  4 eigenvalues not converged
     c_bands:  2 eigenvalues not converged
     c_bands:  2 eigenvalues not converged
     c_bands:  5 eigenvalues not converged
     c_bands:  5 eigenvalues not converged
     c_bands:  5 eigenvalues not converged
     c_bands:  1 eigenvalues not converged
     c_bands:  2 eigenvalues not converged
     c_bands:  4 eigenvalues not converged
     c_bands:  5 eigenvalues not converged
     c_bands:  5 eigenvalues not converged
     c_bands:  2 eigenvalues not converged
     c_bands:  4 eigenvalues not converged
     c_bands:  1 eigenvalues not converged
     c_bands:  5 eigenvalues not converged
     c_bands:  5 eigenvalues not converged
     c_bands:  4 eigenvalues not converged
     c_bands:  5 eigenvalues not converged
     c_bands:  4 eigenvalues not converged
     c_bands:  5 eigenvalues not converged
     c_bands:  5 eigenvalues not converged
     c_bands:  4 eigenvalues not converged
     c_bands:  4 eigenvalues not converged
     c_bands:  5 eigenvalues not converged
     c_bands:  1 eigenvalues not converged
     c_bands:  4 eigenvalues not converged
     c_bands:  4 eigenvalues not converged
     c_bands:  5 eigenvalues not converged
     c_bands:  5 eigenvalues not converged
     c_bands:  5 eigenvalues not converged
     c_bands:  5 eigenvalues not converged
     c_bands:  5 eigenvalues not converged
     c_bands:  5 eigenvalues not converged
     c_bands:  4 eigenvalues not converged
     ethr =  9.78E-04,  avg # of iterations = 26.0

     negative rho (up,down):  0.000E+00 8.186E-03

     total cpu time spent up to now is      494.3 secs

     total energy              =     107.32769610 Ry
     estimated scf accuracy    <  135316.60900035 Ry

     total magnetization       =    -3.00 Bohr mag/cell
     absolute magnetization    =     3.00 Bohr mag/cell

     iteration # 53     ecut=    60.00 Ry     beta= 0.01
     Davidson diagonalization with overlap
     ethr =  9.78E-04,  avg # of iterations =  7.4

     negative rho (up,down):  0.000E+00 4.804E-03

     total cpu time spent up to now is      502.9 secs

     total energy              =      -2.93526096 Ry
     estimated scf accuracy    <       0.24422163 Ry

     total magnetization       =     0.61 Bohr mag/cell
     absolute magnetization    =     0.89 Bohr mag/cell

     iteration # 54     ecut=    60.00 Ry     beta= 0.01
     Davidson diagonalization with overlap
     c_bands:  4 eigenvalues not converged
     c_bands:  2 eigenvalues not converged
     c_bands:  2 eigenvalues not converged
     c_bands:  1 eigenvalues not converged
     c_bands:  1 eigenvalues not converged
     c_bands:  2 eigenvalues not converged
     c_bands:  3 eigenvalues not converged
     c_bands:  1 eigenvalues not converged
     c_bands:  1 eigenvalues not converged
     c_bands:  1 eigenvalues not converged
     c_bands:  2 eigenvalues not converged
     c_bands:  1 eigenvalues not converged
     c_bands:  1 eigenvalues not converged
     c_bands:  1 eigenvalues not converged
     c_bands:  2 eigenvalues not converged
     c_bands:  5 eigenvalues not converged
     c_bands:  3 eigenvalues not converged
     c_bands:  1 eigenvalues not converged
     c_bands:  3 eigenvalues not converged
     c_bands:  3 eigenvalues not converged
     c_bands:  1 eigenvalues not converged
     c_bands:  4 eigenvalues not converged
     c_bands:  4 eigenvalues not converged
     c_bands:  4 eigenvalues not converged
     c_bands:  3 eigenvalues not converged
     c_bands:  4 eigenvalues not converged
     c_bands:  4 eigenvalues not converged
     c_bands:  3 eigenvalues not converged
     ethr =  9.78E-04,  avg # of iterations = 10.4

     negative rho (up,down):  0.000E+00 5.125E-03

     total cpu time spent up to now is      515.6 secs

     total energy              =     -35.40693914 Ry
     estimated scf accuracy    <   68748.21096061 Ry

     total magnetization       =    -3.00 Bohr mag/cell
     absolute magnetization    =     3.00 Bohr mag/cell

     iteration # 55     ecut=    60.00 Ry     beta= 0.01
     Davidson diagonalization with overlap
     c_bands:  5 eigenvalues not converged
     c_bands:  4 eigenvalues not converged
     c_bands:  5 eigenvalues not converged
     c_bands:  5 eigenvalues not converged
     c_bands:  4 eigenvalues not converged
     c_bands:  5 eigenvalues not converged
     c_bands:  4 eigenvalues not converged
     c_bands:  5 eigenvalues not converged
     c_bands:  4 eigenvalues not converged
     c_bands:  4 eigenvalues not converged
     c_bands:  5 eigenvalues not converged
     c_bands:  4 eigenvalues not converged
     c_bands:  2 eigenvalues not converged
     c_bands:  5 eigenvalues not converged
     c_bands:  4 eigenvalues not converged
     c_bands:  3 eigenvalues not converged
     c_bands:  1 eigenvalues not converged
     c_bands:  2 eigenvalues not converged
     c_bands:  5 eigenvalues not converged
     c_bands:  1 eigenvalues not converged
     c_bands:  1 eigenvalues not converged
     ethr =  9.78E-04,  avg # of iterations = 16.4

     negative rho (up,down):  0.000E+00 2.912E-03

     total cpu time spent up to now is      534.7 secs

     total energy              =      70.79723208 Ry
     estimated scf accuracy    <   89165.07329089 Ry

     total magnetization       =    -3.00 Bohr mag/cell
     absolute magnetization    =     3.00 Bohr mag/cell

     iteration # 56     ecut=    60.00 Ry     beta= 0.01
     Davidson diagonalization with overlap
     c_bands:  5 eigenvalues not converged
     c_bands:  5 eigenvalues not converged
     c_bands:  5 eigenvalues not converged
     c_bands:  5 eigenvalues not converged
     c_bands:  5 eigenvalues not converged
     c_bands:  4 eigenvalues not converged
     c_bands:  4 eigenvalues not converged
     c_bands:  5 eigenvalues not converged
     c_bands:  4 eigenvalues not converged
     c_bands:  4 eigenvalues not converged
     c_bands:  5 eigenvalues not converged
     c_bands:  5 eigenvalues not converged
     c_bands:  1 eigenvalues not converged
     c_bands:  5 eigenvalues not converged
     c_bands:  5 eigenvalues not converged
     ethr =  9.78E-04,  avg # of iterations = 15.4

     negative rho (up,down):  0.000E+00 1.882E-03

     total cpu time spent up to now is      553.2 secs

     total energy              =      31.19350030 Ry
     estimated scf accuracy    <   13708.28074784 Ry

     total magnetization       =    -3.00 Bohr mag/cell
     absolute magnetization    =     3.00 Bohr mag/cell

     iteration # 57     ecut=    60.00 Ry     beta= 0.01
     Davidson diagonalization with overlap
     c_bands:  1 eigenvalues not converged
     ethr =  9.78E-04,  avg # of iterations =  6.1

     negative rho (up,down):  0.000E+00 1.968E-03

     total cpu time spent up to now is      560.4 secs

     total energy              =      -2.91668228 Ry
     estimated scf accuracy    <       0.00124167 Ry

     total magnetization       =     0.92 Bohr mag/cell
     absolute magnetization    =     0.92 Bohr mag/cell

     iteration # 58     ecut=    60.00 Ry     beta= 0.01
     Davidson diagonalization with overlap
     c_bands:  4 eigenvalues not converged
     c_bands:  5 eigenvalues not converged
     c_bands:  5 eigenvalues not converged
     c_bands:  5 eigenvalues not converged
     c_bands:  5 eigenvalues not converged
     c_bands:  3 eigenvalues not converged
     c_bands:  5 eigenvalues not converged
     c_bands:  4 eigenvalues not converged
     c_bands:  4 eigenvalues not converged
     c_bands:  5 eigenvalues not converged
     c_bands:  4 eigenvalues not converged
     c_bands:  5 eigenvalues not converged
     c_bands:  5 eigenvalues not converged
     c_bands:  5 eigenvalues not converged
     c_bands:  4 eigenvalues not converged
     c_bands:  4 eigenvalues not converged
     c_bands:  4 eigenvalues not converged
     c_bands:  5 eigenvalues not converged
     c_bands:  5 eigenvalues not converged
     c_bands:  4 eigenvalues not converged
     c_bands:  4 eigenvalues not converged
     c_bands:  3 eigenvalues not converged
     c_bands:  4 eigenvalues not converged
     c_bands:  5 eigenvalues not converged
     c_bands:  5 eigenvalues not converged
     c_bands:  4 eigenvalues not converged
     c_bands:  4 eigenvalues not converged
     c_bands:  5 eigenvalues not converged
     c_bands:  5 eigenvalues not converged
     c_bands:  2 eigenvalues not converged
     c_bands:  5 eigenvalues not converged
     c_bands:  5 eigenvalues not converged
     c_bands:  5 eigenvalues not converged
     c_bands:  5 eigenvalues not converged
     c_bands:  5 eigenvalues not converged
     c_bands:  5 eigenvalues not converged
     c_bands:  5 eigenvalues not converged
     c_bands:  5 eigenvalues not converged
     c_bands:  4 eigenvalues not converged
     c_bands:  5 eigenvalues not converged
     c_bands:  5 eigenvalues not converged
     c_bands:  5 eigenvalues not converged
     c_bands:  4 eigenvalues not converged
     c_bands:  5 eigenvalues not converged
     c_bands:  5 eigenvalues not converged
     c_bands:  5 eigenvalues not converged
     ethr =  4.14E-05,  avg # of iterations = 11.4

     negative rho (up,down):  0.000E+00 1.891E-03

     total cpu time spent up to now is      572.4 secs

     total energy              =      -1.13482054 Ry
     estimated scf accuracy    <     272.71903596 Ry

     total magnetization       =    -0.06 Bohr mag/cell
     absolute magnetization    =     1.74 Bohr mag/cell

     iteration # 59     ecut=    60.00 Ry     beta= 0.01
     Davidson diagonalization with overlap
     c_bands:  4 eigenvalues not converged
     c_bands:  5 eigenvalues not converged
     c_bands:  1 eigenvalues not converged
     c_bands:  1 eigenvalues not converged
     c_bands:  1 eigenvalues not converged
     c_bands:  4 eigenvalues not converged
     c_bands:  1 eigenvalues not converged
     c_bands:  1 eigenvalues not converged
     c_bands:  3 eigenvalues not converged
     ethr =  4.14E-05,  avg # of iterations =  9.6

     negative rho (up,down):  0.000E+00 7.307E-03

     total cpu time spent up to now is      581.6 secs

     total energy              =     131.94059441 Ry
     estimated scf accuracy    <  103164.79896221 Ry

     total magnetization       =    -3.00 Bohr mag/cell
     absolute magnetization    =     3.00 Bohr mag/cell

     iteration # 60     ecut=    60.00 Ry     beta= 0.01
     Davidson diagonalization with overlap
     c_bands:  5 eigenvalues not converged
     c_bands:  5 eigenvalues not converged
     c_bands:  4 eigenvalues not converged
     c_bands:  4 eigenvalues not converged
     c_bands:  2 eigenvalues not converged
     c_bands:  1 eigenvalues not converged
     c_bands:  4 eigenvalues not converged
     c_bands:  2 eigenvalues not converged
     c_bands:  4 eigenvalues not converged
     c_bands:  1 eigenvalues not converged
     c_bands:  1 eigenvalues not converged
     c_bands:  1 eigenvalues not converged
     c_bands:  1 eigenvalues not converged
     c_bands:  1 eigenvalues not converged
     c_bands:  1 eigenvalues not converged
     c_bands:  1 eigenvalues not converged
     c_bands:  1 eigenvalues not converged
     c_bands:  1 eigenvalues not converged
     c_bands:  1 eigenvalues not converged
     c_bands:  1 eigenvalues not converged
     ethr =  4.14E-05,  avg # of iterations = 10.6

     negative rho (up,down):  0.000E+00 7.799E-03

     total cpu time spent up to now is      594.0 secs

     total energy              =      -3.61421305 Ry
     estimated scf accuracy    <       0.54760916 Ry

     total magnetization       =     0.87 Bohr mag/cell
     absolute magnetization    =     0.91 Bohr mag/cell

     iteration # 61     ecut=    60.00 Ry     beta= 0.01
     Davidson diagonalization with overlap
     c_bands:  1 eigenvalues not converged
     ethr =  4.14E-05,  avg # of iterations =  4.9

     negative rho (up,down):  0.000E+00 4.809E-03

     total cpu time spent up to now is      599.5 secs

     total energy              =      -3.83253528 Ry
     estimated scf accuracy    <       1.04696503 Ry

     total magnetization       =     0.93 Bohr mag/cell
     absolute magnetization    =     0.97 Bohr mag/cell

     iteration # 62     ecut=    60.00 Ry     beta= 0.01
     Davidson diagonalization with overlap
     c_bands:  3 eigenvalues not converged
     c_bands:  4 eigenvalues not converged
     c_bands:  4 eigenvalues not converged
     c_bands:  5 eigenvalues not converged
     c_bands:  4 eigenvalues not converged
     c_bands:  4 eigenvalues not converged
     c_bands:  5 eigenvalues not converged
     c_bands:  5 eigenvalues not converged
     c_bands:  5 eigenvalues not converged
     c_bands:  4 eigenvalues not converged
     c_bands:  5 eigenvalues not converged
     c_bands:  5 eigenvalues not converged
     c_bands:  5 eigenvalues not converged
     c_bands:  4 eigenvalues not converged
     c_bands:  5 eigenvalues not converged
     c_bands:  4 eigenvalues not converged
     c_bands:  4 eigenvalues not converged
     c_bands:  1 eigenvalues not converged
     c_bands:  4 eigenvalues not converged
     c_bands:  5 eigenvalues not converged
     c_bands:  4 eigenvalues not converged
     c_bands:  5 eigenvalues not converged
     c_bands:  5 eigenvalues not converged
     c_bands:  4 eigenvalues not converged
     c_bands:  5 eigenvalues not converged
     c_bands:  5 eigenvalues not converged
     c_bands:  5 eigenvalues not converged
     c_bands:  5 eigenvalues not converged
     c_bands:  5 eigenvalues not converged
     c_bands:  5 eigenvalues not converged
     c_bands:  3 eigenvalues not converged
     c_bands:  5 eigenvalues not converged
     c_bands:  5 eigenvalues not converged
     c_bands:  5 eigenvalues not converged
     c_bands:  5 eigenvalues not converged
     c_bands:  3 eigenvalues not converged
     c_bands:  5 eigenvalues not converged
     c_bands:  5 eigenvalues not converged
     c_bands:  5 eigenvalues not converged
     c_bands:  5 eigenvalues not converged
     c_bands:  4 eigenvalues not converged
     c_bands:  5 eigenvalues not converged
     c_bands:  5 eigenvalues not converged
     c_bands:  5 eigenvalues not converged
     c_bands:  4 eigenvalues not converged
     c_bands:  5 eigenvalues not converged
     c_bands:  5 eigenvalues not converged
     ethr =  4.14E-05,  avg # of iterations = 33.0

     negative rho (up,down):  0.000E+00 5.170E-03

     total cpu time spent up to now is      640.0 secs

     total energy              =      71.26697340 Ry
     estimated scf accuracy    <   89021.40803720 Ry

     total magnetization       =    -3.00 Bohr mag/cell
     absolute magnetization    =     3.00 Bohr mag/cell

     iteration # 63     ecut=    60.00 Ry     beta= 0.01
     Davidson diagonalization with overlap
     c_bands:  5 eigenvalues not converged
     c_bands:  4 eigenvalues not converged
     c_bands:  5 eigenvalues not converged
     c_bands:  5 eigenvalues not converged
     c_bands:  2 eigenvalues not converged
     c_bands:  4 eigenvalues not converged
     c_bands:  5 eigenvalues not converged
     c_bands:  4 eigenvalues not converged
     c_bands:  5 eigenvalues not converged
     c_bands:  4 eigenvalues not converged
     c_bands:  5 eigenvalues not converged
     c_bands:  4 eigenvalues not converged
     c_bands:  5 eigenvalues not converged
     c_bands:  5 eigenvalues not converged
     c_bands:  3 eigenvalues not converged
     c_bands:  4 eigenvalues not converged
     c_bands:  5 eigenvalues not converged
     c_bands:  4 eigenvalues not converged
     c_bands:  5 eigenvalues not converged
     c_bands:  2 eigenvalues not converged
     c_bands:  1 eigenvalues not converged
     c_bands:  5 eigenvalues not converged
     c_bands:  3 eigenvalues not converged
     c_bands:  4 eigenvalues not converged
     c_bands:  2 eigenvalues not converged
     c_bands:  3 eigenvalues not converged
     c_bands:  4 eigenvalues not converged
     c_bands:  1 eigenvalues not converged
     c_bands:  5 eigenvalues not converged
     c_bands:  4 eigenvalues not converged
     c_bands:  3 eigenvalues not converged
     c_bands:  5 eigenvalues not converged
     c_bands:  4 eigenvalues not converged
     ethr =  4.14E-05,  avg # of iterations = 12.4

     negative rho (up,down):  0.000E+00 5.597E-03

     total cpu time spent up to now is      655.5 secs

     total energy              =    -107.73524125 Ry
     estimated scf accuracy    <   22815.93530603 Ry

     total magnetization       =    -3.00 Bohr mag/cell
     absolute magnetization    =     3.00 Bohr mag/cell

     iteration # 64     ecut=    60.00 Ry     beta= 0.01
     Davidson diagonalization with overlap
     c_bands:  4 eigenvalues not converged
     c_bands:  5 eigenvalues not converged
     c_bands:  5 eigenvalues not converged
     c_bands:  3 eigenvalues not converged
     c_bands:  4 eigenvalues not converged
     c_bands:  5 eigenvalues not converged
     c_bands:  5 eigenvalues not converged
     c_bands:  4 eigenvalues not converged
     c_bands:  4 eigenvalues not converged
     c_bands:  5 eigenvalues not converged
     c_bands:  5 eigenvalues not converged
     c_bands:  5 eigenvalues not converged
     c_bands:  5 eigenvalues not converged
     c_bands:  5 eigenvalues not converged
     c_bands:  5 eigenvalues not converged
     c_bands:  4 eigenvalues not converged
     c_bands:  5 eigenvalues not converged
     c_bands:  5 eigenvalues not converged
     c_bands:  4 eigenvalues not converged
     c_bands:  3 eigenvalues not converged
     c_bands:  5 eigenvalues not converged
     c_bands:  5 eigenvalues not converged
     c_bands:  5 eigenvalues not converged
     c_bands:  5 eigenvalues not converged
     c_bands:  5 eigenvalues not converged
     c_bands:  1 eigenvalues not converged
     c_bands:  5 eigenvalues not converged
     c_bands:  5 eigenvalues not converged
     c_bands:  5 eigenvalues not converged
     c_bands:  4 eigenvalues not converged
     c_bands:  5 eigenvalues not converged
     c_bands:  5 eigenvalues not converged
     c_bands:  5 eigenvalues not converged
     c_bands:  5 eigenvalues not converged
     c_bands:  3 eigenvalues not converged
     c_bands:  4 eigenvalues not converged
     ethr =  4.14E-05,  avg # of iterations = 11.3

     negative rho (up,down):  0.000E+00 5.774E-03

     total cpu time spent up to now is      666.0 secs

     total energy              =   -1267.79487716 Ry
     estimated scf accuracy    <   57597.96632099 Ry

     total magnetization       =    -3.00 Bohr mag/cell
     absolute magnetization    =     3.00 Bohr mag/cell

     iteration # 65     ecut=    60.00 Ry     beta= 0.01
     Davidson diagonalization with overlap
     c_bands:  4 eigenvalues not converged
     c_bands:  5 eigenvalues not converged
     c_bands:  5 eigenvalues not converged
     c_bands:  5 eigenvalues not converged
     c_bands:  4 eigenvalues not converged
     c_bands:  4 eigenvalues not converged
     c_bands:  4 eigenvalues not converged
     c_bands:  1 eigenvalues not converged
     c_bands:  5 eigenvalues not converged
     c_bands:  4 eigenvalues not converged
     c_bands:  2 eigenvalues not converged
     c_bands:  4 eigenvalues not converged
     c_bands:  4 eigenvalues not converged
     c_bands:  4 eigenvalues not converged
     c_bands:  5 eigenvalues not converged
     c_bands:  5 eigenvalues not converged
     c_bands:  5 eigenvalues not converged
     c_bands:  4 eigenvalues not converged
     c_bands:  5 eigenvalues not converged
     c_bands:  5 eigenvalues not converged
     c_bands:  5 eigenvalues not converged
     c_bands:  4 eigenvalues not converged
     c_bands:  4 eigenvalues not converged
     c_bands:  5 eigenvalues not converged
     c_bands:  5 eigenvalues not converged
     c_bands:  4 eigenvalues not converged
     c_bands:  1 eigenvalues not converged
     c_bands:  3 eigenvalues not converged
     c_bands:  4 eigenvalues not converged
     c_bands:  5 eigenvalues not converged
     c_bands:  4 eigenvalues not converged
     c_bands:  5 eigenvalues not converged
     c_bands:  4 eigenvalues not converged
     c_bands:  3 eigenvalues not converged
     c_bands:  4 eigenvalues not converged
     c_bands:  4 eigenvalues not converged
     c_bands:  3 eigenvalues not converged
     c_bands:  5 eigenvalues not converged
     c_bands:  5 eigenvalues not converged
     ethr =  4.14E-05,  avg # of iterations = 23.2

     negative rho (up,down):  0.000E+00 5.421E-03

     total cpu time spent up to now is      681.0 secs

     total energy              =      -2.68206889 Ry
     estimated scf accuracy    <  101592.16208373 Ry

     total magnetization       =    -3.00 Bohr mag/cell
     absolute magnetization    =     3.00 Bohr mag/cell

     iteration # 66     ecut=    60.00 Ry     beta= 0.01
     Davidson diagonalization with overlap
     c_bands:  5 eigenvalues not converged
     c_bands:  5 eigenvalues not converged
     c_bands:  5 eigenvalues not converged
     c_bands:  5 eigenvalues not converged
     c_bands:  4 eigenvalues not converged
     c_bands:  5 eigenvalues not converged
     c_bands:  5 eigenvalues not converged
     c_bands:  5 eigenvalues not converged
     c_bands:  4 eigenvalues not converged
     c_bands:  5 eigenvalues not converged
     c_bands:  5 eigenvalues not converged
     c_bands:  5 eigenvalues not converged
     c_bands:  4 eigenvalues not converged
     c_bands:  5 eigenvalues not converged
     c_bands:  4 eigenvalues not converged
     ethr =  4.14E-05,  avg # of iterations = 14.6

     negative rho (up,down):  0.000E+00 7.945E-03

     total cpu time spent up to now is      690.5 secs

     total energy              =      43.75319413 Ry
     estimated scf accuracy    <   25395.57698733 Ry

     total magnetization       =    -3.00 Bohr mag/cell
     absolute magnetization    =     3.00 Bohr mag/cell

     iteration # 67     ecut=    60.00 Ry     beta= 0.01
     Davidson diagonalization with overlap
     c_bands:  4 eigenvalues not converged
     c_bands:  1 eigenvalues not converged
     c_bands:  3 eigenvalues not converged
     c_bands:  3 eigenvalues not converged
     c_bands:  1 eigenvalues not converged
     c_bands:  5 eigenvalues not converged
     c_bands:  5 eigenvalues not converged
     c_bands:  4 eigenvalues not converged
     c_bands:  4 eigenvalues not converged
     c_bands:  4 eigenvalues not converged
     c_bands:  4 eigenvalues not converged
     c_bands:  4 eigenvalues not converged
     c_bands:  4 eigenvalues not converged
     c_bands:  5 eigenvalues not converged
     c_bands:  4 eigenvalues not converged
     c_bands:  4 eigenvalues not converged
     c_bands:  4 eigenvalues not converged
     c_bands:  4 eigenvalues not converged
     c_bands:  4 eigenvalues not converged
     c_bands:  1 eigenvalues not converged
     c_bands:  5 eigenvalues not converged
     c_bands:  4 eigenvalues not converged
     c_bands:  5 eigenvalues not converged
     c_bands:  4 eigenvalues not converged
     c_bands:  5 eigenvalues not converged
     c_bands:  4 eigenvalues not converged
     c_bands:  5 eigenvalues not converged
     c_bands:  3 eigenvalues not converged
     c_bands:  2 eigenvalues not converged
     c_bands:  5 eigenvalues not converged

 %%%%%%%%%%%%%%%%%%%%%%%%%%%%%%%%%%%%%%%%%%%%%%%%%%%%%%%%%%%%%%%%%%%%%%%%%%%%%%
     Error in routine c_bands (1):
     too many bands are not converged
 %%%%%%%%%%%%%%%%%%%%%%%%%%%%%%%%%%%%%%%%%%%%%%%%%%%%%%%%%%%%%%%%%%%%%%%%%%%%%%

     stopping ...
