
     Program PWSCF v.7.0 starts on 21Mar2023 at 13:11:36 

     This program is part of the open-source Quantum ESPRESSO suite
     for quantum simulation of materials; please cite
         "P. Giannozzi et al., J. Phys.:Condens. Matter 21 395502 (2009);
         "P. Giannozzi et al., J. Phys.:Condens. Matter 29 465901 (2017);
         "P. Giannozzi et al., J. Chem. Phys. 152 154105 (2020);
          URL http://www.quantum-espresso.org", 
     in publications or presentations arising from this work. More details at
     http://www.quantum-espresso.org/quote

     Parallel version (MPI), running on     1 processors

     MPI processes distributed on     1 nodes
     24083 MiB available memory on the printing compute node when the environment starts
 
     Waiting for input...
     Reading input from standard input
Warning: card &CELL ignored
Warning: card / ignored

     Current dimensions of program PWSCF are:
     Max number of different atomic species (ntypx) = 10
     Max number of k-points (npk) =  40000
     Max angular momentum in pseudopotentials (lmaxx) =  4
     file Al.SCAN.UPF2: wavefunction(s)  0D renormalized

     WARNING: the MGGA functional with ID    5 has been 
     read together with other dft terms, but it should 
     stand alone in order to work properly. The other 
     terms will be ignored.

     Subspace diagonalization in iterative solution of the eigenvalue problem:
     a serial algorithm will be used

 
     G-vector sticks info
     --------------------
     sticks:   dense  smooth     PW     G-vecs:    dense   smooth      PW
     Sum        1627    1627    475                43215    43215    6735
 
     Using Slab Decomposition
 


     bravais-lattice index     =            2
     lattice parameter (alat)  =      14.0067  a.u.
     unit-cell volume          =     686.9780 (a.u.)^3
     number of atoms/cell      =            1
     number of atomic types    =            1
     number of electrons       =         3.00
     number of Kohn-Sham states=            6
     kinetic-energy cutoff     =      60.0000  Ry
     charge density cutoff     =     240.0000  Ry
     scf convergence threshold =      1.0E-06
     mixing beta               =       0.0100
     number of iterations used =            8  local-TF  mixing
     Exchange-correlation= SLA  PW   SCAN SCAN
                           (   0   0   0   0   0 263 267)

     celldm(1)=  14.006650  celldm(2)=   0.000000  celldm(3)=   0.000000
     celldm(4)=   0.000000  celldm(5)=   0.000000  celldm(6)=   0.000000

     crystal axes: (cart. coord. in units of alat)
               a(1) = (  -0.500000   0.000000   0.500000 )  
               a(2) = (   0.000000   0.500000   0.500000 )  
               a(3) = (  -0.500000   0.500000   0.000000 )  

     reciprocal axes: (cart. coord. in units 2 pi/alat)
               b(1) = ( -1.000000 -1.000000  1.000000 )  
               b(2) = (  1.000000  1.000000  1.000000 )  
               b(3) = ( -1.000000  1.000000 -1.000000 )  


     PseudoPot. # 1 for Al read from file:
     ~/Documents/TA/PWDFT.jl/pseudopotentials/scan_upf/Al.SCAN.UPF2
     MD5 check sum: Not computed, couldn't open file
     Pseudo is Norm-conserving, Zval =  3.0
     Generated by new atomic code, or converted to UPF format
     Using radial grid of 1467 points,  2 beta functions with: 
                l(1) =   0
                l(2) =   1

     atomic species   valence    mass     pseudopotential
        Al             3.00    26.98154     Al( 1.00)

     48 Sym. Ops., with inversion, found



   Cartesian axes

     site n.     atom                  positions (alat units)
         1           Al  tau(   1) = (   0.0000000   0.0000000   0.0000000  )

     number of k points=    47  Gaussian smearing, width (Ry)=  0.1000
                       cart. coord. in units 2pi/alat
        k(    1) = (   0.0000000   0.0000000   0.0000000), wk =   0.0020000
        k(    2) = (  -0.1000000   0.1000000  -0.1000000), wk =   0.0160000
        k(    3) = (  -0.2000000   0.2000000  -0.2000000), wk =   0.0160000
        k(    4) = (  -0.3000000   0.3000000  -0.3000000), wk =   0.0160000
        k(    5) = (  -0.4000000   0.4000000  -0.4000000), wk =   0.0160000
        k(    6) = (   0.5000000  -0.5000000   0.5000000), wk =   0.0080000
        k(    7) = (   0.0000000   0.2000000   0.0000000), wk =   0.0120000
        k(    8) = (  -0.1000000   0.3000000  -0.1000000), wk =   0.0480000
        k(    9) = (  -0.2000000   0.4000000  -0.2000000), wk =   0.0480000
        k(   10) = (  -0.3000000   0.5000000  -0.3000000), wk =   0.0480000
        k(   11) = (   0.6000000  -0.4000000   0.6000000), wk =   0.0480000
        k(   12) = (   0.5000000  -0.3000000   0.5000000), wk =   0.0480000
        k(   13) = (   0.4000000  -0.2000000   0.4000000), wk =   0.0480000
        k(   14) = (   0.3000000  -0.1000000   0.3000000), wk =   0.0480000
        k(   15) = (   0.2000000   0.0000000   0.2000000), wk =   0.0240000
        k(   16) = (   0.0000000   0.4000000   0.0000000), wk =   0.0120000
        k(   17) = (  -0.1000000   0.5000000  -0.1000000), wk =   0.0480000
        k(   18) = (  -0.2000000   0.6000000  -0.2000000), wk =   0.0480000
        k(   19) = (   0.7000000  -0.3000000   0.7000000), wk =   0.0480000
        k(   20) = (   0.6000000  -0.2000000   0.6000000), wk =   0.0480000
        k(   21) = (   0.5000000  -0.1000000   0.5000000), wk =   0.0480000
        k(   22) = (   0.4000000   0.0000000   0.4000000), wk =   0.0240000
        k(   23) = (   0.0000000   0.6000000   0.0000000), wk =   0.0120000
        k(   24) = (  -0.1000000   0.7000000  -0.1000000), wk =   0.0480000
        k(   25) = (   0.8000000  -0.2000000   0.8000000), wk =   0.0480000
        k(   26) = (   0.7000000  -0.1000000   0.7000000), wk =   0.0480000
        k(   27) = (   0.6000000  -0.0000000   0.6000000), wk =   0.0240000
        k(   28) = (   0.0000000   0.8000000   0.0000000), wk =   0.0120000
        k(   29) = (   0.9000000  -0.1000000   0.9000000), wk =   0.0480000
        k(   30) = (   0.8000000   0.0000000   0.8000000), wk =   0.0240000
        k(   31) = (   0.0000000  -1.0000000   0.0000000), wk =   0.0060000
        k(   32) = (  -0.2000000   0.4000000   0.0000000), wk =   0.0480000
        k(   33) = (  -0.3000000   0.5000000  -0.1000000), wk =   0.0960000
        k(   34) = (   0.6000000  -0.4000000   0.8000000), wk =   0.0960000
        k(   35) = (   0.5000000  -0.3000000   0.7000000), wk =   0.0480000
        k(   36) = (  -0.2000000   0.6000000   0.0000000), wk =   0.0480000
        k(   37) = (   0.7000000  -0.3000000   0.9000000), wk =   0.0960000
        k(   38) = (   0.6000000  -0.2000000   0.8000000), wk =   0.0960000
        k(   39) = (   0.5000000  -0.1000000   0.7000000), wk =   0.0960000
        k(   40) = (   0.4000000   0.0000000   0.6000000), wk =   0.0480000
        k(   41) = (   0.8000000  -0.2000000   1.0000000), wk =   0.0480000
        k(   42) = (   0.7000000  -0.1000000   0.9000000), wk =   0.0960000
        k(   43) = (   0.6000000   0.0000000   0.8000000), wk =   0.0480000
        k(   44) = (  -0.2000000  -1.0000000   0.0000000), wk =   0.0240000
        k(   45) = (   0.6000000  -0.2000000   1.0000000), wk =   0.0480000
        k(   46) = (   0.5000000  -0.1000000   0.9000000), wk =   0.0480000
        k(   47) = (  -0.4000000  -1.0000000   0.0000000), wk =   0.0240000

     Dense  grid:    43215 G-vectors     FFT dimensions: (  50,  50,  50)

     Estimated max dynamical RAM per process >      87.40 MB

     WARNING: libxc functional with ID  263 depends
      on external parameters: check the user_guide of
      QE if you need to modify them or to check their
      default values.

     Initial potential from superposition of free atoms

     starting charge       2.9979, renormalised to       3.0000
     Starting wfcs are    9 randomized atomic wfcs

     total cpu time spent up to now is       21.1 secs

     Self-consistent Calculation

     iteration #  1     ecut=    60.00 Ry     beta= 0.01
     Davidson diagonalization with overlap
     ethr =  1.00E-02,  avg # of iterations =  2.3

     Threshold (ethr) on eigenvalues was too large:
     Diagonalizing with lowered threshold

     Davidson diagonalization with overlap
     ethr =  9.38E-05,  avg # of iterations =  3.4

     total cpu time spent up to now is      108.2 secs

     total energy              =      -3.96466969 Ry
     estimated scf accuracy    <       0.00304592 Ry

     iteration #  2     ecut=    60.00 Ry     beta= 0.01
     Davidson diagonalization with overlap
     ethr =  1.02E-04,  avg # of iterations =  1.0

     total cpu time spent up to now is      143.8 secs

     total energy              =      -3.97574990 Ry
     estimated scf accuracy    <       0.00300233 Ry

     iteration #  3     ecut=    60.00 Ry     beta= 0.01
     Davidson diagonalization with overlap
     ethr =  1.00E-04,  avg # of iterations =  2.1

     total cpu time spent up to now is      191.9 secs

     total energy              =      -3.97718737 Ry
     estimated scf accuracy    <       0.00009870 Ry

     iteration #  4     ecut=    60.00 Ry     beta= 0.01
     Davidson diagonalization with overlap
     ethr =  3.29E-06,  avg # of iterations =  4.4

     total cpu time spent up to now is      248.9 secs

     total energy              =      -3.97706397 Ry
     estimated scf accuracy    <       0.00004848 Ry

     iteration #  5     ecut=    60.00 Ry     beta= 0.01
     Davidson diagonalization with overlap
     ethr =  1.62E-06,  avg # of iterations =  2.3

     total cpu time spent up to now is      292.0 secs

     total energy              =      -3.97718530 Ry
     estimated scf accuracy    <       0.00006353 Ry

     iteration #  6     ecut=    60.00 Ry     beta= 0.01
     Davidson diagonalization with overlap
     ethr =  1.62E-06,  avg # of iterations =  1.9

     total cpu time spent up to now is      320.5 secs

     total energy              =      -3.97718061 Ry
     estimated scf accuracy    <       0.00004272 Ry

     iteration #  7     ecut=    60.00 Ry     beta= 0.01
     Davidson diagonalization with overlap
     ethr =  1.42E-06,  avg # of iterations =  2.0

     total cpu time spent up to now is      347.8 secs

     End of self-consistent calculation

          k = 0.0000 0.0000 0.0000 (  5329 PWs)   bands (ev):

    -6.3075   0.7651   0.7651   0.7651   2.8100   5.1966

          k =-0.1000 0.1000-0.1000 (  5381 PWs)   bands (ev):

    -6.2617   0.3866   0.7335   0.7335   3.1286   4.9661

          k =-0.2000 0.2000-0.2000 (  5396 PWs)   bands (ev):

    -6.1338  -0.3338   0.6563   0.6563   3.4936   4.9276

          k =-0.3000 0.3000-0.3000 (  5381 PWs)   bands (ev):

    -5.9555  -1.0282   0.5700   0.5700   3.4368   5.1879

          k =-0.4000 0.4000-0.4000 (  5393 PWs)   bands (ev):

    -5.7888  -1.5297   0.5065   0.5065   3.2968   4.9646

          k = 0.5000-0.5000 0.5000 (  5396 PWs)   bands (ev):

    -5.7180  -1.7156   0.4835   0.4835   3.2417   4.8807

          k = 0.0000 0.2000 0.0000 (  5385 PWs)   bands (ev):

    -6.2465   0.3964   0.6553   0.6553   3.2480   4.7488

          k =-0.1000 0.3000-0.1000 (  5392 PWs)   bands (ev):

    -6.1458  -0.1448   0.5457   0.5897   3.6443   4.5274

          k =-0.2000 0.4000-0.2000 (  5383 PWs)   bands (ev):

    -5.9832  -0.8081   0.4508   0.4809   3.6993   4.8250

          k =-0.3000 0.5000-0.3000 (  5387 PWs)   bands (ev):

    -5.8092  -1.3536   0.3496   0.4020   3.5740   4.5789

          k = 0.6000-0.4000 0.6000 (  5392 PWs)   bands (ev):

    -5.7018  -1.6389   0.2450   0.4116   3.5166   4.4509

          k = 0.5000-0.3000 0.5000 (  5387 PWs)   bands (ev):

    -5.7256  -1.5777   0.1988   0.4755   3.5571   4.5178

          k = 0.4000-0.2000 0.4000 (  5398 PWs)   bands (ev):

    -5.8649  -1.1916   0.2275   0.5748   3.6816   4.7711

          k = 0.3000-0.1000 0.3000 (  5376 PWs)   bands (ev):

    -6.0427  -0.5991   0.3369   0.6774   3.7899   4.8207

          k = 0.2000 0.0000 0.2000 (  5369 PWs)   bands (ev):

    -6.1885   0.0128   0.5291   0.7415   3.5008   4.7211

          k = 0.0000 0.4000 0.0000 (  5373 PWs)   bands (ev):

    -6.0759  -0.2589   0.4020   0.4020   3.7728   4.0893

          k =-0.1000 0.5000-0.1000 (  5390 PWs)   bands (ev):

    -5.9404  -0.6932   0.2473   0.2831   3.6802   4.0108

          k =-0.2000 0.6000-0.2000 (  5414 PWs)   bands (ev):

    -5.7792  -1.1465   0.0187   0.2251   3.5250   4.3033

          k = 0.7000-0.3000 0.7000 (  5390 PWs)   bands (ev):

    -5.6570  -1.4404  -0.2054   0.2421   3.5071   4.4615

          k = 0.6000-0.2000 0.6000 (  5385 PWs)   bands (ev):

    -5.6397  -1.4703  -0.3422   0.3292   3.6631   4.4733

          k = 0.5000-0.1000 0.5000 (  5390 PWs)   bands (ev):

    -5.7376  -1.2408  -0.3312   0.4627   3.9857   4.5241

          k = 0.4000 0.0000 0.4000 (  5400 PWs)   bands (ev):

    -5.8949  -0.8998  -0.0976   0.5984   4.2958   4.6922

          k = 0.0000 0.6000 0.0000 (  5409 PWs)   bands (ev):

    -5.8379  -0.8646   0.1370   0.1370   3.2624   3.5726

          k =-0.1000 0.7000-0.1000 (  5410 PWs)   bands (ev):

    -5.7063  -1.1331  -0.0843   0.0565   3.0617   3.5940

          k = 0.8000-0.2000 0.8000 (  5396 PWs)   bands (ev):

    -5.5962  -1.2884  -0.4588   0.0604   3.0569   4.0729

          k = 0.7000-0.1000 0.7000 (  5390 PWs)   bands (ev):

    -5.5607  -1.2476  -0.7972   0.1475   3.2169   4.7044

          k = 0.6000-0.0000 0.6000 (  5398 PWs)   bands (ev):

    -5.6184  -1.1829  -0.7969   0.2968   3.5486   5.0592

          k = 0.0000 0.8000 0.0000 (  5410 PWs)   bands (ev):

    -5.6149  -1.3018  -0.0503  -0.0503   2.6789   3.2542

          k = 0.9000-0.1000 0.9000 (  5401 PWs)   bands (ev):

    -5.5420  -1.3882  -0.2811  -0.0701   2.6686   3.3889

          k = 0.8000 0.0000 0.8000 (  5400 PWs)   bands (ev):

    -5.5213  -1.2919  -0.6876   0.0009   2.8764   3.9935

          k = 0.0000-1.0000 0.0000 (  5434 PWs)   bands (ev):

    -5.5199  -1.4665  -0.1168  -0.1168   2.4661   3.1471

          k =-0.2000 0.4000 0.0000 (  5399 PWs)   bands (ev):

    -6.0272  -0.5202   0.2440   0.5552   3.9772   4.3281

          k =-0.3000 0.5000-0.1000 (  5397 PWs)   bands (ev):

    -5.8638  -0.9973   0.0096   0.4558   3.9798   4.4880

          k = 0.6000-0.4000 0.8000 (  5404 PWs)   bands (ev):

    -5.7135  -1.3934  -0.1058   0.3445   3.9068   4.2093

          k = 0.5000-0.3000 0.7000 (  5392 PWs)   bands (ev):

    -5.6506  -1.5467  -0.1382   0.2969   3.9152   4.0646

          k =-0.2000 0.6000 0.0000 (  5402 PWs)   bands (ev):

    -5.8053  -0.9705  -0.0479   0.2065   3.5555   3.9045

          k = 0.7000-0.3000 0.9000 (  5372 PWs)   bands (ev):

    -5.6673  -1.2191  -0.3275   0.0913   3.5088   4.2385

          k = 0.6000-0.2000 0.8000 (  5383 PWs)   bands (ev):

    -5.5877  -1.3367  -0.5498   0.0713   3.5687   4.5195

          k = 0.5000-0.1000 0.7000 (  5391 PWs)   bands (ev):

    -5.6099  -1.2794  -0.6255   0.1649   3.7679   4.5520

          k = 0.4000 0.0000 0.6000 (  5384 PWs)   bands (ev):

    -5.7206  -1.1422  -0.4323   0.3221   4.0694   4.6762

          k = 0.8000-0.2000 1.0000 (  5387 PWs)   bands (ev):

    -5.6015  -1.2712  -0.2512  -0.1043   3.0062   3.6256

          k = 0.7000-0.1000 0.9000 (  5398 PWs)   bands (ev):

    -5.5352  -1.2563  -0.6194  -0.1380   3.1648   4.1046

          k = 0.6000 0.0000 0.8000 (  5389 PWs)   bands (ev):

    -5.5392  -1.0403  -1.0049  -0.0247   3.4102   4.7361

          k =-0.2000-1.0000 0.0000 (  5386 PWs)   bands (ev):

    -5.5162  -1.3788  -0.3230  -0.2281   2.8120   3.5298

          k = 0.6000-0.2000 1.0000 (  5372 PWs)   bands (ev):

    -5.5700  -1.1825  -0.6598  -0.1249   3.6711   4.5257

          k = 0.5000-0.1000 0.9000 (  5390 PWs)   bands (ev):

    -5.5310  -1.1026  -0.8416  -0.2266   3.7145   4.7778

          k =-0.4000-1.0000 0.0000 (  5408 PWs)   bands (ev):

    -5.5101  -1.1246  -0.7392  -0.3804   3.5305   4.4620

     the Fermi energy is    -1.5102 ev

!    total energy              =      -3.97724117 Ry
     estimated scf accuracy    <       0.00000061 Ry
     smearing contrib. (-TS)   =      -0.08484168 Ry
     internal energy E=F+TS    =      -3.89239948 Ry

     The total energy is F=E-TS. E is the sum of the following terms:
     one-electron contribution =      -0.19806416 Ry
     hartree contribution      =       0.42299499 Ry
     xc contribution           =      -1.17131834 Ry
     ewald contribution        =      -2.94601197 Ry

     convergence has been achieved in   7 iterations
     Writing meta-gga kinetic term

     Writing all to output data dir ./input_pw/Al/6/pwscf.save/
     Writing meta-gga kinetic term
 
     init_run     :     10.42s CPU     21.04s WALL (       1 calls)
     electrons    :    185.49s CPU    326.71s WALL (       1 calls)

     Called by init_run:
     wfcinit      :     10.17s CPU     20.26s WALL (       1 calls)
     potinit      :      0.12s CPU      0.49s WALL (       1 calls)
     hinit0       :      0.08s CPU      0.17s WALL (       1 calls)

     Called by electrons:
     c_bands      :    151.39s CPU    268.99s WALL (       8 calls)
     sum_band     :     32.34s CPU     54.91s WALL (       8 calls)
     v_of_rho     :      0.88s CPU      1.69s WALL (       8 calls)
     mix_rho      :      0.93s CPU      1.48s WALL (       8 calls)

     Called by c_bands:
     init_us_2    :      0.58s CPU      1.03s WALL (     799 calls)
     init_us_2:cp :      0.58s CPU      1.03s WALL (     799 calls)
     cegterg      :    150.73s CPU    267.71s WALL (     376 calls)

     Called by *egterg:
     cdiaghg      :      0.18s CPU      0.28s WALL (    1240 calls)
     h_psi        :    158.27s CPU    283.45s WALL (    1334 calls)
     g_psi        :      0.10s CPU      0.17s WALL (     911 calls)

     Called by h_psi:
     h_psi:calbec :      0.51s CPU      0.83s WALL (    1334 calls)
     vloc_psi     :     38.78s CPU     69.64s WALL (    1334 calls)
     add_vuspsi   :      0.28s CPU      0.43s WALL (    1334 calls)
     h_psi_meta   :    118.52s CPU    212.18s WALL (    1334 calls)

     General routines
     calbec       :      0.50s CPU      0.83s WALL (    1334 calls)
     fft          :      0.21s CPU      0.35s WALL (      95 calls)
     ffts         :      0.30s CPU      0.49s WALL (     132 calls)
     fftw         :    141.46s CPU    251.93s WALL (   62264 calls)
     interpolate  :      0.00s CPU      0.00s WALL (       8 calls)
 
     Parallel routines
 
     PWSCF        :   3m15.97s CPU   5m47.89s WALL

 
   This run was terminated on:  13:17:23  21Mar2023            

=------------------------------------------------------------------------------=
   JOB DONE.
=------------------------------------------------------------------------------=
