
     Program PWSCF v.7.0 starts on 21Mar2023 at 11:18: 3 

     This program is part of the open-source Quantum ESPRESSO suite
     for quantum simulation of materials; please cite
         "P. Giannozzi et al., J. Phys.:Condens. Matter 21 395502 (2009);
         "P. Giannozzi et al., J. Phys.:Condens. Matter 29 465901 (2017);
         "P. Giannozzi et al., J. Chem. Phys. 152 154105 (2020);
          URL http://www.quantum-espresso.org", 
     in publications or presentations arising from this work. More details at
     http://www.quantum-espresso.org/quote

     Parallel version (MPI), running on     1 processors

     MPI processes distributed on     1 nodes
     24427 MiB available memory on the printing compute node when the environment starts
 
     Waiting for input...
     Reading input from standard input
Warning: card &CELL ignored
Warning: card / ignored

     Current dimensions of program PWSCF are:
     Max number of different atomic species (ntypx) = 10
     Max number of k-points (npk) =  40000
     Max angular momentum in pseudopotentials (lmaxx) =  4
     file Al.SCAN.UPF2: wavefunction(s)  0D renormalized

     WARNING: the MGGA functional with ID    5 has been 
     read together with other dft terms, but it should 
     stand alone in order to work properly. The other 
     terms will be ignored.

     Subspace diagonalization in iterative solution of the eigenvalue problem:
     a serial algorithm will be used

 
     G-vector sticks info
     --------------------
     sticks:   dense  smooth     PW     G-vecs:    dense   smooth      PW
     Sum         451     451    151                 6423     6423    1243
 
     Using Slab Decomposition
 


     bravais-lattice index     =            2
     lattice parameter (alat)  =       7.4347  a.u.
     unit-cell volume          =     102.7388 (a.u.)^3
     number of atoms/cell      =            1
     number of atomic types    =            1
     number of electrons       =         3.00
     number of Kohn-Sham states=            6
     kinetic-energy cutoff     =      60.0000  Ry
     charge density cutoff     =     240.0000  Ry
     scf convergence threshold =      1.0E-06
     mixing beta               =       0.0100
     number of iterations used =            8  local-TF  mixing
     Exchange-correlation= SLA  PW   SCAN SCAN
                           (   0   0   0   0   0 263 267)

     celldm(1)=   7.434722  celldm(2)=   0.000000  celldm(3)=   0.000000
     celldm(4)=   0.000000  celldm(5)=   0.000000  celldm(6)=   0.000000

     crystal axes: (cart. coord. in units of alat)
               a(1) = (  -0.500000   0.000000   0.500000 )  
               a(2) = (   0.000000   0.500000   0.500000 )  
               a(3) = (  -0.500000   0.500000   0.000000 )  

     reciprocal axes: (cart. coord. in units 2 pi/alat)
               b(1) = ( -1.000000 -1.000000  1.000000 )  
               b(2) = (  1.000000  1.000000  1.000000 )  
               b(3) = ( -1.000000  1.000000 -1.000000 )  


     PseudoPot. # 1 for Al read from file:
     ~/Documents/TA/PWDFT.jl/pseudopotentials/scan_upf/Al.SCAN.UPF2
     MD5 check sum: Not computed, couldn't open file
     Pseudo is Norm-conserving, Zval =  3.0
     Generated by new atomic code, or converted to UPF format
     Using radial grid of 1467 points,  2 beta functions with: 
                l(1) =   0
                l(2) =   1

     atomic species   valence    mass     pseudopotential
        Al             3.00    26.98154     Al( 1.00)

     48 Sym. Ops., with inversion, found



   Cartesian axes

     site n.     atom                  positions (alat units)
         1           Al  tau(   1) = (   0.0000000   0.0000000   0.0000000  )

     number of k points=    47  Gaussian smearing, width (Ry)=  0.1000
                       cart. coord. in units 2pi/alat
        k(    1) = (   0.0000000   0.0000000   0.0000000), wk =   0.0020000
        k(    2) = (  -0.1000000   0.1000000  -0.1000000), wk =   0.0160000
        k(    3) = (  -0.2000000   0.2000000  -0.2000000), wk =   0.0160000
        k(    4) = (  -0.3000000   0.3000000  -0.3000000), wk =   0.0160000
        k(    5) = (  -0.4000000   0.4000000  -0.4000000), wk =   0.0160000
        k(    6) = (   0.5000000  -0.5000000   0.5000000), wk =   0.0080000
        k(    7) = (   0.0000000   0.2000000   0.0000000), wk =   0.0120000
        k(    8) = (  -0.1000000   0.3000000  -0.1000000), wk =   0.0480000
        k(    9) = (  -0.2000000   0.4000000  -0.2000000), wk =   0.0480000
        k(   10) = (  -0.3000000   0.5000000  -0.3000000), wk =   0.0480000
        k(   11) = (   0.6000000  -0.4000000   0.6000000), wk =   0.0480000
        k(   12) = (   0.5000000  -0.3000000   0.5000000), wk =   0.0480000
        k(   13) = (   0.4000000  -0.2000000   0.4000000), wk =   0.0480000
        k(   14) = (   0.3000000  -0.1000000   0.3000000), wk =   0.0480000
        k(   15) = (   0.2000000   0.0000000   0.2000000), wk =   0.0240000
        k(   16) = (   0.0000000   0.4000000   0.0000000), wk =   0.0120000
        k(   17) = (  -0.1000000   0.5000000  -0.1000000), wk =   0.0480000
        k(   18) = (  -0.2000000   0.6000000  -0.2000000), wk =   0.0480000
        k(   19) = (   0.7000000  -0.3000000   0.7000000), wk =   0.0480000
        k(   20) = (   0.6000000  -0.2000000   0.6000000), wk =   0.0480000
        k(   21) = (   0.5000000  -0.1000000   0.5000000), wk =   0.0480000
        k(   22) = (   0.4000000   0.0000000   0.4000000), wk =   0.0240000
        k(   23) = (   0.0000000   0.6000000   0.0000000), wk =   0.0120000
        k(   24) = (  -0.1000000   0.7000000  -0.1000000), wk =   0.0480000
        k(   25) = (   0.8000000  -0.2000000   0.8000000), wk =   0.0480000
        k(   26) = (   0.7000000  -0.1000000   0.7000000), wk =   0.0480000
        k(   27) = (   0.6000000  -0.0000000   0.6000000), wk =   0.0240000
        k(   28) = (   0.0000000   0.8000000   0.0000000), wk =   0.0120000
        k(   29) = (   0.9000000  -0.1000000   0.9000000), wk =   0.0480000
        k(   30) = (   0.8000000   0.0000000   0.8000000), wk =   0.0240000
        k(   31) = (   0.0000000  -1.0000000   0.0000000), wk =   0.0060000
        k(   32) = (  -0.2000000   0.4000000   0.0000000), wk =   0.0480000
        k(   33) = (  -0.3000000   0.5000000  -0.1000000), wk =   0.0960000
        k(   34) = (   0.6000000  -0.4000000   0.8000000), wk =   0.0960000
        k(   35) = (   0.5000000  -0.3000000   0.7000000), wk =   0.0480000
        k(   36) = (  -0.2000000   0.6000000   0.0000000), wk =   0.0480000
        k(   37) = (   0.7000000  -0.3000000   0.9000000), wk =   0.0960000
        k(   38) = (   0.6000000  -0.2000000   0.8000000), wk =   0.0960000
        k(   39) = (   0.5000000  -0.1000000   0.7000000), wk =   0.0960000
        k(   40) = (   0.4000000   0.0000000   0.6000000), wk =   0.0480000
        k(   41) = (   0.8000000  -0.2000000   1.0000000), wk =   0.0480000
        k(   42) = (   0.7000000  -0.1000000   0.9000000), wk =   0.0960000
        k(   43) = (   0.6000000   0.0000000   0.8000000), wk =   0.0480000
        k(   44) = (  -0.2000000  -1.0000000   0.0000000), wk =   0.0240000
        k(   45) = (   0.6000000  -0.2000000   1.0000000), wk =   0.0480000
        k(   46) = (   0.5000000  -0.1000000   0.9000000), wk =   0.0480000
        k(   47) = (  -0.4000000  -1.0000000   0.0000000), wk =   0.0240000

     Dense  grid:     6423 G-vectors     FFT dimensions: (  25,  25,  25)

     Estimated max dynamical RAM per process >      12.76 MB

     WARNING: libxc functional with ID  263 depends
      on external parameters: check the user_guide of
      QE if you need to modify them or to check their
      default values.

     Initial potential from superposition of free atoms

     starting charge       2.9979, renormalised to       3.0000
     Starting wfcs are    9 randomized atomic wfcs

     total cpu time spent up to now is        2.4 secs

     Self-consistent Calculation

     iteration #  1     ecut=    60.00 Ry     beta= 0.01
     Davidson diagonalization with overlap
     ethr =  1.00E-02,  avg # of iterations =  4.9

     Threshold (ethr) on eigenvalues was too large:
     Diagonalizing with lowered threshold

     Davidson diagonalization with overlap
     ethr =  2.26E-04,  avg # of iterations =  1.8

     total cpu time spent up to now is       11.7 secs

     total energy              =      -4.15235688 Ry
     estimated scf accuracy    <       0.00669370 Ry

     iteration #  2     ecut=    60.00 Ry     beta= 0.01
     Davidson diagonalization with overlap
     ethr =  2.23E-04,  avg # of iterations =  1.0

     total cpu time spent up to now is       14.5 secs

     total energy              =      -4.15070555 Ry
     estimated scf accuracy    <       0.00662515 Ry

     iteration #  3     ecut=    60.00 Ry     beta= 0.01
     Davidson diagonalization with overlap
     ethr =  2.21E-04,  avg # of iterations =  1.8

     total cpu time spent up to now is       18.1 secs

     total energy              =      -4.15101269 Ry
     estimated scf accuracy    <       0.00040682 Ry

     iteration #  4     ecut=    60.00 Ry     beta= 0.01
     Davidson diagonalization with overlap
     ethr =  1.36E-05,  avg # of iterations =  2.9

     total cpu time spent up to now is       22.5 secs

     total energy              =      -4.15119429 Ry
     estimated scf accuracy    <       0.00013744 Ry

     iteration #  5     ecut=    60.00 Ry     beta= 0.01
     Davidson diagonalization with overlap
     ethr =  4.58E-06,  avg # of iterations =  1.4

     total cpu time spent up to now is       25.2 secs

     total energy              =      -4.15156848 Ry
     estimated scf accuracy    <       0.00013620 Ry

     iteration #  6     ecut=    60.00 Ry     beta= 0.01
     Davidson diagonalization with overlap
     ethr =  4.54E-06,  avg # of iterations =  2.2

     total cpu time spent up to now is       29.3 secs

     total energy              =      -4.15173400 Ry
     estimated scf accuracy    <       0.00002268 Ry

     iteration #  7     ecut=    60.00 Ry     beta= 0.01
     Davidson diagonalization with overlap
     ethr =  7.56E-07,  avg # of iterations =  2.0

     total cpu time spent up to now is       33.2 secs

     total energy              =      -4.15176909 Ry
     estimated scf accuracy    <       0.00000484 Ry

     iteration #  8     ecut=    60.00 Ry     beta= 0.01
     Davidson diagonalization with overlap
     ethr =  1.61E-07,  avg # of iterations =  1.0

     total cpu time spent up to now is       35.5 secs

     total energy              =      -4.15176287 Ry
     estimated scf accuracy    <       0.00000488 Ry

     iteration #  9     ecut=    60.00 Ry     beta= 0.01
     Davidson diagonalization with overlap
     ethr =  1.61E-07,  avg # of iterations =  2.0

     total cpu time spent up to now is       38.5 secs

     total energy              =      -4.15175961 Ry
     estimated scf accuracy    <       0.00000233 Ry

     iteration # 10     ecut=    60.00 Ry     beta= 0.01
     Davidson diagonalization with overlap
     ethr =  7.77E-08,  avg # of iterations =  2.0

     total cpu time spent up to now is       40.4 secs

     End of self-consistent calculation

          k = 0.0000 0.0000 0.0000 (   869 PWs)   bands (ev):

    -3.4028  22.2258  22.2258  22.2258  24.6758  24.6758

          k =-0.1000 0.1000-0.1000 (   815 PWs)   bands (ev):

    -3.1023  18.8940  21.6670  21.6670  25.0281  25.6748

          k =-0.2000 0.2000-0.2000 (   812 PWs)   bands (ev):

    -2.2053  14.5981  20.9670  20.9670  24.5719  25.8699

          k =-0.3000 0.3000-0.3000 (   817 PWs)   bands (ev):

    -0.7250  10.6031  20.6344  20.6344  23.9814  23.9817

          k =-0.4000 0.4000-0.4000 (   805 PWs)   bands (ev):

     1.3142   7.0391  20.7444  20.7444  22.4549  22.4549

          k = 0.5000-0.5000 0.5000 (   796 PWs)   bands (ev):

     3.5926   4.2507  21.1625  21.1625  21.5586  21.5586

          k = 0.0000 0.2000 0.0000 (   817 PWs)   bands (ev):

    -3.0023  20.1876  20.2673  20.2673  23.7510  26.0423

          k =-0.1000 0.3000-0.1000 (   808 PWs)   bands (ev):

    -2.3046  16.1586  19.2684  20.5880  23.4375  24.3464

          k =-0.2000 0.4000-0.2000 (   808 PWs)   bands (ev):

    -1.0197  12.1015  18.7331  20.2261  21.2948  26.6116

          k =-0.3000 0.5000-0.3000 (   803 PWs)   bands (ev):

     0.8325   8.4091  18.6764  19.2568  20.5010  25.3270

          k = 0.6000-0.4000 0.6000 (   806 PWs)   bands (ev):

     3.1956   5.2023  18.0481  19.1052  20.9113  24.1164

          k = 0.5000-0.3000 0.5000 (   806 PWs)   bands (ev):

     2.3630   6.2021  17.2953  20.0250  21.8729  23.3585

          k = 0.4000-0.2000 0.4000 (   808 PWs)   bands (ev):

     0.1540   9.5825  17.0529  21.4359  23.0492  23.3255

          k = 0.3000-0.1000 0.3000 (   814 PWs)   bands (ev):

    -1.5122  13.3754  17.3541  23.1120  23.3166  25.2028

          k = 0.2000 0.0000 0.2000 (   821 PWs)   bands (ev):

    -2.6031  17.0852  18.5603  23.0026  24.9905  26.0004

          k = 0.0000 0.4000 0.0000 (   829 PWs)   bands (ev):

    -1.8088  17.5856  18.0569  18.0569  20.4474  22.0801

          k =-0.1000 0.5000-0.1000 (   822 PWs)   bands (ev):

    -0.7255  13.9990  17.3360  17.8511  18.7841  22.6748

          k =-0.2000 0.6000-0.2000 (   810 PWs)   bands (ev):

     0.9280  10.2697  15.9598  17.1055  18.7982  25.2404

          k = 0.7000-0.3000 0.7000 (   806 PWs)   bands (ev):

     3.1163   6.9285  14.5023  17.3662  19.1534  27.3386

          k = 0.6000-0.2000 0.6000 (   813 PWs)   bands (ev):

     3.9469   5.9180  13.5704  18.1204  20.0055  26.4435

          k = 0.5000-0.1000 0.5000 (   803 PWs)   bands (ev):

     1.6031   9.0135  13.2402  19.3696  21.3619  25.9521

          k = 0.4000 0.0000 0.4000 (   813 PWs)   bands (ev):

    -0.2359  12.0058  14.0401  21.1085  23.1688  25.3172

          k = 0.0000 0.6000 0.0000 (   821 PWs)   bands (ev):

     0.1523  15.2240  15.6294  16.4384  16.4384  20.5299

          k =-0.1000 0.7000-0.1000 (   803 PWs)   bands (ev):

     1.5977  12.4209  13.1393  16.0360  17.2164  21.4266

          k = 0.8000-0.2000 0.8000 (   805 PWs)   bands (ev):

     3.5761   9.1168  11.4212  16.1270  17.6755  24.3328

          k = 0.7000-0.1000 0.7000 (   808 PWs)   bands (ev):

     5.7912   6.3656  10.3440  16.7119  18.4289  27.9020

          k = 0.6000-0.0000 0.6000 (   804 PWs)   bands (ev):

     3.5956   8.3534  10.4590  17.7926  19.6650  29.1012

          k = 0.0000 0.8000 0.0000 (   805 PWs)   bands (ev):

     2.8223  10.5733  14.4392  15.4636  15.4636  19.5114

          k = 0.9000-0.1000 0.9000 (   798 PWs)   bands (ev):

     4.5343   8.7169  11.8592  15.3855  16.4678  20.7676

          k = 0.8000 0.0000 0.8000 (   798 PWs)   bands (ev):

     6.1652   7.8166   9.1071  15.8010  17.2957  24.0201

          k = 0.0000-1.0000 0.0000 (   790 PWs)   bands (ev):

     5.4369   7.2974  14.0407  15.1387  15.1387  19.1580

          k =-0.2000 0.4000 0.0000 (   816 PWs)   bands (ev):

    -1.4136  14.5552  16.3260  20.8962  21.7147  24.1217

          k =-0.3000 0.5000-0.1000 (   811 PWs)   bands (ev):

     0.0564  11.1993  15.3054  18.7899  22.1962  25.6072

          k = 0.6000-0.4000 0.8000 (   805 PWs)   bands (ev):

     2.0798   7.7412  15.2712  17.2003  22.4691  24.2705

          k = 0.5000-0.3000 0.7000 (   810 PWs)   bands (ev):

     4.3311   4.9977  15.5338  16.4050  23.0005  23.2866

          k =-0.2000 0.6000 0.0000 (   810 PWs)   bands (ev):

     0.5409  12.7266  14.4421  15.9093  20.0457  22.7075

          k = 0.7000-0.3000 0.9000 (   802 PWs)   bands (ev):

     2.3626   9.7203  13.3533  14.4786  20.9020  24.9252

          k = 0.6000-0.2000 0.8000 (   800 PWs)   bands (ev):

     4.6747   6.6433  12.3889  14.4967  21.5387  26.4827

          k = 0.5000-0.1000 0.7000 (   806 PWs)   bands (ev):

     3.8706   7.5439  11.7559  15.3783  22.5482  25.6848

          k = 0.4000 0.0000 0.6000 (   813 PWs)   bands (ev):

     1.6983  10.1782  12.2414  16.8350  23.9745  24.6534

          k = 0.8000-0.2000 1.0000 (   797 PWs)   bands (ev):

     3.2006  10.8652  11.6234  13.8125  19.0001  21.7713

          k = 0.7000-0.1000 0.9000 (   796 PWs)   bands (ev):

     5.2709   8.7832   9.7042  13.3965  20.2154  24.3354

          k = 0.6000 0.0000 0.8000 (   803 PWs)   bands (ev):

     6.1473   7.2584   9.3352  14.0807  21.2059  27.8922

          k =-0.2000-1.0000 0.0000 (   794 PWs)   bands (ev):

     5.8010   7.6494  11.2549  13.4173  18.6486  21.4474

          k = 0.6000-0.2000 1.0000 (   804 PWs)   bands (ev):

     4.3256   9.0803  10.8293  12.6043  23.6819  25.4261

          k = 0.5000-0.1000 0.9000 (   800 PWs)   bands (ev):

     6.5149   6.9996  10.4100  11.8768  24.8699  25.2604

          k =-0.4000-1.0000 0.0000 (   792 PWs)   bands (ev):

     6.8934   8.5561   8.7141  11.2869  23.3417  25.3148

     the Fermi energy is     8.8006 ev

!    total energy              =      -4.15176797 Ry
     estimated scf accuracy    <       0.00000050 Ry
     smearing contrib. (-TS)   =      -0.02472304 Ry
     internal energy E=F+TS    =      -4.12704494 Ry

     The total energy is F=E-TS. E is the sum of the following terms:
     one-electron contribution =       3.05016899 Ry
     hartree contribution      =       0.00873585 Ry
     xc contribution           =      -1.63580871 Ry
     ewald contribution        =      -5.55014107 Ry

     convergence has been achieved in  10 iterations
     Writing meta-gga kinetic term

     Writing all to output data dir ./input_pw/Al/6/pwscf.save/
     Writing meta-gga kinetic term
 
     init_run     :      0.70s CPU      2.32s WALL (       1 calls)
     electrons    :     14.43s CPU     38.06s WALL (       1 calls)

     Called by init_run:
     wfcinit      :      0.63s CPU      2.09s WALL (       1 calls)
     potinit      :      0.01s CPU      0.04s WALL (       1 calls)
     hinit0       :      0.06s CPU      0.18s WALL (       1 calls)

     Called by electrons:
     c_bands      :     11.85s CPU     31.52s WALL (      11 calls)
     sum_band     :      2.43s CPU      6.18s WALL (      11 calls)
     v_of_rho     :      0.10s CPU      0.28s WALL (      11 calls)
     mix_rho      :      0.05s CPU      0.12s WALL (      11 calls)

     Called by c_bands:
     init_us_2    :      0.10s CPU      0.19s WALL (    1081 calls)
     init_us_2:cp :      0.09s CPU      0.17s WALL (    1081 calls)
     cegterg      :     11.74s CPU     31.29s WALL (     517 calls)

     Called by *egterg:
     cdiaghg      :      0.11s CPU      0.33s WALL (    1554 calls)
     h_psi        :     11.99s CPU     32.24s WALL (    1648 calls)
     g_psi        :      0.01s CPU      0.04s WALL (    1084 calls)

     Called by h_psi:
     h_psi:calbec :      0.04s CPU      0.06s WALL (    1648 calls)
     vloc_psi     :      2.95s CPU      7.98s WALL (    1648 calls)
     add_vuspsi   :      0.04s CPU      0.08s WALL (    1648 calls)
     h_psi_meta   :      8.94s CPU     24.02s WALL (    1648 calls)

     General routines
     calbec       :      0.03s CPU      0.06s WALL (    1648 calls)
     fft          :      0.02s CPU      0.08s WALL (     131 calls)
     ffts         :      0.02s CPU      0.06s WALL (     137 calls)
     fftw         :     12.70s CPU     33.63s WALL (   78864 calls)
     interpolate  :      0.00s CPU      0.00s WALL (      11 calls)
 
     Parallel routines
 
     PWSCF        :     15.17s CPU     40.48s WALL

 
   This run was terminated on:  11:18:44  21Mar2023            

=------------------------------------------------------------------------------=
   JOB DONE.
=------------------------------------------------------------------------------=
