
     Program PWSCF v.7.0 starts on  4Apr2023 at  8:56:52 

     This program is part of the open-source Quantum ESPRESSO suite
     for quantum simulation of materials; please cite
         "P. Giannozzi et al., J. Phys.:Condens. Matter 21 395502 (2009);
         "P. Giannozzi et al., J. Phys.:Condens. Matter 29 465901 (2017);
         "P. Giannozzi et al., J. Chem. Phys. 152 154105 (2020);
          URL http://www.quantum-espresso.org", 
     in publications or presentations arising from this work. More details at
     http://www.quantum-espresso.org/quote

     Parallel version (MPI), running on     1 processors

     MPI processes distributed on     1 nodes
     19507 MiB available memory on the printing compute node when the environment starts
 
     Waiting for input...
     Reading input from standard input
Warning: card &CELL ignored
Warning: card / ignored

     Current dimensions of program PWSCF are:
     Max number of different atomic species (ntypx) = 10
     Max number of k-points (npk) =  40000
     Max angular momentum in pseudopotentials (lmaxx) =  4
     file Al.SCAN.UPF2: wavefunction(s)  0D renormalized

     WARNING: the MGGA functional with ID    5 has been 
     read together with other dft terms, but it should 
     stand alone in order to work properly. The other 
     terms will be ignored.

     Subspace diagonalization in iterative solution of the eigenvalue problem:
     a serial algorithm will be used

 
     G-vector sticks info
     --------------------
     sticks:   dense  smooth     PW     G-vecs:    dense   smooth      PW
     Sum         967     967    301                20179    20179    3383
 
     Using Slab Decomposition
 


     bravais-lattice index     =            2
     lattice parameter (alat)  =      10.8848  a.u.
     unit-cell volume          =     322.4067 (a.u.)^3
     number of atoms/cell      =            1
     number of atomic types    =            1
     number of electrons       =         3.00
     number of Kohn-Sham states=            6
     kinetic-energy cutoff     =      60.0000  Ry
     charge density cutoff     =     240.0000  Ry
     scf convergence threshold =      1.0E-06
     mixing beta               =       0.0100
     number of iterations used =            8  local-TF  mixing
     Exchange-correlation= SLA  PW   SCAN SCAN
                           (   0   0   0   0   0 263 267)

     celldm(1)=  10.884822  celldm(2)=   0.000000  celldm(3)=   0.000000
     celldm(4)=   0.000000  celldm(5)=   0.000000  celldm(6)=   0.000000

     crystal axes: (cart. coord. in units of alat)
               a(1) = (  -0.500000   0.000000   0.500000 )  
               a(2) = (   0.000000   0.500000   0.500000 )  
               a(3) = (  -0.500000   0.500000   0.000000 )  

     reciprocal axes: (cart. coord. in units 2 pi/alat)
               b(1) = ( -1.000000 -1.000000  1.000000 )  
               b(2) = (  1.000000  1.000000  1.000000 )  
               b(3) = ( -1.000000  1.000000 -1.000000 )  


     PseudoPot. # 1 for Al read from file:
     ~/Documents/TA/PWDFT.jl/pseudopotentials/scan_upf/Al.SCAN.UPF2
     MD5 check sum: Not computed, couldn't open file
     Pseudo is Norm-conserving, Zval =  3.0
     Generated by new atomic code, or converted to UPF format
     Using radial grid of 1467 points,  2 beta functions with: 
                l(1) =   0
                l(2) =   1

     atomic species   valence    mass     pseudopotential
        Al             3.00    26.98154     Al( 1.00)

     48 Sym. Ops., with inversion, found



   Cartesian axes

     site n.     atom                  positions (alat units)
         1           Al  tau(   1) = (   0.0000000   0.0000000   0.0000000  )

     number of k points=    47  Gaussian smearing, width (Ry)=  0.1000
                       cart. coord. in units 2pi/alat
        k(    1) = (   0.0000000   0.0000000   0.0000000), wk =   0.0020000
        k(    2) = (  -0.1000000   0.1000000  -0.1000000), wk =   0.0160000
        k(    3) = (  -0.2000000   0.2000000  -0.2000000), wk =   0.0160000
        k(    4) = (  -0.3000000   0.3000000  -0.3000000), wk =   0.0160000
        k(    5) = (  -0.4000000   0.4000000  -0.4000000), wk =   0.0160000
        k(    6) = (   0.5000000  -0.5000000   0.5000000), wk =   0.0080000
        k(    7) = (   0.0000000   0.2000000   0.0000000), wk =   0.0120000
        k(    8) = (  -0.1000000   0.3000000  -0.1000000), wk =   0.0480000
        k(    9) = (  -0.2000000   0.4000000  -0.2000000), wk =   0.0480000
        k(   10) = (  -0.3000000   0.5000000  -0.3000000), wk =   0.0480000
        k(   11) = (   0.6000000  -0.4000000   0.6000000), wk =   0.0480000
        k(   12) = (   0.5000000  -0.3000000   0.5000000), wk =   0.0480000
        k(   13) = (   0.4000000  -0.2000000   0.4000000), wk =   0.0480000
        k(   14) = (   0.3000000  -0.1000000   0.3000000), wk =   0.0480000
        k(   15) = (   0.2000000   0.0000000   0.2000000), wk =   0.0240000
        k(   16) = (   0.0000000   0.4000000   0.0000000), wk =   0.0120000
        k(   17) = (  -0.1000000   0.5000000  -0.1000000), wk =   0.0480000
        k(   18) = (  -0.2000000   0.6000000  -0.2000000), wk =   0.0480000
        k(   19) = (   0.7000000  -0.3000000   0.7000000), wk =   0.0480000
        k(   20) = (   0.6000000  -0.2000000   0.6000000), wk =   0.0480000
        k(   21) = (   0.5000000  -0.1000000   0.5000000), wk =   0.0480000
        k(   22) = (   0.4000000   0.0000000   0.4000000), wk =   0.0240000
        k(   23) = (   0.0000000   0.6000000   0.0000000), wk =   0.0120000
        k(   24) = (  -0.1000000   0.7000000  -0.1000000), wk =   0.0480000
        k(   25) = (   0.8000000  -0.2000000   0.8000000), wk =   0.0480000
        k(   26) = (   0.7000000  -0.1000000   0.7000000), wk =   0.0480000
        k(   27) = (   0.6000000  -0.0000000   0.6000000), wk =   0.0240000
        k(   28) = (   0.0000000   0.8000000   0.0000000), wk =   0.0120000
        k(   29) = (   0.9000000  -0.1000000   0.9000000), wk =   0.0480000
        k(   30) = (   0.8000000   0.0000000   0.8000000), wk =   0.0240000
        k(   31) = (   0.0000000  -1.0000000   0.0000000), wk =   0.0060000
        k(   32) = (  -0.2000000   0.4000000   0.0000000), wk =   0.0480000
        k(   33) = (  -0.3000000   0.5000000  -0.1000000), wk =   0.0960000
        k(   34) = (   0.6000000  -0.4000000   0.8000000), wk =   0.0960000
        k(   35) = (   0.5000000  -0.3000000   0.7000000), wk =   0.0480000
        k(   36) = (  -0.2000000   0.6000000   0.0000000), wk =   0.0480000
        k(   37) = (   0.7000000  -0.3000000   0.9000000), wk =   0.0960000
        k(   38) = (   0.6000000  -0.2000000   0.8000000), wk =   0.0960000
        k(   39) = (   0.5000000  -0.1000000   0.7000000), wk =   0.0960000
        k(   40) = (   0.4000000   0.0000000   0.6000000), wk =   0.0480000
        k(   41) = (   0.8000000  -0.2000000   1.0000000), wk =   0.0480000
        k(   42) = (   0.7000000  -0.1000000   0.9000000), wk =   0.0960000
        k(   43) = (   0.6000000   0.0000000   0.8000000), wk =   0.0480000
        k(   44) = (  -0.2000000  -1.0000000   0.0000000), wk =   0.0240000
        k(   45) = (   0.6000000  -0.2000000   1.0000000), wk =   0.0480000
        k(   46) = (   0.5000000  -0.1000000   0.9000000), wk =   0.0480000
        k(   47) = (  -0.4000000  -1.0000000   0.0000000), wk =   0.0240000

     Dense  grid:    20179 G-vectors     FFT dimensions: (  40,  40,  40)

     Estimated max dynamical RAM per process >      41.57 MB

     WARNING: libxc functional with ID  263 depends
      on external parameters: check the user_guide of
      QE if you need to modify them or to check their
      default values.

     Initial potential from superposition of free atoms

     starting charge       2.9979, renormalised to       3.0000
     Starting wfcs are    9 randomized atomic wfcs

     total cpu time spent up to now is        5.7 secs

     Self-consistent Calculation

     iteration #  1     ecut=    60.00 Ry     beta= 0.01
     Davidson diagonalization with overlap
     ethr =  1.00E-02,  avg # of iterations =  3.0

     Threshold (ethr) on eigenvalues was too large:
     Diagonalizing with lowered threshold

     Davidson diagonalization with overlap
     ethr =  1.34E-04,  avg # of iterations =  2.2

     total cpu time spent up to now is       28.7 secs

     total energy              =      -4.03358974 Ry
     estimated scf accuracy    <       0.00383422 Ry

     iteration #  2     ecut=    60.00 Ry     beta= 0.01
     Davidson diagonalization with overlap
     ethr =  1.28E-04,  avg # of iterations =  1.0

     total cpu time spent up to now is       36.6 secs

     total energy              =      -4.03620275 Ry
     estimated scf accuracy    <       0.00374329 Ry

     iteration #  3     ecut=    60.00 Ry     beta= 0.01
     Davidson diagonalization with overlap
     ethr =  1.25E-04,  avg # of iterations =  2.0

     total cpu time spent up to now is       47.2 secs

     total energy              =      -4.03703865 Ry
     estimated scf accuracy    <       0.00034053 Ry

     iteration #  4     ecut=    60.00 Ry     beta= 0.01
     Davidson diagonalization with overlap
     ethr =  1.14E-05,  avg # of iterations =  2.5

     total cpu time spent up to now is       60.3 secs

     total energy              =      -4.03716676 Ry
     estimated scf accuracy    <       0.00008987 Ry

     iteration #  5     ecut=    60.00 Ry     beta= 0.01
     Davidson diagonalization with overlap
     ethr =  3.00E-06,  avg # of iterations =  1.3

     total cpu time spent up to now is       70.7 secs

     total energy              =      -4.03716902 Ry
     estimated scf accuracy    <       0.00009398 Ry

     iteration #  6     ecut=    60.00 Ry     beta= 0.01
     Davidson diagonalization with overlap
     ethr =  3.00E-06,  avg # of iterations =  1.0

     total cpu time spent up to now is       80.1 secs

     total energy              =      -4.03716734 Ry
     estimated scf accuracy    <       0.00007951 Ry

     iteration #  7     ecut=    60.00 Ry     beta= 0.01
     Davidson diagonalization with overlap
     ethr =  2.65E-06,  avg # of iterations =  2.0

     total cpu time spent up to now is       92.3 secs

     End of self-consistent calculation

          k = 0.0000 0.0000 0.0000 (  2637 PWs)   bands (ev):

    -5.6533   5.8075   5.8075   5.8075   9.3297   9.3298

          k =-0.1000 0.1000-0.1000 (  2556 PWs)   bands (ev):

    -5.5236   4.8738   5.6756   5.6756   9.0416   9.5854

          k =-0.2000 0.2000-0.2000 (  2553 PWs)   bands (ev):

    -5.1404   3.1301   5.4026   5.4026   8.5126   9.8467

          k =-0.3000 0.3000-0.3000 (  2539 PWs)   bands (ev):

    -4.5278   1.3790   5.1531   5.1531   8.1191   9.4285

          k =-0.4000 0.4000-0.4000 (  2515 PWs)   bands (ev):

    -3.7769  -0.0922   4.9958   4.9958   7.8974   8.9848

          k = 0.5000-0.5000 0.5000 (  2512 PWs)   bands (ev):

    -3.3138  -0.7999   4.9436   4.9436   7.8277   8.8200

          k = 0.0000 0.2000 0.0000 (  2557 PWs)   bands (ev):

    -5.4803   5.1712   5.3281   5.3281   8.5402  10.0269

          k =-0.1000 0.3000-0.1000 (  2553 PWs)   bands (ev):

    -5.1811   3.7424   4.9481   5.2036   8.3404   9.8282

          k =-0.2000 0.4000-0.2000 (  2538 PWs)   bands (ev):

    -4.6423   2.0133   4.6817   4.8511   8.2204   9.3315

          k =-0.3000 0.5000-0.3000 (  2531 PWs)   bands (ev):

    -3.9216   0.4452   4.4699   4.5821   7.9666   9.0227

          k = 0.6000-0.4000 0.6000 (  2516 PWs)   bands (ev):

    -3.2774  -0.5971   4.1673   4.6557   7.9315   8.8547

          k = 0.5000-0.3000 0.5000 (  2526 PWs)   bands (ev):

    -3.4458  -0.3472   3.9991   4.8796   8.1782   8.8388

          k = 0.4000-0.2000 0.4000 (  2520 PWs)   bands (ev):

    -4.1755   0.9375   4.0050   5.2050   8.5888   9.0751

          k = 0.3000-0.1000 0.3000 (  2547 PWs)   bands (ev):

    -4.8474   2.5817   4.2164   5.5485   8.9355   9.6278

          k = 0.2000 0.0000 0.2000 (  2557 PWs)   bands (ev):

    -5.3092   4.1396   4.7644   5.7638   9.0977   9.7648

          k = 0.0000 0.4000 0.0000 (  2561 PWs)   bands (ev):

    -4.9675   3.8582   4.4812   4.4812   7.4004   8.5327

          k =-0.1000 0.5000-0.1000 (  2533 PWs)   bands (ev):

    -4.5105   2.6166   4.0435   4.1536   7.2866   8.0353

          k =-0.2000 0.6000-0.2000 (  2532 PWs)   bands (ev):

    -3.8500   1.1430   3.4192   4.0200   7.0331   8.9402

          k = 0.7000-0.3000 0.7000 (  2521 PWs)   bands (ev):

    -3.1446  -0.0493   2.8800   4.0935   6.9933   9.9241

          k = 0.6000-0.2000 0.6000 (  2541 PWs)   bands (ev):

    -2.9950  -0.2590   2.5288   4.3627   7.2742  10.1644

          k = 0.5000-0.1000 0.5000 (  2528 PWs)   bands (ev):

    -3.6174   0.7330   2.4250   4.7856   7.8528  10.1411

          k = 0.4000 0.0000 0.4000 (  2533 PWs)   bands (ev):

    -4.3197   1.9810   2.8126   5.2578   8.6725   9.8573

          k = 0.0000 0.6000 0.0000 (  2526 PWs)   bands (ev):

    -4.1390   2.3104   3.7586   3.7586   6.5134   6.8217

          k =-0.1000 0.7000-0.1000 (  2518 PWs)   bands (ev):

    -3.5592   1.3909   2.9897   3.5627   6.3058   7.0700

          k = 0.8000-0.2000 0.8000 (  2528 PWs)   bands (ev):

    -2.8854   0.5065   1.9774   3.5857   6.2400   8.4963

          k = 0.7000-0.1000 0.7000 (  2537 PWs)   bands (ev):

    -2.5407   0.1676   1.2793   3.8246   6.4909  10.1804

          k = 0.6000-0.0000 0.6000 (  2536 PWs)   bands (ev):

    -2.9540   0.6730   1.1653   4.2516   7.0403  11.5472

          k = 0.0000 0.8000 0.0000 (  2518 PWs)   bands (ev):

    -3.0805   0.7247   3.2983   3.2983   5.8268   5.9680

          k = 0.9000-0.1000 0.9000 (  2522 PWs)   bands (ev):

    -2.5384   0.1336   2.4762   3.2550   5.7716   6.6671

          k = 0.8000 0.0000 0.8000 (  2530 PWs)   bands (ev):

    -2.2909   0.1303   1.3560   3.4362   5.9846   8.3374

          k = 0.0000-1.0000 0.0000 (  2498 PWs)   bands (ev):

    -2.3341  -0.2199   3.1416   3.1416   5.5103   5.7847

          k =-0.2000 0.4000 0.0000 (  2542 PWs)   bands (ev):

    -4.8029   3.0014   3.8277   5.1021   8.3383   9.0127

          k =-0.3000 0.5000-0.1000 (  2535 PWs)   bands (ev):

    -4.2001   1.5944   3.2973   4.7165   8.2812   9.0977

          k = 0.6000-0.4000 0.8000 (  2523 PWs)   bands (ev):

    -3.4671   0.2112   3.1486   4.3151   8.0815   8.8941

          k = 0.5000-0.3000 0.7000 (  2532 PWs)   bands (ev):

    -3.0225  -0.4624   3.1259   4.1458   8.0455   8.7101

          k =-0.2000 0.6000 0.0000 (  2534 PWs)   bands (ev):

    -3.9896   1.9111   3.0535   3.8670   7.5328   7.5397

          k = 0.7000-0.3000 0.9000 (  2523 PWs)   bands (ev):

    -3.3061   0.8595   2.4085   3.4407   7.3636   8.7501

          k = 0.6000-0.2000 0.8000 (  2527 PWs)   bands (ev):

    -2.7273   0.0327   1.9834   3.3803   7.4766   9.7094

          k = 0.5000-0.1000 0.7000 (  2527 PWs)   bands (ev):

    -2.8901   0.2828   1.7472   3.6710   7.8307   9.6656

          k = 0.4000 0.0000 0.6000 (  2530 PWs)   bands (ev):

    -3.5635   1.1816   1.9986   4.1879   8.3235   9.5255

          k = 0.8000-0.2000 1.0000 (  2519 PWs)   bands (ev):

    -2.9686   0.7324   2.5665   2.9004   6.7280   7.0339

          k = 0.7000-0.1000 0.9000 (  2523 PWs)   bands (ev):

    -2.4268   0.3287   1.5493   2.8121   6.9277   8.4639

          k = 0.6000 0.0000 0.8000 (  2530 PWs)   bands (ev):

    -2.4014   0.6500   0.7323   3.1210   7.2791  10.1356

          k =-0.2000-1.0000 0.0000 (  2522 PWs)   bands (ev):

    -2.2839  -0.0446   2.4015   2.5853   6.4773   6.8624

          k = 0.6000-0.2000 1.0000 (  2525 PWs)   bands (ev):

    -2.6848   0.6690   1.4924   2.7038   8.2793   9.0959

          k = 0.5000-0.1000 0.9000 (  2530 PWs)   bands (ev):

    -2.3491   0.4781   1.1942   2.4103   8.4206   9.7284

          k =-0.4000-1.0000 0.0000 (  2528 PWs)   bands (ev):

    -2.1961   0.4764   1.3215   1.9871   8.1987   8.9436

     the Fermi energy is     0.5692 ev

!    total energy              =      -4.03720086 Ry
     estimated scf accuracy    <       0.00000053 Ry
     smearing contrib. (-TS)   =      -0.05363840 Ry
     internal energy E=F+TS    =      -3.98356246 Ry

     The total energy is F=E-TS. E is the sum of the following terms:
     one-electron contribution =       0.91746959 Ry
     hartree contribution      =       0.13353376 Ry
     xc contribution           =      -1.24362123 Ry
     ewald contribution        =      -3.79094457 Ry

     convergence has been achieved in   7 iterations
     Writing meta-gga kinetic term

     Writing all to output data dir ./input_pw/Al/6/pwscf.save/
     Writing meta-gga kinetic term
 
     init_run     :      3.00s CPU      5.66s WALL (       1 calls)
     electrons    :     47.61s CPU     86.57s WALL (       1 calls)

     Called by init_run:
     wfcinit      :      2.86s CPU      5.34s WALL (       1 calls)
     potinit      :      0.04s CPU      0.14s WALL (       1 calls)
     hinit0       :      0.07s CPU      0.11s WALL (       1 calls)

     Called by electrons:
     c_bands      :     38.44s CPU     69.66s WALL (       8 calls)
     sum_band     :      8.64s CPU     15.93s WALL (       8 calls)
     v_of_rho     :      0.36s CPU      0.70s WALL (       8 calls)
     mix_rho      :      0.20s CPU      0.37s WALL (       8 calls)

     Called by c_bands:
     init_us_2    :      0.24s CPU      0.40s WALL (     799 calls)
     init_us_2:cp :      0.23s CPU      0.40s WALL (     799 calls)
     cegterg      :     38.18s CPU     69.15s WALL (     376 calls)

     Called by *egterg:
     cdiaghg      :      0.11s CPU      0.26s WALL (    1036 calls)
     h_psi        :     40.24s CPU     72.96s WALL (    1130 calls)
     g_psi        :      0.03s CPU      0.05s WALL (     707 calls)

     Called by h_psi:
     h_psi:calbec :      0.13s CPU      0.19s WALL (    1130 calls)
     vloc_psi     :      9.96s CPU     18.07s WALL (    1130 calls)
     add_vuspsi   :      0.09s CPU      0.12s WALL (    1130 calls)
     h_psi_meta   :     30.00s CPU     54.48s WALL (    1130 calls)

     General routines
     calbec       :      0.13s CPU      0.19s WALL (    1130 calls)
     fft          :      0.07s CPU      0.11s WALL (      95 calls)
     ffts         :      0.08s CPU      0.10s WALL (     106 calls)
     fftw         :     39.42s CPU     71.81s WALL (   57112 calls)
     interpolate  :      0.00s CPU      0.00s WALL (       8 calls)
 
     Parallel routines
 
     PWSCF        :     50.65s CPU   1m32.34s WALL

 
   This run was terminated on:   8:58:24   4Apr2023            

=------------------------------------------------------------------------------=
   JOB DONE.
=------------------------------------------------------------------------------=
