
     Program PWSCF v.7.0 starts on 29Mar2023 at 10:21:33 

     This program is part of the open-source Quantum ESPRESSO suite
     for quantum simulation of materials; please cite
         "P. Giannozzi et al., J. Phys.:Condens. Matter 21 395502 (2009);
         "P. Giannozzi et al., J. Phys.:Condens. Matter 29 465901 (2017);
         "P. Giannozzi et al., J. Chem. Phys. 152 154105 (2020);
          URL http://www.quantum-espresso.org", 
     in publications or presentations arising from this work. More details at
     http://www.quantum-espresso.org/quote

     Parallel version (MPI), running on     1 processors

     MPI processes distributed on     1 nodes
     24571 MiB available memory on the printing compute node when the environment starts
 
     Waiting for input...
     Reading input from standard input
Warning: card &CELL ignored
Warning: card / ignored

     Current dimensions of program PWSCF are:
     Max number of different atomic species (ntypx) = 10
     Max number of k-points (npk) =  40000
     Max angular momentum in pseudopotentials (lmaxx) =  4
     file Cl.SCAN.UPF2: wavefunction(s)  0D renormalized

     WARNING: the MGGA functional with ID    5 has been 
     read together with other dft terms, but it should 
     stand alone in order to work properly. The other 
     terms will be ignored.

     WARNING: the MGGA functional with ID    5 has been 
     read together with other dft terms, but it should 
     stand alone in order to work properly. The other 
     terms will be ignored.

     Subspace diagonalization in iterative solution of the eigenvalue problem:
     a serial algorithm will be used

 
     G-vector sticks info
     --------------------
     sticks:   dense  smooth     PW     G-vecs:    dense   smooth      PW
     Sum         649     649    199                10777    10777    1893
 
     Using Slab Decomposition
 


     bravais-lattice index     =            2
     lattice parameter (alat)  =       9.6432  a.u.
     unit-cell volume          =     224.1834 (a.u.)^3
     number of atoms/cell      =            2
     number of atomic types    =            2
     number of electrons       =         8.00
     number of Kohn-Sham states=            4
     kinetic-energy cutoff     =      50.0000  Ry
     charge density cutoff     =     200.0000  Ry
     scf convergence threshold =      1.0E-06
     mixing beta               =       0.0100
     number of iterations used =            8  local-TF  mixing
     Exchange-correlation= SLA  PW   SCAN SCAN
                           (   0   0   0   0   0 263 267)

     celldm(1)=   9.643200  celldm(2)=   0.000000  celldm(3)=   0.000000
     celldm(4)=   0.000000  celldm(5)=   0.000000  celldm(6)=   0.000000

     crystal axes: (cart. coord. in units of alat)
               a(1) = (  -0.500000   0.000000   0.500000 )  
               a(2) = (   0.000000   0.500000   0.500000 )  
               a(3) = (  -0.500000   0.500000   0.000000 )  

     reciprocal axes: (cart. coord. in units 2 pi/alat)
               b(1) = ( -1.000000 -1.000000  1.000000 )  
               b(2) = (  1.000000  1.000000  1.000000 )  
               b(3) = ( -1.000000  1.000000 -1.000000 )  


     PseudoPot. # 1 for Li read from file:
     ~/Documents/TA/PWDFT.jl/pseudopotentials/scan_upf/Li.SCAN.UPF2
     MD5 check sum: Not computed, couldn't open file
     Pseudo is Norm-conserving, Zval =  1.0
     Generated by new atomic code, or converted to UPF format
     Using radial grid of 1321 points,  1 beta functions with: 
                l(1) =   0

     PseudoPot. # 2 for Cl read from file:
     ~/Documents/TA/PWDFT.jl/pseudopotentials/scan_upf/Cl.SCAN.UPF2
     MD5 check sum: Not computed, couldn't open file
     Pseudo is Norm-conserving, Zval =  7.0
     Generated by new atomic code, or converted to UPF format
     Using radial grid of 1493 points,  2 beta functions with: 
                l(1) =   0
                l(2) =   1

     atomic species   valence    mass     pseudopotential
        Li             1.00     6.94100     Li( 1.00)
        Cl             7.00    35.45300     Cl( 1.00)

     48 Sym. Ops., with inversion, found



   Cartesian axes

     site n.     atom                  positions (alat units)
         1           Li  tau(   1) = (   0.0000000   0.0000000   0.0000000  )
         2           Cl  tau(   2) = (   0.5000000   0.5000000   0.5000000  )

     number of k points=    47
                       cart. coord. in units 2pi/alat
        k(    1) = (   0.0000000   0.0000000   0.0000000), wk =   0.0020000
        k(    2) = (  -0.1000000   0.1000000  -0.1000000), wk =   0.0160000
        k(    3) = (  -0.2000000   0.2000000  -0.2000000), wk =   0.0160000
        k(    4) = (  -0.3000000   0.3000000  -0.3000000), wk =   0.0160000
        k(    5) = (  -0.4000000   0.4000000  -0.4000000), wk =   0.0160000
        k(    6) = (   0.5000000  -0.5000000   0.5000000), wk =   0.0080000
        k(    7) = (   0.0000000   0.2000000   0.0000000), wk =   0.0120000
        k(    8) = (  -0.1000000   0.3000000  -0.1000000), wk =   0.0480000
        k(    9) = (  -0.2000000   0.4000000  -0.2000000), wk =   0.0480000
        k(   10) = (  -0.3000000   0.5000000  -0.3000000), wk =   0.0480000
        k(   11) = (   0.6000000  -0.4000000   0.6000000), wk =   0.0480000
        k(   12) = (   0.5000000  -0.3000000   0.5000000), wk =   0.0480000
        k(   13) = (   0.4000000  -0.2000000   0.4000000), wk =   0.0480000
        k(   14) = (   0.3000000  -0.1000000   0.3000000), wk =   0.0480000
        k(   15) = (   0.2000000   0.0000000   0.2000000), wk =   0.0240000
        k(   16) = (   0.0000000   0.4000000   0.0000000), wk =   0.0120000
        k(   17) = (  -0.1000000   0.5000000  -0.1000000), wk =   0.0480000
        k(   18) = (  -0.2000000   0.6000000  -0.2000000), wk =   0.0480000
        k(   19) = (   0.7000000  -0.3000000   0.7000000), wk =   0.0480000
        k(   20) = (   0.6000000  -0.2000000   0.6000000), wk =   0.0480000
        k(   21) = (   0.5000000  -0.1000000   0.5000000), wk =   0.0480000
        k(   22) = (   0.4000000   0.0000000   0.4000000), wk =   0.0240000
        k(   23) = (   0.0000000   0.6000000   0.0000000), wk =   0.0120000
        k(   24) = (  -0.1000000   0.7000000  -0.1000000), wk =   0.0480000
        k(   25) = (   0.8000000  -0.2000000   0.8000000), wk =   0.0480000
        k(   26) = (   0.7000000  -0.1000000   0.7000000), wk =   0.0480000
        k(   27) = (   0.6000000  -0.0000000   0.6000000), wk =   0.0240000
        k(   28) = (   0.0000000   0.8000000   0.0000000), wk =   0.0120000
        k(   29) = (   0.9000000  -0.1000000   0.9000000), wk =   0.0480000
        k(   30) = (   0.8000000   0.0000000   0.8000000), wk =   0.0240000
        k(   31) = (   0.0000000  -1.0000000   0.0000000), wk =   0.0060000
        k(   32) = (  -0.2000000   0.4000000   0.0000000), wk =   0.0480000
        k(   33) = (  -0.3000000   0.5000000  -0.1000000), wk =   0.0960000
        k(   34) = (   0.6000000  -0.4000000   0.8000000), wk =   0.0960000
        k(   35) = (   0.5000000  -0.3000000   0.7000000), wk =   0.0480000
        k(   36) = (  -0.2000000   0.6000000   0.0000000), wk =   0.0480000
        k(   37) = (   0.7000000  -0.3000000   0.9000000), wk =   0.0960000
        k(   38) = (   0.6000000  -0.2000000   0.8000000), wk =   0.0960000
        k(   39) = (   0.5000000  -0.1000000   0.7000000), wk =   0.0960000
        k(   40) = (   0.4000000   0.0000000   0.6000000), wk =   0.0480000
        k(   41) = (   0.8000000  -0.2000000   1.0000000), wk =   0.0480000
        k(   42) = (   0.7000000  -0.1000000   0.9000000), wk =   0.0960000
        k(   43) = (   0.6000000   0.0000000   0.8000000), wk =   0.0480000
        k(   44) = (  -0.2000000  -1.0000000   0.0000000), wk =   0.0240000
        k(   45) = (   0.6000000  -0.2000000   1.0000000), wk =   0.0480000
        k(   46) = (   0.5000000  -0.1000000   0.9000000), wk =   0.0480000
        k(   47) = (  -0.4000000  -1.0000000   0.0000000), wk =   0.0240000

     Dense  grid:    10777 G-vectors     FFT dimensions: (  32,  32,  32)

     Estimated max dynamical RAM per process >      20.51 MB

     WARNING: libxc functional with ID  263 depends
      on external parameters: check the user_guide of
      QE if you need to modify them or to check their
      default values.

     Initial potential from superposition of free atoms

     starting charge       7.9953, renormalised to       8.0000
     Starting wfcs are   13 randomized atomic wfcs

     total cpu time spent up to now is        3.1 secs

     Self-consistent Calculation

     iteration #  1     ecut=    50.00 Ry     beta= 0.01
     Davidson diagonalization with overlap
     ethr =  1.00E-02,  avg # of iterations =  1.0

     total cpu time spent up to now is        5.0 secs

     total energy              =     -30.65748428 Ry
     estimated scf accuracy    <       0.35444353 Ry

     iteration #  2     ecut=    50.00 Ry     beta= 0.01
     Davidson diagonalization with overlap
     ethr =  4.43E-03,  avg # of iterations =  1.0

     total cpu time spent up to now is        6.8 secs

     total energy              =     -30.68325909 Ry
     estimated scf accuracy    <       0.33778965 Ry

     iteration #  3     ecut=    50.00 Ry     beta= 0.01
     Davidson diagonalization with overlap
     ethr =  4.22E-03,  avg # of iterations =  1.0

     total cpu time spent up to now is        8.8 secs

     total energy              =     -30.74147305 Ry
     estimated scf accuracy    <       0.25404121 Ry

     iteration #  4     ecut=    50.00 Ry     beta= 0.01
     Davidson diagonalization with overlap
     ethr =  3.18E-03,  avg # of iterations =  1.0

     total cpu time spent up to now is       10.9 secs

     total energy              =     -30.74391087 Ry
     estimated scf accuracy    <       0.00412886 Ry

     iteration #  5     ecut=    50.00 Ry     beta= 0.01
     Davidson diagonalization with overlap
     ethr =  5.16E-05,  avg # of iterations =  1.0

     total cpu time spent up to now is       12.9 secs

     total energy              =     -30.74392043 Ry
     estimated scf accuracy    <       0.00410657 Ry

     iteration #  6     ecut=    50.00 Ry     beta= 0.01
     Davidson diagonalization with overlap
     ethr =  5.13E-05,  avg # of iterations =  1.0

     total cpu time spent up to now is       15.0 secs

     total energy              =     -30.74209592 Ry
     estimated scf accuracy    <       0.00378935 Ry

     iteration #  7     ecut=    50.00 Ry     beta= 0.01
     Davidson diagonalization with overlap
     ethr =  4.74E-05,  avg # of iterations =  2.0

     total cpu time spent up to now is       17.8 secs

     total energy              =     -30.74374392 Ry
     estimated scf accuracy    <       0.00282340 Ry

     iteration #  8     ecut=    50.00 Ry     beta= 0.01
     Davidson diagonalization with overlap
     ethr =  3.53E-05,  avg # of iterations =  1.0

     total cpu time spent up to now is       19.8 secs

     total energy              =     -30.74364476 Ry
     estimated scf accuracy    <       0.00313905 Ry

     iteration #  9     ecut=    50.00 Ry     beta= 0.01
     Davidson diagonalization with overlap
     ethr =  3.53E-05,  avg # of iterations =  1.0

     total cpu time spent up to now is       21.9 secs

     total energy              =     -30.74303781 Ry
     estimated scf accuracy    <       0.00267234 Ry

     iteration # 10     ecut=    50.00 Ry     beta= 0.01
     Davidson diagonalization with overlap
     ethr =  3.34E-05,  avg # of iterations =  1.0

     total cpu time spent up to now is       23.9 secs

     total energy              =     -30.74324032 Ry
     estimated scf accuracy    <       0.00010458 Ry

     iteration # 11     ecut=    50.00 Ry     beta= 0.01
     Davidson diagonalization with overlap
     ethr =  1.31E-06,  avg # of iterations =  2.0

     total cpu time spent up to now is       26.6 secs

     total energy              =     -30.74325203 Ry
     estimated scf accuracy    <       0.00003119 Ry

     iteration # 12     ecut=    50.00 Ry     beta= 0.01
     Davidson diagonalization with overlap
     ethr =  3.90E-07,  avg # of iterations =  1.0

     total cpu time spent up to now is       28.7 secs

     total energy              =     -30.74324975 Ry
     estimated scf accuracy    <       0.00002674 Ry

     iteration # 13     ecut=    50.00 Ry     beta= 0.01
     Davidson diagonalization with overlap
     ethr =  3.34E-07,  avg # of iterations =  1.0

     total cpu time spent up to now is       30.8 secs

     total energy              =     -30.74324167 Ry
     estimated scf accuracy    <       0.00001826 Ry

     iteration # 14     ecut=    50.00 Ry     beta= 0.01
     Davidson diagonalization with overlap
     ethr =  2.28E-07,  avg # of iterations =  2.0

     total cpu time spent up to now is       33.4 secs

     total energy              =     -30.74324569 Ry
     estimated scf accuracy    <       0.00000303 Ry

     iteration # 15     ecut=    50.00 Ry     beta= 0.01
     Davidson diagonalization with overlap
     ethr =  3.78E-08,  avg # of iterations =  1.9

     total cpu time spent up to now is       35.2 secs

     End of self-consistent calculation

          k = 0.0000 0.0000 0.0000 (  1363 PWs)   bands (ev):

   -12.7945   1.1420   1.1420   1.1420

          k =-0.1000 0.1000-0.1000 (  1351 PWs)   bands (ev):

   -12.7390   0.7871   1.1136   1.1136

          k =-0.2000 0.2000-0.2000 (  1336 PWs)   bands (ev):

   -12.5884  -0.0312   1.0420   1.0420

          k =-0.3000 0.3000-0.3000 (  1344 PWs)   bands (ev):

   -12.3901  -0.9074   0.9585   0.9585

          k =-0.4000 0.4000-0.4000 (  1338 PWs)   bands (ev):

   -12.2176  -1.5518   0.8947   0.8947

          k = 0.5000-0.5000 0.5000 (  1350 PWs)   bands (ev):

   -12.1487  -1.7877   0.8712   0.8712

          k = 0.0000 0.2000 0.0000 (  1343 PWs)   bands (ev):

   -12.7201   0.8319   1.0168   1.0168

          k =-0.1000 0.3000-0.1000 (  1344 PWs)   bands (ev):

   -12.6004   0.2025   0.8923   0.9699

          k =-0.2000 0.4000-0.2000 (  1340 PWs)   bands (ev):

   -12.4158  -0.6363   0.7897   0.8701

          k =-0.3000 0.5000-0.3000 (  1341 PWs)   bands (ev):

   -12.2314  -1.3389   0.7266   0.7457

          k = 0.6000-0.4000 0.6000 (  1346 PWs)   bands (ev):

   -12.1252  -1.6996   0.5973   0.7735

          k = 0.5000-0.3000 0.5000 (  1339 PWs)   bands (ev):

   -12.1485  -1.6183   0.5300   0.8627

          k = 0.4000-0.2000 0.4000 (  1339 PWs)   bands (ev):

   -12.2900  -1.1205   0.5515   0.9826

          k = 0.3000-0.1000 0.3000 (  1349 PWs)   bands (ev):

   -12.4833  -0.3569   0.6673   1.0898

          k = 0.2000 0.0000 0.2000 (  1353 PWs)   bands (ev):

   -12.6516   0.3914   0.8783   1.1414

          k = 0.0000 0.4000 0.0000 (  1343 PWs)   bands (ev):

   -12.5154   0.0630   0.7069   0.7069

          k =-0.1000 0.5000-0.1000 (  1335 PWs)   bands (ev):

   -12.3589  -0.5381   0.5440   0.5572

          k =-0.2000 0.6000-0.2000 (  1345 PWs)   bands (ev):

   -12.1845  -1.1407   0.3015   0.4932

          k = 0.7000-0.3000 0.7000 (  1336 PWs)   bands (ev):

   -12.0617  -1.4991   0.0307   0.5341

          k = 0.6000-0.2000 0.6000 (  1350 PWs)   bands (ev):

   -12.0477  -1.5033  -0.1562   0.6671

          k = 0.5000-0.1000 0.5000 (  1340 PWs)   bands (ev):

   -12.1486  -1.1780  -0.1608   0.8492

          k = 0.4000 0.0000 0.4000 (  1330 PWs)   bands (ev):

   -12.3169  -0.7288   0.1298   1.0134

          k = 0.0000 0.6000 0.0000 (  1327 PWs)   bands (ev):

   -12.2367  -0.8465   0.3538   0.3538

          k =-0.1000 0.7000-0.1000 (  1337 PWs)   bands (ev):

   -12.0916  -1.2591   0.1153   0.2462

          k = 0.8000-0.2000 0.8000 (  1336 PWs)   bands (ev):

   -11.9798  -1.4650  -0.2791   0.2648

          k = 0.7000-0.1000 0.7000 (  1327 PWs)   bands (ev):

   -11.9506  -1.3469  -0.6974   0.4046

          k = 0.6000-0.0000 0.6000 (  1332 PWs)   bands (ev):

   -12.0172  -1.0742  -0.8256   0.6248

          k = 0.0000 0.8000 0.0000 (  1347 PWs)   bands (ev):

   -11.9862  -1.5740   0.0886   0.0886

          k = 0.9000-0.1000 0.9000 (  1339 PWs)   bands (ev):

   -11.9103  -1.7194  -0.1297   0.0645

          k = 0.8000 0.0000 0.8000 (  1328 PWs)   bands (ev):

   -11.8967  -1.5758  -0.5173   0.1801

          k = 0.0000-1.0000 0.0000 (  1338 PWs)   bands (ev):

   -11.8829  -1.8531  -0.0085  -0.0085

          k =-0.2000 0.4000 0.0000 (  1340 PWs)   bands (ev):

   -12.4622  -0.2673   0.5377   0.9342

          k =-0.3000 0.5000-0.1000 (  1336 PWs)   bands (ev):

   -12.2809  -0.8914   0.2637   0.8349

          k = 0.6000-0.4000 0.8000 (  1337 PWs)   bands (ev):

   -12.1247  -1.4045   0.1322   0.7086

          k = 0.5000-0.3000 0.7000 (  1346 PWs)   bands (ev):

   -12.0626  -1.5993   0.0967   0.6507

          k =-0.2000 0.6000 0.0000 (  1327 PWs)   bands (ev):

   -12.2064  -0.9464   0.1537   0.5028

          k = 0.7000-0.3000 0.9000 (  1335 PWs)   bands (ev):

   -12.0605  -1.2826  -0.1815   0.4010

          k = 0.6000-0.2000 0.8000 (  1332 PWs)   bands (ev):

   -11.9820  -1.4030  -0.4546   0.3924

          k = 0.5000-0.1000 0.7000 (  1336 PWs)   bands (ev):

   -12.0075  -1.2759  -0.5694   0.5132

          k = 0.4000 0.0000 0.6000 (  1339 PWs)   bands (ev):

   -12.1246  -1.0761  -0.3187   0.6966

          k = 0.8000-0.2000 1.0000 (  1336 PWs)   bands (ev):

   -11.9784  -1.4959  -0.1324   0.1401

          k = 0.7000-0.1000 0.9000 (  1337 PWs)   bands (ev):

   -11.9136  -1.4851  -0.5124   0.1345

          k = 0.6000 0.0000 0.8000 (  1333 PWs)   bands (ev):

   -11.9252  -1.1899  -0.9169   0.2829

          k =-0.2000-1.0000 0.0000 (  1334 PWs)   bands (ev):

   -11.8851  -1.7133  -0.2367   0.0071

          k = 0.6000-0.2000 1.0000 (  1336 PWs)   bands (ev):

   -11.9564  -1.2668  -0.6468   0.2422

          k = 0.5000-0.1000 0.9000 (  1334 PWs)   bands (ev):

   -11.9156  -1.1665  -0.9026   0.1599

          k =-0.4000-1.0000 0.0000 (  1342 PWs)   bands (ev):

   -11.8890  -1.3203  -0.7652   0.0324

     highest occupied level (ev):     1.1420

!    total energy              =     -30.74324602 Ry
     estimated scf accuracy    <       0.00000007 Ry

     The total energy is the sum of the following terms:
     one-electron contribution =      -4.76908142 Ry
     hartree contribution      =       5.74955074 Ry
     xc contribution           =      -6.36912718 Ry
     ewald contribution        =     -25.35458816 Ry

     convergence has been achieved in  15 iterations
     Writing meta-gga kinetic term

     Writing all to output data dir ./input_pw/LiCl/6/pwscf.save/
     Writing meta-gga kinetic term
 
     init_run     :      1.36s CPU      2.99s WALL (       1 calls)
     electrons    :     16.36s CPU     32.09s WALL (       1 calls)

     Called by init_run:
     wfcinit      :      1.22s CPU      2.68s WALL (       1 calls)
     potinit      :      0.03s CPU      0.06s WALL (       1 calls)
     hinit0       :      0.09s CPU      0.22s WALL (       1 calls)

     Called by electrons:
     c_bands      :     12.67s CPU     25.30s WALL (      15 calls)
     sum_band     :      3.14s CPU      5.75s WALL (      15 calls)
     v_of_rho     :      0.31s CPU      0.63s WALL (      16 calls)
     mix_rho      :      0.25s CPU      0.43s WALL (      15 calls)

     Called by c_bands:
     init_us_2    :      0.25s CPU      0.42s WALL (    1457 calls)
     init_us_2:cp :      0.24s CPU      0.42s WALL (    1457 calls)
     cegterg      :     12.44s CPU     24.83s WALL (     705 calls)

     Called by *egterg:
     cdiaghg      :      0.10s CPU      0.24s WALL (    1592 calls)
     h_psi        :     13.21s CPU     26.51s WALL (    1639 calls)
     g_psi        :      0.01s CPU      0.03s WALL (     887 calls)

     Called by h_psi:
     h_psi:calbec :      0.07s CPU      0.15s WALL (    1639 calls)
     vloc_psi     :      3.23s CPU      6.57s WALL (    1639 calls)
     add_vuspsi   :      0.06s CPU      0.12s WALL (    1639 calls)
     h_psi_meta   :      9.82s CPU     19.61s WALL (    1639 calls)

     General routines
     calbec       :      0.06s CPU      0.15s WALL (    1639 calls)
     fft          :      0.04s CPU      0.06s WALL (     189 calls)
     ffts         :      0.07s CPU      0.15s WALL (     356 calls)
     fftw         :     13.13s CPU     26.18s WALL (   65760 calls)
     interpolate  :      0.00s CPU      0.00s WALL (      16 calls)
 
     Parallel routines
 
     PWSCF        :     17.78s CPU     35.22s WALL

 
   This run was terminated on:  10:22: 9  29Mar2023            

=------------------------------------------------------------------------------=
   JOB DONE.
=------------------------------------------------------------------------------=
