
     Program PWSCF v.7.0 starts on  7Jul2023 at 14:24:17 

     This program is part of the open-source Quantum ESPRESSO suite
     for quantum simulation of materials; please cite
         "P. Giannozzi et al., J. Phys.:Condens. Matter 21 395502 (2009);
         "P. Giannozzi et al., J. Phys.:Condens. Matter 29 465901 (2017);
         "P. Giannozzi et al., J. Chem. Phys. 152 154105 (2020);
          URL http://www.quantum-espresso.org", 
     in publications or presentations arising from this work. More details at
     http://www.quantum-espresso.org/quote

     Parallel version (MPI), running on     1 processors

     MPI processes distributed on     1 nodes
     27005 MiB available memory on the printing compute node when the environment starts
 
     Waiting for input...
     Reading input from standard input
Warning: card &CELL ignored
Warning: card / ignored

     Current dimensions of program PWSCF are:
     Max number of different atomic species (ntypx) = 10
     Max number of k-points (npk) =  40000
     Max angular momentum in pseudopotentials (lmaxx) =  4
     file Cl.SCAN.UPF2: wavefunction(s)  0D renormalized

     WARNING: the MGGA functional with ID    5 has been 
     read together with other dft terms, but it should 
     stand alone in order to work properly. The other 
     terms will be ignored.

     WARNING: the MGGA functional with ID    5 has been 
     read together with other dft terms, but it should 
     stand alone in order to work properly. The other 
     terms will be ignored.

     Subspace diagonalization in iterative solution of the eigenvalue problem:
     a serial algorithm will be used

 
     G-vector sticks info
     --------------------
     sticks:   dense  smooth     PW     G-vecs:    dense   smooth      PW
     Sum         649     649    199                10777    10777    1893
 
     Using Slab Decomposition
 


     bravais-lattice index     =            2
     lattice parameter (alat)  =       9.6432  a.u.
     unit-cell volume          =     224.1821 (a.u.)^3
     number of atoms/cell      =            2
     number of atomic types    =            2
     number of electrons       =         8.00
     number of Kohn-Sham states=            4
     kinetic-energy cutoff     =      50.0000  Ry
     charge density cutoff     =     200.0000  Ry
     scf convergence threshold =      2.0E-05
     mixing beta               =       0.2000
     number of iterations used =            8  local-TF  mixing
     Exchange-correlation= SLA  PW   SCAN SCAN
                           (   0   0   0   0   0 263 267)

     celldm(1)=   9.643180  celldm(2)=   0.000000  celldm(3)=   0.000000
     celldm(4)=   0.000000  celldm(5)=   0.000000  celldm(6)=   0.000000

     crystal axes: (cart. coord. in units of alat)
               a(1) = (  -0.500000   0.000000   0.500000 )  
               a(2) = (   0.000000   0.500000   0.500000 )  
               a(3) = (  -0.500000   0.500000   0.000000 )  

     reciprocal axes: (cart. coord. in units 2 pi/alat)
               b(1) = ( -1.000000 -1.000000  1.000000 )  
               b(2) = (  1.000000  1.000000  1.000000 )  
               b(3) = ( -1.000000  1.000000 -1.000000 )  


     PseudoPot. # 1 for Li read from file:
     ~/Documents/TA/PWDFT.jl/pseudopotentials/scan_upf/Li.SCAN.UPF2
     MD5 check sum: Not computed, couldn't open file
     Pseudo is Norm-conserving, Zval =  1.0
     Generated by new atomic code, or converted to UPF format
     Using radial grid of 1321 points,  1 beta functions with: 
                l(1) =   0

     PseudoPot. # 2 for Cl read from file:
     ~/Documents/TA/PWDFT.jl/pseudopotentials/scan_upf/Cl.SCAN.UPF2
     MD5 check sum: Not computed, couldn't open file
     Pseudo is Norm-conserving, Zval =  7.0
     Generated by new atomic code, or converted to UPF format
     Using radial grid of 1493 points,  2 beta functions with: 
                l(1) =   0
                l(2) =   1

     atomic species   valence    mass     pseudopotential
        Li             1.00     6.94100     Li( 1.00)
        Cl             7.00    35.45300     Cl( 1.00)

     48 Sym. Ops., with inversion, found



   Cartesian axes

     site n.     atom                  positions (alat units)
         1           Li  tau(   1) = (   0.0000000   0.0000000   0.0000000  )
         2           Cl  tau(   2) = (   0.5000000   0.5000000   0.5000000  )

     number of k points=    47
                       cart. coord. in units 2pi/alat
        k(    1) = (   0.0000000   0.0000000   0.0000000), wk =   0.0020000
        k(    2) = (  -0.1000000   0.1000000  -0.1000000), wk =   0.0160000
        k(    3) = (  -0.2000000   0.2000000  -0.2000000), wk =   0.0160000
        k(    4) = (  -0.3000000   0.3000000  -0.3000000), wk =   0.0160000
        k(    5) = (  -0.4000000   0.4000000  -0.4000000), wk =   0.0160000
        k(    6) = (   0.5000000  -0.5000000   0.5000000), wk =   0.0080000
        k(    7) = (   0.0000000   0.2000000   0.0000000), wk =   0.0120000
        k(    8) = (  -0.1000000   0.3000000  -0.1000000), wk =   0.0480000
        k(    9) = (  -0.2000000   0.4000000  -0.2000000), wk =   0.0480000
        k(   10) = (  -0.3000000   0.5000000  -0.3000000), wk =   0.0480000
        k(   11) = (   0.6000000  -0.4000000   0.6000000), wk =   0.0480000
        k(   12) = (   0.5000000  -0.3000000   0.5000000), wk =   0.0480000
        k(   13) = (   0.4000000  -0.2000000   0.4000000), wk =   0.0480000
        k(   14) = (   0.3000000  -0.1000000   0.3000000), wk =   0.0480000
        k(   15) = (   0.2000000   0.0000000   0.2000000), wk =   0.0240000
        k(   16) = (   0.0000000   0.4000000   0.0000000), wk =   0.0120000
        k(   17) = (  -0.1000000   0.5000000  -0.1000000), wk =   0.0480000
        k(   18) = (  -0.2000000   0.6000000  -0.2000000), wk =   0.0480000
        k(   19) = (   0.7000000  -0.3000000   0.7000000), wk =   0.0480000
        k(   20) = (   0.6000000  -0.2000000   0.6000000), wk =   0.0480000
        k(   21) = (   0.5000000  -0.1000000   0.5000000), wk =   0.0480000
        k(   22) = (   0.4000000   0.0000000   0.4000000), wk =   0.0240000
        k(   23) = (   0.0000000   0.6000000   0.0000000), wk =   0.0120000
        k(   24) = (  -0.1000000   0.7000000  -0.1000000), wk =   0.0480000
        k(   25) = (   0.8000000  -0.2000000   0.8000000), wk =   0.0480000
        k(   26) = (   0.7000000  -0.1000000   0.7000000), wk =   0.0480000
        k(   27) = (   0.6000000  -0.0000000   0.6000000), wk =   0.0240000
        k(   28) = (   0.0000000   0.8000000   0.0000000), wk =   0.0120000
        k(   29) = (   0.9000000  -0.1000000   0.9000000), wk =   0.0480000
        k(   30) = (   0.8000000   0.0000000   0.8000000), wk =   0.0240000
        k(   31) = (   0.0000000  -1.0000000   0.0000000), wk =   0.0060000
        k(   32) = (  -0.2000000   0.4000000   0.0000000), wk =   0.0480000
        k(   33) = (  -0.3000000   0.5000000  -0.1000000), wk =   0.0960000
        k(   34) = (   0.6000000  -0.4000000   0.8000000), wk =   0.0960000
        k(   35) = (   0.5000000  -0.3000000   0.7000000), wk =   0.0480000
        k(   36) = (  -0.2000000   0.6000000   0.0000000), wk =   0.0480000
        k(   37) = (   0.7000000  -0.3000000   0.9000000), wk =   0.0960000
        k(   38) = (   0.6000000  -0.2000000   0.8000000), wk =   0.0960000
        k(   39) = (   0.5000000  -0.1000000   0.7000000), wk =   0.0960000
        k(   40) = (   0.4000000   0.0000000   0.6000000), wk =   0.0480000
        k(   41) = (   0.8000000  -0.2000000   1.0000000), wk =   0.0480000
        k(   42) = (   0.7000000  -0.1000000   0.9000000), wk =   0.0960000
        k(   43) = (   0.6000000   0.0000000   0.8000000), wk =   0.0480000
        k(   44) = (  -0.2000000  -1.0000000   0.0000000), wk =   0.0240000
        k(   45) = (   0.6000000  -0.2000000   1.0000000), wk =   0.0480000
        k(   46) = (   0.5000000  -0.1000000   0.9000000), wk =   0.0480000
        k(   47) = (  -0.4000000  -1.0000000   0.0000000), wk =   0.0240000

     Dense  grid:    10777 G-vectors     FFT dimensions: (  32,  32,  32)

     Estimated max dynamical RAM per process >      20.51 MB

     WARNING: libxc functional with ID  263 depends
      on external parameters: check the user_guide of
      QE if you need to modify them or to check their
      default values.

     Initial potential from superposition of free atoms

     starting charge       7.9953, renormalised to       8.0000
     Starting wfcs are   13 randomized atomic wfcs

     total cpu time spent up to now is        1.8 secs

     Self-consistent Calculation

     iteration #  1     ecut=    50.00 Ry     beta= 0.20
     Davidson diagonalization with overlap
     ethr =  1.00E-02,  avg # of iterations =  1.0

     total cpu time spent up to now is        3.9 secs

     total energy              =     -30.70226268 Ry
     estimated scf accuracy    <       0.35444353 Ry

     iteration #  2     ecut=    50.00 Ry     beta= 0.20
     Davidson diagonalization with overlap
     ethr =  4.43E-03,  avg # of iterations =  1.0

     total cpu time spent up to now is        5.9 secs

     total energy              =     -30.73949946 Ry
     estimated scf accuracy    <       0.22952189 Ry

     iteration #  3     ecut=    50.00 Ry     beta= 0.20
     Davidson diagonalization with overlap
     ethr =  2.87E-03,  avg # of iterations =  1.0

     total cpu time spent up to now is        8.0 secs

     total energy              =     -30.74270229 Ry
     estimated scf accuracy    <       0.00194744 Ry

     iteration #  4     ecut=    50.00 Ry     beta= 0.20
     Davidson diagonalization with overlap
     ethr =  2.43E-05,  avg # of iterations =  2.0

     total cpu time spent up to now is       10.5 secs

     total energy              =     -30.74304455 Ry
     estimated scf accuracy    <       0.00107111 Ry

     iteration #  5     ecut=    50.00 Ry     beta= 0.20
     Davidson diagonalization with overlap
     ethr =  1.34E-05,  avg # of iterations =  1.2

     total cpu time spent up to now is       12.5 secs

     total energy              =     -30.74318876 Ry
     estimated scf accuracy    <       0.00021935 Ry

     iteration #  6     ecut=    50.00 Ry     beta= 0.20
     Davidson diagonalization with overlap
     ethr =  2.74E-06,  avg # of iterations =  2.0

     total cpu time spent up to now is       15.4 secs

     total energy              =     -30.74324028 Ry
     estimated scf accuracy    <       0.00005516 Ry

     iteration #  7     ecut=    50.00 Ry     beta= 0.20
     Davidson diagonalization with overlap
     ethr =  6.89E-07,  avg # of iterations =  1.0

     total cpu time spent up to now is       17.1 secs

     End of self-consistent calculation

          k = 0.0000 0.0000 0.0000 (  1363 PWs)   bands (ev):

   -12.7924   1.1440   1.1440   1.1440

          k =-0.1000 0.1000-0.1000 (  1351 PWs)   bands (ev):

   -12.7368   0.7888   1.1156   1.1156

          k =-0.2000 0.2000-0.2000 (  1336 PWs)   bands (ev):

   -12.5862  -0.0299   1.0440   1.0440

          k =-0.3000 0.3000-0.3000 (  1344 PWs)   bands (ev):

   -12.3878  -0.9065   0.9605   0.9605

          k =-0.4000 0.4000-0.4000 (  1338 PWs)   bands (ev):

   -12.2153  -1.5511   0.8966   0.8966

          k = 0.5000-0.5000 0.5000 (  1350 PWs)   bands (ev):

   -12.1464  -1.7871   0.8731   0.8731

          k = 0.0000 0.2000 0.0000 (  1343 PWs)   bands (ev):

   -12.7179   0.8337   1.0188   1.0188

          k =-0.1000 0.3000-0.1000 (  1344 PWs)   bands (ev):

   -12.5982   0.2039   0.8942   0.9718

          k =-0.2000 0.4000-0.2000 (  1340 PWs)   bands (ev):

   -12.4136  -0.6353   0.7916   0.8720

          k =-0.3000 0.5000-0.3000 (  1341 PWs)   bands (ev):

   -12.2291  -1.3382   0.7283   0.7475

          k = 0.6000-0.4000 0.6000 (  1346 PWs)   bands (ev):

   -12.1228  -1.6990   0.5990   0.7754

          k = 0.5000-0.3000 0.5000 (  1339 PWs)   bands (ev):

   -12.1462  -1.6177   0.5317   0.8646

          k = 0.4000-0.2000 0.4000 (  1339 PWs)   bands (ev):

   -12.2877  -1.1197   0.5531   0.9845

          k = 0.3000-0.1000 0.3000 (  1349 PWs)   bands (ev):

   -12.4811  -0.3558   0.6691   1.0918

          k = 0.2000 0.0000 0.2000 (  1353 PWs)   bands (ev):

   -12.6494   0.3929   0.8802   1.1435

          k = 0.0000 0.4000 0.0000 (  1343 PWs)   bands (ev):

   -12.5132   0.0642   0.7087   0.7087

          k =-0.1000 0.5000-0.1000 (  1335 PWs)   bands (ev):

   -12.3566  -0.5371   0.5457   0.5589

          k =-0.2000 0.6000-0.2000 (  1345 PWs)   bands (ev):

   -12.1822  -1.1399   0.3030   0.4949

          k = 0.7000-0.3000 0.7000 (  1336 PWs)   bands (ev):

   -12.0593  -1.4985   0.0320   0.5358

          k = 0.6000-0.2000 0.6000 (  1350 PWs)   bands (ev):

   -12.0453  -1.5027  -0.1550   0.6689

          k = 0.5000-0.1000 0.5000 (  1340 PWs)   bands (ev):

   -12.1462  -1.1772  -0.1596   0.8511

          k = 0.4000 0.0000 0.4000 (  1330 PWs)   bands (ev):

   -12.3146  -0.7278   0.1312   1.0154

          k = 0.0000 0.6000 0.0000 (  1327 PWs)   bands (ev):

   -12.2344  -0.8458   0.3555   0.3555

          k =-0.1000 0.7000-0.1000 (  1337 PWs)   bands (ev):

   -12.0892  -1.2585   0.1167   0.2478

          k = 0.8000-0.2000 0.8000 (  1336 PWs)   bands (ev):

   -11.9774  -1.4644  -0.2779   0.2664

          k = 0.7000-0.1000 0.7000 (  1327 PWs)   bands (ev):

   -11.9481  -1.3462  -0.6964   0.4063

          k = 0.6000-0.0000 0.6000 (  1332 PWs)   bands (ev):

   -12.0148  -1.0734  -0.8248   0.6266

          k = 0.0000 0.8000 0.0000 (  1347 PWs)   bands (ev):

   -11.9838  -1.5735   0.0901   0.0901

          k = 0.9000-0.1000 0.9000 (  1339 PWs)   bands (ev):

   -11.9079  -1.7189  -0.1283   0.0660

          k = 0.8000 0.0000 0.8000 (  1328 PWs)   bands (ev):

   -11.8943  -1.5753  -0.5162   0.1817

          k = 0.0000-1.0000 0.0000 (  1338 PWs)   bands (ev):

   -11.8805  -1.8527  -0.0070  -0.0070

          k =-0.2000 0.4000 0.0000 (  1340 PWs)   bands (ev):

   -12.4599  -0.2661   0.5394   0.9361

          k =-0.3000 0.5000-0.1000 (  1336 PWs)   bands (ev):

   -12.2786  -0.8905   0.2651   0.8367

          k = 0.6000-0.4000 0.8000 (  1337 PWs)   bands (ev):

   -12.1223  -1.4039   0.1336   0.7104

          k = 0.5000-0.3000 0.7000 (  1346 PWs)   bands (ev):

   -12.0602  -1.5987   0.0980   0.6525

          k =-0.2000 0.6000 0.0000 (  1327 PWs)   bands (ev):

   -12.2041  -0.9456   0.1552   0.5044

          k = 0.7000-0.3000 0.9000 (  1335 PWs)   bands (ev):

   -12.0582  -1.2819  -0.1803   0.4026

          k = 0.6000-0.2000 0.8000 (  1332 PWs)   bands (ev):

   -11.9796  -1.4024  -0.4536   0.3940

          k = 0.5000-0.1000 0.7000 (  1336 PWs)   bands (ev):

   -12.0051  -1.2752  -0.5684   0.5149

          k = 0.4000 0.0000 0.6000 (  1339 PWs)   bands (ev):

   -12.1222  -1.0753  -0.3176   0.6984

          k = 0.8000-0.2000 1.0000 (  1336 PWs)   bands (ev):

   -11.9760  -1.4954  -0.1311   0.1416

          k = 0.7000-0.1000 0.9000 (  1337 PWs)   bands (ev):

   -11.9112  -1.4846  -0.5114   0.1360

          k = 0.6000 0.0000 0.8000 (  1333 PWs)   bands (ev):

   -11.9228  -1.1892  -0.9160   0.2845

          k =-0.2000-1.0000 0.0000 (  1334 PWs)   bands (ev):

   -11.8827  -1.7129  -0.2354   0.0086

          k = 0.6000-0.2000 1.0000 (  1336 PWs)   bands (ev):

   -11.9540  -1.2661  -0.6458   0.2437

          k = 0.5000-0.1000 0.9000 (  1334 PWs)   bands (ev):

   -11.9131  -1.1658  -0.9018   0.1614

          k =-0.4000-1.0000 0.0000 (  1342 PWs)   bands (ev):

   -11.8865  -1.3196  -0.7643   0.0338

     highest occupied level (ev):     1.1440

!    total energy              =     -30.74324486 Ry
     estimated scf accuracy    <       0.00000336 Ry

     The total energy is the sum of the following terms:
     one-electron contribution =      -4.76683109 Ry
     hartree contribution      =       5.74653461 Ry
     xc contribution           =      -6.36830823 Ry
     ewald contribution        =     -25.35464016 Ry

     convergence has been achieved in   7 iterations
     Writing meta-gga kinetic term

     Writing all to output data dir ./input_pw/LiCl/6/pwscf.save/
     Writing meta-gga kinetic term
 
     init_run     :      1.36s CPU      1.75s WALL (       1 calls)
     electrons    :      7.79s CPU     15.26s WALL (       1 calls)

     Called by init_run:
     wfcinit      :      1.23s CPU      1.56s WALL (       1 calls)
     potinit      :      0.02s CPU      0.07s WALL (       1 calls)
     hinit0       :      0.09s CPU      0.10s WALL (       1 calls)

     Called by electrons:
     c_bands      :      6.08s CPU     12.13s WALL (       7 calls)
     sum_band     :      1.48s CPU      2.71s WALL (       7 calls)
     v_of_rho     :      0.16s CPU      0.30s WALL (       8 calls)
     mix_rho      :      0.09s CPU      0.18s WALL (       7 calls)

     Called by c_bands:
     init_us_2    :      0.12s CPU      0.25s WALL (     705 calls)
     init_us_2:cp :      0.12s CPU      0.25s WALL (     705 calls)
     cegterg      :      5.97s CPU     11.85s WALL (     329 calls)

     Called by *egterg:
     cdiaghg      :      0.04s CPU      0.05s WALL (     760 calls)
     h_psi        :      6.96s CPU     13.05s WALL (     807 calls)
     g_psi        :      0.01s CPU      0.01s WALL (     431 calls)

     Called by h_psi:
     h_psi:calbec :      0.03s CPU      0.04s WALL (     807 calls)
     vloc_psi     :      1.70s CPU      3.23s WALL (     807 calls)
     add_vuspsi   :      0.03s CPU      0.05s WALL (     807 calls)
     h_psi_meta   :      5.18s CPU      9.68s WALL (     807 calls)

     General routines
     calbec       :      0.03s CPU      0.04s WALL (     807 calls)
     fft          :      0.02s CPU      0.04s WALL (      93 calls)
     ffts         :      0.03s CPU      0.05s WALL (     148 calls)
     fftw         :      6.93s CPU     12.99s WALL (   33968 calls)
     interpolate  :      0.00s CPU      0.00s WALL (       8 calls)
 
     Parallel routines
 
     PWSCF        :      9.20s CPU     17.09s WALL

 
   This run was terminated on:  14:24:35   7Jul2023            

=------------------------------------------------------------------------------=
   JOB DONE.
=------------------------------------------------------------------------------=
