
     Program PWSCF v.7.0 starts on 14Mar2023 at 12: 2:31 

     This program is part of the open-source Quantum ESPRESSO suite
     for quantum simulation of materials; please cite
         "P. Giannozzi et al., J. Phys.:Condens. Matter 21 395502 (2009);
         "P. Giannozzi et al., J. Phys.:Condens. Matter 29 465901 (2017);
         "P. Giannozzi et al., J. Chem. Phys. 152 154105 (2020);
          URL http://www.quantum-espresso.org", 
     in publications or presentations arising from this work. More details at
     http://www.quantum-espresso.org/quote

     Parallel version (MPI), running on     1 processors

     MPI processes distributed on     1 nodes
     26993 MiB available memory on the printing compute node when the environment starts
 
     Waiting for input...
     Reading input from standard input
Warning: card &CELL ignored
Warning: card / ignored

     Current dimensions of program PWSCF are:
     Max number of different atomic species (ntypx) = 10
     Max number of k-points (npk) =  40000
     Max angular momentum in pseudopotentials (lmaxx) =  4
     file Si.SCAN.UPF2: wavefunction(s)  0D renormalized

     WARNING: the MGGA functional with ID    5 has been 
     read together with other dft terms, but it should 
     stand alone in order to work properly. The other 
     terms will be ignored.

     WARNING: the MGGA functional with ID    5 has been 
     read together with other dft terms, but it should 
     stand alone in order to work properly. The other 
     terms will be ignored.

     Subspace diagonalization in iterative solution of the eigenvalue problem:
     a serial algorithm will be used

 
     G-vector sticks info
     --------------------
     sticks:   dense  smooth     PW     G-vecs:    dense   smooth      PW
     Sum         967     967    301                20179    20179    3383
 
     Using Slab Decomposition
 


     bravais-lattice index     =            2
     lattice parameter (alat)  =      11.9410  a.u.
     unit-cell volume          =     425.6593 (a.u.)^3
     number of atoms/cell      =            2
     number of atomic types    =            2
     number of electrons       =         8.00
     number of Kohn-Sham states=            4
     kinetic-energy cutoff     =      50.0000  Ry
     charge density cutoff     =     200.0000  Ry
     scf convergence threshold =      1.0E-06
     mixing beta               =       0.0100
     number of iterations used =            8  local-TF  mixing
     Exchange-correlation= SLA  PW   SCAN SCAN
                           (   0   0   0   0   0 263 267)

     celldm(1)=  11.941000  celldm(2)=   0.000000  celldm(3)=   0.000000
     celldm(4)=   0.000000  celldm(5)=   0.000000  celldm(6)=   0.000000

     crystal axes: (cart. coord. in units of alat)
               a(1) = (  -0.500000   0.000000   0.500000 )  
               a(2) = (   0.000000   0.500000   0.500000 )  
               a(3) = (  -0.500000   0.500000   0.000000 )  

     reciprocal axes: (cart. coord. in units 2 pi/alat)
               b(1) = ( -1.000000 -1.000000  1.000000 )  
               b(2) = (  1.000000  1.000000  1.000000 )  
               b(3) = ( -1.000000  1.000000 -1.000000 )  


     PseudoPot. # 1 for Si read from file:
     ~/Documents/TA/PWDFT.jl/pseudopotentials/scan_upf/Si.SCAN.UPF2
     MD5 check sum: Not computed, couldn't open file
     Pseudo is Norm-conserving, Zval =  4.0
     Generated by new atomic code, or converted to UPF format
     Using radial grid of 1475 points,  2 beta functions with: 
                l(1) =   0
                l(2) =   1

     PseudoPot. # 2 for C  read from file:
     ~/Documents/TA/PWDFT.jl/pseudopotentials/scan_upf/C.SCAN.UPF2
     MD5 check sum: Not computed, couldn't open file
     Pseudo is Norm-conserving, Zval =  4.0
     Generated by new atomic code, or converted to UPF format
     Using radial grid of 1389 points,  1 beta functions with: 
                l(1) =   0

     atomic species   valence    mass     pseudopotential
        Si             4.00    28.08550     Si( 1.00)
        C              4.00    12.01100     C ( 1.00)

     24 Sym. Ops. (no inversion) found



   Cartesian axes

     site n.     atom                  positions (alat units)
         1           Si  tau(   1) = (   0.0000000   0.0000000   0.0000000  )
         2           C   tau(   2) = (   0.2500000   0.2500000   0.2500000  )

     number of k points=    47
                       cart. coord. in units 2pi/alat
        k(    1) = (   0.0000000   0.0000000   0.0000000), wk =   0.0020000
        k(    2) = (  -0.1000000   0.1000000  -0.1000000), wk =   0.0160000
        k(    3) = (  -0.2000000   0.2000000  -0.2000000), wk =   0.0160000
        k(    4) = (  -0.3000000   0.3000000  -0.3000000), wk =   0.0160000
        k(    5) = (  -0.4000000   0.4000000  -0.4000000), wk =   0.0160000
        k(    6) = (   0.5000000  -0.5000000   0.5000000), wk =   0.0080000
        k(    7) = (   0.0000000   0.2000000   0.0000000), wk =   0.0120000
        k(    8) = (  -0.1000000   0.3000000  -0.1000000), wk =   0.0480000
        k(    9) = (  -0.2000000   0.4000000  -0.2000000), wk =   0.0480000
        k(   10) = (  -0.3000000   0.5000000  -0.3000000), wk =   0.0480000
        k(   11) = (   0.6000000  -0.4000000   0.6000000), wk =   0.0480000
        k(   12) = (   0.5000000  -0.3000000   0.5000000), wk =   0.0480000
        k(   13) = (   0.4000000  -0.2000000   0.4000000), wk =   0.0480000
        k(   14) = (   0.3000000  -0.1000000   0.3000000), wk =   0.0480000
        k(   15) = (   0.2000000   0.0000000   0.2000000), wk =   0.0240000
        k(   16) = (   0.0000000   0.4000000   0.0000000), wk =   0.0120000
        k(   17) = (  -0.1000000   0.5000000  -0.1000000), wk =   0.0480000
        k(   18) = (  -0.2000000   0.6000000  -0.2000000), wk =   0.0480000
        k(   19) = (   0.7000000  -0.3000000   0.7000000), wk =   0.0480000
        k(   20) = (   0.6000000  -0.2000000   0.6000000), wk =   0.0480000
        k(   21) = (   0.5000000  -0.1000000   0.5000000), wk =   0.0480000
        k(   22) = (   0.4000000   0.0000000   0.4000000), wk =   0.0240000
        k(   23) = (   0.0000000   0.6000000   0.0000000), wk =   0.0120000
        k(   24) = (  -0.1000000   0.7000000  -0.1000000), wk =   0.0480000
        k(   25) = (   0.8000000  -0.2000000   0.8000000), wk =   0.0480000
        k(   26) = (   0.7000000  -0.1000000   0.7000000), wk =   0.0480000
        k(   27) = (   0.6000000  -0.0000000   0.6000000), wk =   0.0240000
        k(   28) = (   0.0000000   0.8000000   0.0000000), wk =   0.0120000
        k(   29) = (   0.9000000  -0.1000000   0.9000000), wk =   0.0480000
        k(   30) = (   0.8000000   0.0000000   0.8000000), wk =   0.0240000
        k(   31) = (   0.0000000  -1.0000000   0.0000000), wk =   0.0060000
        k(   32) = (  -0.2000000   0.4000000   0.0000000), wk =   0.0480000
        k(   33) = (  -0.3000000   0.5000000  -0.1000000), wk =   0.0960000
        k(   34) = (   0.6000000  -0.4000000   0.8000000), wk =   0.0960000
        k(   35) = (   0.5000000  -0.3000000   0.7000000), wk =   0.0480000
        k(   36) = (  -0.2000000   0.6000000   0.0000000), wk =   0.0480000
        k(   37) = (   0.7000000  -0.3000000   0.9000000), wk =   0.0960000
        k(   38) = (   0.6000000  -0.2000000   0.8000000), wk =   0.0960000
        k(   39) = (   0.5000000  -0.1000000   0.7000000), wk =   0.0960000
        k(   40) = (   0.4000000   0.0000000   0.6000000), wk =   0.0480000
        k(   41) = (   0.8000000  -0.2000000   1.0000000), wk =   0.0480000
        k(   42) = (   0.7000000  -0.1000000   0.9000000), wk =   0.0960000
        k(   43) = (   0.6000000   0.0000000   0.8000000), wk =   0.0480000
        k(   44) = (  -0.2000000  -1.0000000   0.0000000), wk =   0.0240000
        k(   45) = (   0.6000000  -0.2000000   1.0000000), wk =   0.0480000
        k(   46) = (   0.5000000  -0.1000000   0.9000000), wk =   0.0480000
        k(   47) = (  -0.4000000  -1.0000000   0.0000000), wk =   0.0240000

     Dense  grid:    20179 G-vectors     FFT dimensions: (  40,  40,  40)

     Estimated max dynamical RAM per process >      38.64 MB

     WARNING: libxc functional with ID  263 depends
      on external parameters: check the user_guide of
      QE if you need to modify them or to check their
      default values.

     Initial potential from superposition of free atoms

     starting charge       7.9995, renormalised to       8.0000
     Starting wfcs are   13 randomized atomic wfcs

     total cpu time spent up to now is        9.9 secs

     Self-consistent Calculation

     iteration #  1     ecut=    50.00 Ry     beta= 0.01
     Davidson diagonalization with overlap
     ethr =  1.00E-02,  avg # of iterations =  1.0

     total cpu time spent up to now is       17.1 secs

     total energy              =     -18.72096985 Ry
     estimated scf accuracy    <       0.70541222 Ry

     iteration #  2     ecut=    50.00 Ry     beta= 0.01
     Davidson diagonalization with overlap
     ethr =  8.82E-03,  avg # of iterations =  1.0

     total cpu time spent up to now is       24.0 secs

     total energy              =     -18.69091167 Ry
     estimated scf accuracy    <       0.69581728 Ry

     iteration #  3     ecut=    50.00 Ry     beta= 0.01
     Davidson diagonalization with overlap
     ethr =  8.70E-03,  avg # of iterations =  1.0

     total cpu time spent up to now is       31.9 secs

     total energy              =     -18.69432210 Ry
     estimated scf accuracy    <       0.09949617 Ry

     iteration #  4     ecut=    50.00 Ry     beta= 0.01
     Davidson diagonalization with overlap
     ethr =  1.24E-03,  avg # of iterations =  2.9

     total cpu time spent up to now is       41.6 secs

     total energy              =     -18.71188227 Ry
     estimated scf accuracy    <       0.03609772 Ry

     iteration #  5     ecut=    50.00 Ry     beta= 0.01
     Davidson diagonalization with overlap
     ethr =  4.51E-04,  avg # of iterations =  1.7

     total cpu time spent up to now is       48.5 secs

     total energy              =     -18.71487583 Ry
     estimated scf accuracy    <       0.04604939 Ry

     iteration #  6     ecut=    50.00 Ry     beta= 0.01
     Davidson diagonalization with overlap
     ethr =  4.51E-04,  avg # of iterations =  1.0

     total cpu time spent up to now is       55.2 secs

     total energy              =     -18.71298812 Ry
     estimated scf accuracy    <       0.05611583 Ry

     iteration #  7     ecut=    50.00 Ry     beta= 0.01
     Davidson diagonalization with overlap
     ethr =  4.51E-04,  avg # of iterations =  1.0

     total cpu time spent up to now is       60.9 secs

     total energy              =     -18.75273909 Ry
     estimated scf accuracy    <       0.06575766 Ry

     iteration #  8     ecut=    50.00 Ry     beta= 0.01
     Davidson diagonalization with overlap
     ethr =  4.51E-04,  avg # of iterations =  4.9

     total cpu time spent up to now is       71.2 secs

     total energy              =     -18.81033358 Ry
     estimated scf accuracy    <       0.74157837 Ry

     iteration #  9     ecut=    50.00 Ry     beta= 0.01
     Davidson diagonalization with overlap
     ethr =  4.51E-04,  avg # of iterations =  1.0

     total cpu time spent up to now is       75.3 secs

     total energy              =     -18.80909436 Ry
     estimated scf accuracy    <       0.76719320 Ry

     iteration # 10     ecut=    50.00 Ry     beta= 0.01
     Davidson diagonalization with overlap
     ethr =  4.51E-04,  avg # of iterations =  1.0

     total cpu time spent up to now is       78.9 secs

     total energy              =     -18.81380867 Ry
     estimated scf accuracy    <       0.77485974 Ry

     iteration # 11     ecut=    50.00 Ry     beta= 0.01
     Davidson diagonalization with overlap
     ethr =  4.51E-04,  avg # of iterations =  1.0

     total cpu time spent up to now is       82.0 secs

     total energy              =     -18.79968529 Ry
     estimated scf accuracy    <       0.81400099 Ry

     iteration # 12     ecut=    50.00 Ry     beta= 0.01
     Davidson diagonalization with overlap
     ethr =  4.51E-04,  avg # of iterations =  1.0

     total cpu time spent up to now is       85.2 secs

     total energy              =     -18.74873305 Ry
     estimated scf accuracy    <       0.75903402 Ry

     iteration # 13     ecut=    50.00 Ry     beta= 0.01
     Davidson diagonalization with overlap
     ethr =  4.51E-04,  avg # of iterations =  2.1

     total cpu time spent up to now is       88.9 secs

     total energy              =     -18.68192453 Ry
     estimated scf accuracy    <       0.43963070 Ry

     iteration # 14     ecut=    50.00 Ry     beta= 0.01
     Davidson diagonalization with overlap
     ethr =  4.51E-04,  avg # of iterations =  4.3

     total cpu time spent up to now is       94.1 secs

     total energy              =     -18.71528025 Ry
     estimated scf accuracy    <       0.01688529 Ry

     iteration # 15     ecut=    50.00 Ry     beta= 0.01
     Davidson diagonalization with overlap
     ethr =  2.11E-04,  avg # of iterations =  1.0

     total cpu time spent up to now is       97.2 secs

     total energy              =     -18.71569636 Ry
     estimated scf accuracy    <       0.02226808 Ry

     iteration # 16     ecut=    50.00 Ry     beta= 0.01
     Davidson diagonalization with overlap
     ethr =  2.11E-04,  avg # of iterations =  1.0

     total cpu time spent up to now is      100.1 secs

     total energy              =     -18.71734941 Ry
     estimated scf accuracy    <       0.02026927 Ry

     iteration # 17     ecut=    50.00 Ry     beta= 0.01
     Davidson diagonalization with overlap
     ethr =  2.11E-04,  avg # of iterations =  1.0

     total cpu time spent up to now is      103.1 secs

     total energy              =     -18.70505996 Ry
     estimated scf accuracy    <       0.02695802 Ry

     iteration # 18     ecut=    50.00 Ry     beta= 0.01
     Davidson diagonalization with overlap
     ethr =  2.11E-04,  avg # of iterations =  4.1

     total cpu time spent up to now is      108.6 secs

     total energy              =     -18.71689166 Ry
     estimated scf accuracy    <       0.11749740 Ry

     iteration # 19     ecut=    50.00 Ry     beta= 0.01
     Davidson diagonalization with overlap
     ethr =  2.11E-04,  avg # of iterations =  1.3

     total cpu time spent up to now is      111.6 secs

     total energy              =     -18.71656062 Ry
     estimated scf accuracy    <       0.06615061 Ry

     iteration # 20     ecut=    50.00 Ry     beta= 0.01
     Davidson diagonalization with overlap
     ethr =  2.11E-04,  avg # of iterations =  1.0

     total cpu time spent up to now is      114.6 secs

     total energy              =     -18.71453439 Ry
     estimated scf accuracy    <       0.05188980 Ry

     iteration # 21     ecut=    50.00 Ry     beta= 0.01
     Davidson diagonalization with overlap
     ethr =  2.11E-04,  avg # of iterations =  1.0

     total cpu time spent up to now is      117.5 secs

     total energy              =     -18.70693485 Ry
     estimated scf accuracy    <       0.03385267 Ry

     iteration # 22     ecut=    50.00 Ry     beta= 0.01
     Davidson diagonalization with overlap
     ethr =  2.11E-04,  avg # of iterations =  4.1

     total cpu time spent up to now is      122.7 secs

     total energy              =     -18.71075027 Ry
     estimated scf accuracy    <       0.02446637 Ry

     iteration # 23     ecut=    50.00 Ry     beta= 0.01
     Davidson diagonalization with overlap
     ethr =  2.11E-04,  avg # of iterations =  2.5

     total cpu time spent up to now is      126.4 secs

     total energy              =     -18.71421662 Ry
     estimated scf accuracy    <       0.00031511 Ry

     iteration # 24     ecut=    50.00 Ry     beta= 0.01
     Davidson diagonalization with overlap
     ethr =  3.94E-06,  avg # of iterations =  3.6

     total cpu time spent up to now is      131.3 secs

     total energy              =     -18.71407440 Ry
     estimated scf accuracy    <       0.00171524 Ry

     iteration # 25     ecut=    50.00 Ry     beta= 0.01
     Davidson diagonalization with overlap
     ethr =  3.94E-06,  avg # of iterations =  2.5

     total cpu time spent up to now is      135.4 secs

     total energy              =     -18.71374850 Ry
     estimated scf accuracy    <       0.00069526 Ry

     iteration # 26     ecut=    50.00 Ry     beta= 0.01
     Davidson diagonalization with overlap
     ethr =  3.94E-06,  avg # of iterations =  5.9

     total cpu time spent up to now is      142.2 secs

     total energy              =     -18.71356222 Ry
     estimated scf accuracy    <       0.00556123 Ry

     iteration # 27     ecut=    50.00 Ry     beta= 0.01
     Davidson diagonalization with overlap
     ethr =  3.94E-06,  avg # of iterations =  5.5

     total cpu time spent up to now is      148.1 secs

     total energy              =     -18.71420570 Ry
     estimated scf accuracy    <       0.00025809 Ry

     iteration # 28     ecut=    50.00 Ry     beta= 0.01
     Davidson diagonalization with overlap
     ethr =  3.23E-06,  avg # of iterations =  6.0

     total cpu time spent up to now is      154.4 secs

     total energy              =     -18.71395864 Ry
     estimated scf accuracy    <       0.00471010 Ry

     iteration # 29     ecut=    50.00 Ry     beta= 0.01
     Davidson diagonalization with overlap
     ethr =  3.23E-06,  avg # of iterations =  5.3

     total cpu time spent up to now is      160.4 secs

     total energy              =     -18.71459257 Ry
     estimated scf accuracy    <       0.00011953 Ry

     iteration # 30     ecut=    50.00 Ry     beta= 0.01
     Davidson diagonalization with overlap
     ethr =  1.49E-06,  avg # of iterations =  3.0

     total cpu time spent up to now is      164.7 secs

     total energy              =     -18.71463564 Ry
     estimated scf accuracy    <       0.00060470 Ry

     iteration # 31     ecut=    50.00 Ry     beta= 0.01
     Davidson diagonalization with overlap
     ethr =  1.49E-06,  avg # of iterations =  1.0

     total cpu time spent up to now is      167.6 secs

     total energy              =     -18.71482364 Ry
     estimated scf accuracy    <       0.00070462 Ry

     iteration # 32     ecut=    50.00 Ry     beta= 0.01
     Davidson diagonalization with overlap
     ethr =  1.49E-06,  avg # of iterations =  3.4

     total cpu time spent up to now is      172.4 secs

     total energy              =     -18.71444953 Ry
     estimated scf accuracy    <       0.00256853 Ry

     iteration # 33     ecut=    50.00 Ry     beta= 0.01
     Davidson diagonalization with overlap
     ethr =  1.49E-06,  avg # of iterations =  4.9

     total cpu time spent up to now is      178.0 secs

     total energy              =     -18.71461064 Ry
     estimated scf accuracy    <       0.00008930 Ry

     iteration # 34     ecut=    50.00 Ry     beta= 0.01
     Davidson diagonalization with overlap
     ethr =  1.12E-06,  avg # of iterations =  1.0

     total cpu time spent up to now is      180.9 secs

     total energy              =     -18.71462726 Ry
     estimated scf accuracy    <       0.00014312 Ry

     iteration # 35     ecut=    50.00 Ry     beta= 0.01
     Davidson diagonalization with overlap
     ethr =  1.12E-06,  avg # of iterations =  1.0

     total cpu time spent up to now is      183.8 secs

     total energy              =     -18.71463785 Ry
     estimated scf accuracy    <       0.00019736 Ry

     iteration # 36     ecut=    50.00 Ry     beta= 0.01
     Davidson diagonalization with overlap
     ethr =  1.12E-06,  avg # of iterations =  1.0

     total cpu time spent up to now is      186.6 secs

     total energy              =     -18.71455341 Ry
     estimated scf accuracy    <       0.00026129 Ry

     iteration # 37     ecut=    50.00 Ry     beta= 0.01
     Davidson diagonalization with overlap
     ethr =  1.12E-06,  avg # of iterations =  3.0

     total cpu time spent up to now is      191.0 secs

     total energy              =     -18.71458522 Ry
     estimated scf accuracy    <       0.00000304 Ry

     iteration # 38     ecut=    50.00 Ry     beta= 0.01
     Davidson diagonalization with overlap
     c_bands:  1 eigenvalues not converged
     ethr =  3.80E-08,  avg # of iterations =  6.3

     total cpu time spent up to now is      195.0 secs

     total energy              =     -18.71461793 Ry
     estimated scf accuracy    <       0.00001314 Ry

     iteration # 39     ecut=    50.00 Ry     beta= 0.01
     Davidson diagonalization with overlap
     ethr =  3.80E-08,  avg # of iterations =  8.4

     total cpu time spent up to now is      200.2 secs

     total energy              =     -18.71456130 Ry
     estimated scf accuracy    <       0.00067452 Ry

     iteration # 40     ecut=    50.00 Ry     beta= 0.01
     Davidson diagonalization with overlap
     ethr =  3.80E-08,  avg # of iterations =  7.8

     total cpu time spent up to now is      204.8 secs

     total energy              =     -18.71464295 Ry
     estimated scf accuracy    <       0.00003247 Ry

     iteration # 41     ecut=    50.00 Ry     beta= 0.01
     Davidson diagonalization with overlap
     ethr =  3.80E-08,  avg # of iterations =  8.3

     total cpu time spent up to now is      209.6 secs

     total energy              =     -18.71463474 Ry
     estimated scf accuracy    <       0.00099510 Ry

     iteration # 42     ecut=    50.00 Ry     beta= 0.01
     Davidson diagonalization with overlap
     ethr =  3.80E-08,  avg # of iterations =  5.8

     total cpu time spent up to now is      212.9 secs

     total energy              =     -18.71473482 Ry
     estimated scf accuracy    <       0.00053219 Ry

     iteration # 43     ecut=    50.00 Ry     beta= 0.01
     Davidson diagonalization with overlap
     ethr =  3.80E-08,  avg # of iterations =  7.1

     total cpu time spent up to now is      217.1 secs

     total energy              =     -18.71478545 Ry
     estimated scf accuracy    <       0.00158855 Ry

     iteration # 44     ecut=    50.00 Ry     beta= 0.01
     Davidson diagonalization with overlap
     ethr =  3.80E-08,  avg # of iterations =  3.0

     total cpu time spent up to now is      219.3 secs

     total energy              =     -18.71452747 Ry
     estimated scf accuracy    <       0.00179409 Ry

     iteration # 45     ecut=    50.00 Ry     beta= 0.01
     Davidson diagonalization with overlap
     ethr =  3.80E-08,  avg # of iterations =  9.2

     total cpu time spent up to now is      224.5 secs

     total energy              =     -18.71457845 Ry
     estimated scf accuracy    <       0.00016092 Ry

     iteration # 46     ecut=    50.00 Ry     beta= 0.01
     Davidson diagonalization with overlap
     ethr =  3.80E-08,  avg # of iterations =  6.9

     total cpu time spent up to now is      228.5 secs

     End of self-consistent calculation

          k = 0.0000 0.0000 0.0000 (  2637 PWs)   bands (ev):

   -10.0798  -3.8136   0.0504   0.0504

          k =-0.1000 0.1000-0.1000 (  2568 PWs)   bands (ev):

   -10.0166  -4.0162  -0.0179  -0.0178

          k =-0.2000 0.2000-0.2000 (  2553 PWs)   bands (ev):

    -9.8379  -4.5193  -0.1826  -0.1826

          k =-0.3000 0.3000-0.3000 (  2551 PWs)   bands (ev):

    -9.5814  -5.1205  -0.3566  -0.3566

          k =-0.4000 0.4000-0.4000 (  2542 PWs)   bands (ev):

    -9.3299  -5.6201  -0.4786  -0.4786

          k = 0.5000-0.5000 0.5000 (  2512 PWs)   bands (ev):

    -9.2180  -5.8209  -0.5207  -0.5207

          k = 0.0000 0.2000 0.0000 (  2573 PWs)   bands (ev):

    -9.9953  -4.0770  -0.1403  -0.1403

          k =-0.1000 0.3000-0.1000 (  2568 PWs)   bands (ev):

    -9.8543  -4.4636  -0.3629  -0.3306

          k =-0.2000 0.4000-0.2000 (  2548 PWs)   bands (ev):

    -9.6206  -5.0122  -0.6680  -0.5027

          k =-0.3000 0.5000-0.3000 (  2531 PWs)   bands (ev):

    -9.3590  -5.5346  -0.9461  -0.6036

          k = 0.6000-0.4000 0.6000 (  2529 PWs)   bands (ev):

    -9.1888  -5.8370  -1.1127  -0.6129

          k = 0.5000-0.3000 0.5000 (  2530 PWs)   bands (ev):

    -9.2274  -5.7704  -1.1306  -0.5308

          k = 0.4000-0.2000 0.4000 (  2548 PWs)   bands (ev):

    -9.4449  -5.3721  -0.9938  -0.3762

          k = 0.3000-0.1000 0.3000 (  2553 PWs)   bands (ev):

    -9.7075  -4.8217  -0.7187  -0.1880

          k = 0.2000 0.0000 0.2000 (  2561 PWs)   bands (ev):

    -9.9145  -4.3092  -0.3554  -0.0400

          k = 0.0000 0.4000 0.0000 (  2573 PWs)   bands (ev):

    -9.7535  -4.6928  -0.5431  -0.5431

          k =-0.1000 0.5000-0.1000 (  2542 PWs)   bands (ev):

    -9.5540  -5.1150  -0.8330  -0.7263

          k =-0.2000 0.6000-0.2000 (  2532 PWs)   bands (ev):

    -9.3057  -5.5759  -1.2092  -0.8284

          k = 0.7000-0.3000 0.7000 (  2529 PWs)   bands (ev):

    -9.1061  -5.9059  -1.5079  -0.8274

          k = 0.6000-0.2000 0.6000 (  2549 PWs)   bands (ev):

    -9.0782  -5.9491  -1.6327  -0.7261

          k = 0.5000-0.1000 0.5000 (  2543 PWs)   bands (ev):

    -9.2424  -5.6852  -1.5408  -0.5461

          k = 0.4000 0.0000 0.4000 (  2533 PWs)   bands (ev):

    -9.4887  -5.2553  -1.2241  -0.3382

          k = 0.0000 0.6000 0.0000 (  2550 PWs)   bands (ev):

    -9.3939  -5.4043  -0.9281  -0.9281

          k =-0.1000 0.7000-0.1000 (  2544 PWs)   bands (ev):

    -9.1795  -5.7625  -1.2080  -1.0469

          k = 0.8000-0.2000 0.8000 (  2534 PWs)   bands (ev):

    -8.9893  -6.0467  -1.5791  -1.0568

          k = 0.7000-0.1000 0.7000 (  2543 PWs)   bands (ev):

    -8.9282  -6.1290  -1.8254  -0.9569

          k = 0.6000-0.0000 0.6000 (  2538 PWs)   bands (ev):

    -9.0373  -5.9763  -1.8267  -0.7695

          k = 0.0000 0.8000 0.0000 (  2518 PWs)   bands (ev):

    -9.0154  -6.0146  -1.1873  -1.1873

          k = 0.9000-0.1000 0.9000 (  2527 PWs)   bands (ev):

    -8.8788  -6.2062  -1.4096  -1.2201

          k = 0.8000 0.0000 0.8000 (  2546 PWs)   bands (ev):

    -8.8438  -6.2430  -1.7099  -1.1375

          k = 0.0000-1.0000 0.0000 (  2498 PWs)   bands (ev):

    -8.8315  -6.2779  -1.2774  -1.2774

          k =-0.2000 0.4000 0.0000 (  2556 PWs)   bands (ev):

    -9.6839  -4.8575  -0.7835  -0.4081

          k =-0.3000 0.5000-0.1000 (  2550 PWs)   bands (ev):

    -9.4404  -5.3459  -1.1620  -0.5629

          k = 0.6000-0.4000 0.8000 (  2541 PWs)   bands (ev):

    -9.2032  -5.7640  -1.4118  -0.7011

          k = 0.5000-0.3000 0.7000 (  2538 PWs)   bands (ev):

    -9.0984  -5.9348  -1.4984  -0.7531

          k =-0.2000 0.6000 0.0000 (  2550 PWs)   bands (ev):

    -9.3449  -5.4940  -1.1631  -0.8629

          k = 0.7000-0.3000 0.9000 (  2528 PWs)   bands (ev):

    -9.1185  -5.8586  -1.4930  -0.9914

          k = 0.6000-0.2000 0.8000 (  2537 PWs)   bands (ev):

    -8.9800  -6.0630  -1.7179  -1.0146

          k = 0.5000-0.1000 0.7000 (  2543 PWs)   bands (ev):

    -9.0216  -6.0019  -1.7556  -0.9143

          k = 0.4000 0.0000 0.6000 (  2535 PWs)   bands (ev):

    -9.2120  -5.7172  -1.5664  -0.7309

          k = 0.8000-0.2000 1.0000 (  2531 PWs)   bands (ev):

    -8.9950  -6.0369  -1.3812  -1.2164

          k = 0.7000-0.1000 0.9000 (  2537 PWs)   bands (ev):

    -8.8730  -6.1991  -1.6541  -1.2578

          k = 0.6000 0.0000 0.8000 (  2544 PWs)   bands (ev):

    -8.8858  -6.1771  -1.8301  -1.1331

          k =-0.2000-1.0000 0.0000 (  2530 PWs)   bands (ev):

    -8.8291  -6.2684  -1.4012  -1.3973

          k = 0.6000-0.2000 1.0000 (  2525 PWs)   bands (ev):

    -8.9437  -6.0979  -1.6917  -1.2154

          k = 0.5000-0.1000 0.9000 (  2536 PWs)   bands (ev):

    -8.8694  -6.1946  -1.7528  -1.3226

          k =-0.4000-1.0000 0.0000 (  2544 PWs)   bands (ev):

    -8.8250  -6.2527  -1.5678  -1.5668

     highest occupied level (ev):     0.0504

!    total energy              =     -18.71459024 Ry
     estimated scf accuracy    <       0.00000089 Ry

     The total energy is the sum of the following terms:
     one-electron contribution =      -2.83582245 Ry
     hartree contribution      =       3.51555660 Ry
     xc contribution           =      -4.95855370 Ry
     ewald contribution        =     -14.43577069 Ry

     convergence has been achieved in  46 iterations
     Writing meta-gga kinetic term

     Writing all to output data dir ./input_pw/SiC/16/pwscf.save/
     Writing meta-gga kinetic term
 
     init_run     :      3.75s CPU      9.78s WALL (       1 calls)
     electrons    :    182.29s CPU    218.55s WALL (       1 calls)

     Called by init_run:
     wfcinit      :      3.58s CPU      9.25s WALL (       1 calls)
     potinit      :      0.05s CPU      0.17s WALL (       1 calls)
     hinit0       :      0.10s CPU      0.29s WALL (       1 calls)

     Called by electrons:
     c_bands      :    153.12s CPU    181.90s WALL (      46 calls)
     sum_band     :     25.56s CPU     32.08s WALL (      46 calls)
     v_of_rho     :      1.77s CPU      2.38s WALL (      47 calls)
     mix_rho      :      1.82s CPU      2.26s WALL (      46 calls)

     Called by c_bands:
     init_us_2    :      1.27s CPU      1.59s WALL (    4371 calls)
     init_us_2:cp :      1.26s CPU      1.58s WALL (    4371 calls)
     cegterg      :    151.94s CPU    180.32s WALL (    2162 calls)

     Called by *egterg:
     cdiaghg      :      0.49s CPU      0.61s WALL (    9295 calls)
     h_psi        :    152.33s CPU    185.45s WALL (    9342 calls)
     g_psi        :      0.15s CPU      0.18s WALL (    7133 calls)

     Called by h_psi:
     h_psi:calbec :      0.53s CPU      0.65s WALL (    9342 calls)
     vloc_psi     :     37.72s CPU     46.34s WALL (    9342 calls)
     add_vuspsi   :      0.46s CPU      0.50s WALL (    9342 calls)
     h_psi_meta   :    113.40s CPU    137.75s WALL (    9342 calls)

     General routines
     calbec       :      0.51s CPU      0.63s WALL (    9342 calls)
     fft          :      0.34s CPU      0.43s WALL (     561 calls)
     ffts         :      0.69s CPU      0.86s WALL (    1167 calls)
     fftw         :    152.91s CPU    187.10s WALL (  285992 calls)
     interpolate  :      0.00s CPU      0.00s WALL (      47 calls)
 
     Parallel routines
 
     PWSCF        :   3m 6.09s CPU   3m48.47s WALL

 
   This run was terminated on:  12: 6:19  14Mar2023            

=------------------------------------------------------------------------------=
   JOB DONE.
=------------------------------------------------------------------------------=
