
     Program PWSCF v.7.0 starts on 10Apr2023 at  9:43:44 

     This program is part of the open-source Quantum ESPRESSO suite
     for quantum simulation of materials; please cite
         "P. Giannozzi et al., J. Phys.:Condens. Matter 21 395502 (2009);
         "P. Giannozzi et al., J. Phys.:Condens. Matter 29 465901 (2017);
         "P. Giannozzi et al., J. Chem. Phys. 152 154105 (2020);
          URL http://www.quantum-espresso.org", 
     in publications or presentations arising from this work. More details at
     http://www.quantum-espresso.org/quote

     Parallel version (MPI), running on     1 processors

     MPI processes distributed on     1 nodes
     19345 MiB available memory on the printing compute node when the environment starts
 
     Waiting for input...
     Reading input from standard input
Warning: card &CELL ignored
Warning: card / ignored

     Current dimensions of program PWSCF are:
     Max number of different atomic species (ntypx) = 10
     Max number of k-points (npk) =  40000
     Max angular momentum in pseudopotentials (lmaxx) =  4

     WARNING: the MGGA functional with ID    5 has been 
     read together with other dft terms, but it should 
     stand alone in order to work properly. The other 
     terms will be ignored.

     WARNING: the MGGA functional with ID    5 has been 
     read together with other dft terms, but it should 
     stand alone in order to work properly. The other 
     terms will be ignored.

     Subspace diagonalization in iterative solution of the eigenvalue problem:
     a serial algorithm will be used

 
     G-vector sticks info
     --------------------
     sticks:   dense  smooth     PW     G-vecs:    dense   smooth      PW
     Sum         367     367    121                 4621     4621     893
 
     Using Slab Decomposition
 


     bravais-lattice index     =            2
     lattice parameter (alat)  =       7.2717  a.u.
     unit-cell volume          =      96.1262 (a.u.)^3
     number of atoms/cell      =            2
     number of atomic types    =            2
     number of electrons       =         8.00
     number of Kohn-Sham states=            4
     kinetic-energy cutoff     =      50.0000  Ry
     charge density cutoff     =     200.0000  Ry
     scf convergence threshold =      1.0E-06
     mixing beta               =       0.0100
     number of iterations used =            8  local-TF  mixing
     Exchange-correlation= SLA  PW   SCAN SCAN
                           (   0   0   0   0   0 263 267)

     celldm(1)=   7.271666  celldm(2)=   0.000000  celldm(3)=   0.000000
     celldm(4)=   0.000000  celldm(5)=   0.000000  celldm(6)=   0.000000

     crystal axes: (cart. coord. in units of alat)
               a(1) = (  -0.500000   0.000000   0.500000 )  
               a(2) = (   0.000000   0.500000   0.500000 )  
               a(3) = (  -0.500000   0.500000   0.000000 )  

     reciprocal axes: (cart. coord. in units 2 pi/alat)
               b(1) = ( -1.000000 -1.000000  1.000000 )  
               b(2) = (  1.000000  1.000000  1.000000 )  
               b(3) = ( -1.000000  1.000000 -1.000000 )  


     PseudoPot. # 1 for Li read from file:
     ~/Documents/TA/PWDFT.jl/pseudopotentials/scan_upf/Li.SCAN.UPF2
     MD5 check sum: Not computed, couldn't open file
     Pseudo is Norm-conserving, Zval =  1.0
     Generated by new atomic code, or converted to UPF format
     Using radial grid of 1321 points,  1 beta functions with: 
                l(1) =   0

     PseudoPot. # 2 for F  read from file:
     ~/Documents/TA/PWDFT.jl/pseudopotentials/scan_upf/F.SCAN.UPF2
     MD5 check sum: Not computed, couldn't open file
     Pseudo is Norm-conserving, Zval =  7.0
     Generated by new atomic code, or converted to UPF format
     Using radial grid of 1431 points,  1 beta functions with: 
                l(1) =   0

     atomic species   valence    mass     pseudopotential
        Li             1.00     6.94100     Li( 1.00)
        F              7.00    18.99800     F ( 1.00)

     48 Sym. Ops., with inversion, found



   Cartesian axes

     site n.     atom                  positions (alat units)
         1           Li  tau(   1) = (   0.0000000   0.0000000   0.0000000  )
         2           F   tau(   2) = (   0.5000000   0.5000000   0.5000000  )

     number of k points=    47
                       cart. coord. in units 2pi/alat
        k(    1) = (   0.0000000   0.0000000   0.0000000), wk =   0.0020000
        k(    2) = (  -0.1000000   0.1000000  -0.1000000), wk =   0.0160000
        k(    3) = (  -0.2000000   0.2000000  -0.2000000), wk =   0.0160000
        k(    4) = (  -0.3000000   0.3000000  -0.3000000), wk =   0.0160000
        k(    5) = (  -0.4000000   0.4000000  -0.4000000), wk =   0.0160000
        k(    6) = (   0.5000000  -0.5000000   0.5000000), wk =   0.0080000
        k(    7) = (   0.0000000   0.2000000   0.0000000), wk =   0.0120000
        k(    8) = (  -0.1000000   0.3000000  -0.1000000), wk =   0.0480000
        k(    9) = (  -0.2000000   0.4000000  -0.2000000), wk =   0.0480000
        k(   10) = (  -0.3000000   0.5000000  -0.3000000), wk =   0.0480000
        k(   11) = (   0.6000000  -0.4000000   0.6000000), wk =   0.0480000
        k(   12) = (   0.5000000  -0.3000000   0.5000000), wk =   0.0480000
        k(   13) = (   0.4000000  -0.2000000   0.4000000), wk =   0.0480000
        k(   14) = (   0.3000000  -0.1000000   0.3000000), wk =   0.0480000
        k(   15) = (   0.2000000   0.0000000   0.2000000), wk =   0.0240000
        k(   16) = (   0.0000000   0.4000000   0.0000000), wk =   0.0120000
        k(   17) = (  -0.1000000   0.5000000  -0.1000000), wk =   0.0480000
        k(   18) = (  -0.2000000   0.6000000  -0.2000000), wk =   0.0480000
        k(   19) = (   0.7000000  -0.3000000   0.7000000), wk =   0.0480000
        k(   20) = (   0.6000000  -0.2000000   0.6000000), wk =   0.0480000
        k(   21) = (   0.5000000  -0.1000000   0.5000000), wk =   0.0480000
        k(   22) = (   0.4000000   0.0000000   0.4000000), wk =   0.0240000
        k(   23) = (   0.0000000   0.6000000   0.0000000), wk =   0.0120000
        k(   24) = (  -0.1000000   0.7000000  -0.1000000), wk =   0.0480000
        k(   25) = (   0.8000000  -0.2000000   0.8000000), wk =   0.0480000
        k(   26) = (   0.7000000  -0.1000000   0.7000000), wk =   0.0480000
        k(   27) = (   0.6000000  -0.0000000   0.6000000), wk =   0.0240000
        k(   28) = (   0.0000000   0.8000000   0.0000000), wk =   0.0120000
        k(   29) = (   0.9000000  -0.1000000   0.9000000), wk =   0.0480000
        k(   30) = (   0.8000000   0.0000000   0.8000000), wk =   0.0240000
        k(   31) = (   0.0000000  -1.0000000   0.0000000), wk =   0.0060000
        k(   32) = (  -0.2000000   0.4000000   0.0000000), wk =   0.0480000
        k(   33) = (  -0.3000000   0.5000000  -0.1000000), wk =   0.0960000
        k(   34) = (   0.6000000  -0.4000000   0.8000000), wk =   0.0960000
        k(   35) = (   0.5000000  -0.3000000   0.7000000), wk =   0.0480000
        k(   36) = (  -0.2000000   0.6000000   0.0000000), wk =   0.0480000
        k(   37) = (   0.7000000  -0.3000000   0.9000000), wk =   0.0960000
        k(   38) = (   0.6000000  -0.2000000   0.8000000), wk =   0.0960000
        k(   39) = (   0.5000000  -0.1000000   0.7000000), wk =   0.0960000
        k(   40) = (   0.4000000   0.0000000   0.6000000), wk =   0.0480000
        k(   41) = (   0.8000000  -0.2000000   1.0000000), wk =   0.0480000
        k(   42) = (   0.7000000  -0.1000000   0.9000000), wk =   0.0960000
        k(   43) = (   0.6000000   0.0000000   0.8000000), wk =   0.0480000
        k(   44) = (  -0.2000000  -1.0000000   0.0000000), wk =   0.0240000
        k(   45) = (   0.6000000  -0.2000000   1.0000000), wk =   0.0480000
        k(   46) = (   0.5000000  -0.1000000   0.9000000), wk =   0.0480000
        k(   47) = (  -0.4000000  -1.0000000   0.0000000), wk =   0.0240000

     Dense  grid:     4621 G-vectors     FFT dimensions: (  24,  24,  24)

     Estimated max dynamical RAM per process >       8.68 MB

     WARNING: libxc functional with ID  263 depends
      on external parameters: check the user_guide of
      QE if you need to modify them or to check their
      default values.

     Initial potential from superposition of free atoms

     starting charge       7.9953, renormalised to       8.0000
     Starting wfcs are    8 randomized atomic wfcs

     total cpu time spent up to now is        1.3 secs

     Self-consistent Calculation

     iteration #  1     ecut=    50.00 Ry     beta= 0.01
     Davidson diagonalization with overlap
     ethr =  1.00E-02,  avg # of iterations =  2.0

     total cpu time spent up to now is        3.3 secs

     total energy              =     -48.48313082 Ry
     estimated scf accuracy    <      17.71284539 Ry

     iteration #  2     ecut=    50.00 Ry     beta= 0.01
     Davidson diagonalization with overlap
     ethr =  1.00E-02,  avg # of iterations =  1.0

     total cpu time spent up to now is        4.8 secs

     total energy              =     -48.56470145 Ry
     estimated scf accuracy    <      17.26790502 Ry

     iteration #  3     ecut=    50.00 Ry     beta= 0.01
     Davidson diagonalization with overlap
     ethr =  1.00E-02,  avg # of iterations =  1.0

     total cpu time spent up to now is        6.1 secs

     total energy              =     -48.56598632 Ry
     estimated scf accuracy    <       1.76937536 Ry

     iteration #  4     ecut=    50.00 Ry     beta= 0.01
     Davidson diagonalization with overlap
     ethr =  1.00E-02,  avg # of iterations =  1.0

     total cpu time spent up to now is        7.5 secs

     total energy              =     -48.56625527 Ry
     estimated scf accuracy    <       0.00606290 Ry

     iteration #  5     ecut=    50.00 Ry     beta= 0.01
     Davidson diagonalization with overlap
     ethr =  7.58E-05,  avg # of iterations =  1.0

     total cpu time spent up to now is        8.8 secs

     total energy              =     -48.56596123 Ry
     estimated scf accuracy    <       0.00486002 Ry

     iteration #  6     ecut=    50.00 Ry     beta= 0.01
     Davidson diagonalization with overlap
     ethr =  6.08E-05,  avg # of iterations =  1.0

     total cpu time spent up to now is       10.2 secs

     total energy              =     -48.56577873 Ry
     estimated scf accuracy    <       0.00222576 Ry

     iteration #  7     ecut=    50.00 Ry     beta= 0.01
     Davidson diagonalization with overlap
     ethr =  2.78E-05,  avg # of iterations =  2.0

     total cpu time spent up to now is       12.3 secs

     total energy              =     -48.56686006 Ry
     estimated scf accuracy    <       0.03337030 Ry

     iteration #  8     ecut=    50.00 Ry     beta= 0.01
     Davidson diagonalization with overlap
     ethr =  2.78E-05,  avg # of iterations =  1.0

     total cpu time spent up to now is       13.6 secs

     total energy              =     -48.56615291 Ry
     estimated scf accuracy    <       0.03253831 Ry

     iteration #  9     ecut=    50.00 Ry     beta= 0.01
     Davidson diagonalization with overlap
     ethr =  2.78E-05,  avg # of iterations =  1.9

     total cpu time spent up to now is       15.0 secs

     total energy              =     -48.56637362 Ry
     estimated scf accuracy    <       0.00119694 Ry

     iteration # 10     ecut=    50.00 Ry     beta= 0.01
     Davidson diagonalization with overlap
     ethr =  1.50E-05,  avg # of iterations =  1.0

     total cpu time spent up to now is       16.3 secs

     total energy              =     -48.56637691 Ry
     estimated scf accuracy    <       0.00092202 Ry

     iteration # 11     ecut=    50.00 Ry     beta= 0.01
     Davidson diagonalization with overlap
     ethr =  1.15E-05,  avg # of iterations =  1.0

     total cpu time spent up to now is       17.6 secs

     total energy              =     -48.56635259 Ry
     estimated scf accuracy    <       0.00086576 Ry

     iteration # 12     ecut=    50.00 Ry     beta= 0.01
     Davidson diagonalization with overlap
     ethr =  1.08E-05,  avg # of iterations =  1.0

     total cpu time spent up to now is       18.9 secs

     total energy              =     -48.56635981 Ry
     estimated scf accuracy    <       0.00001449 Ry

     iteration # 13     ecut=    50.00 Ry     beta= 0.01
     Davidson diagonalization with overlap
     ethr =  1.81E-07,  avg # of iterations =  1.8

     total cpu time spent up to now is       20.2 secs

     total energy              =     -48.56636076 Ry
     estimated scf accuracy    <       0.00000555 Ry

     iteration # 14     ecut=    50.00 Ry     beta= 0.01
     Davidson diagonalization with overlap
     ethr =  6.94E-08,  avg # of iterations =  1.0

     total cpu time spent up to now is       21.1 secs

     total energy              =     -48.56636079 Ry
     estimated scf accuracy    <       0.00000719 Ry

     iteration # 15     ecut=    50.00 Ry     beta= 0.01
     Davidson diagonalization with overlap
     ethr =  6.94E-08,  avg # of iterations =  1.0

     total cpu time spent up to now is       22.4 secs

     total energy              =     -48.56636080 Ry
     estimated scf accuracy    <       0.00000808 Ry

     iteration # 16     ecut=    50.00 Ry     beta= 0.01
     Davidson diagonalization with overlap
     ethr =  6.94E-08,  avg # of iterations =  1.0

     total cpu time spent up to now is       23.7 secs

     total energy              =     -48.56636080 Ry
     estimated scf accuracy    <       0.00000913 Ry

     iteration # 17     ecut=    50.00 Ry     beta= 0.01
     Davidson diagonalization with overlap
     ethr =  6.94E-08,  avg # of iterations =  1.0

     total cpu time spent up to now is       24.9 secs

     total energy              =     -48.56636075 Ry
     estimated scf accuracy    <       0.00000941 Ry

     iteration # 18     ecut=    50.00 Ry     beta= 0.01
     Davidson diagonalization with overlap
     ethr =  6.94E-08,  avg # of iterations =  1.0

     total cpu time spent up to now is       26.2 secs

     total energy              =     -48.56636074 Ry
     estimated scf accuracy    <       0.00000514 Ry

     iteration # 19     ecut=    50.00 Ry     beta= 0.01
     Davidson diagonalization with overlap
     ethr =  6.43E-08,  avg # of iterations =  1.0

     total cpu time spent up to now is       27.2 secs

     total energy              =     -48.56636065 Ry
     estimated scf accuracy    <       0.00000465 Ry

     iteration # 20     ecut=    50.00 Ry     beta= 0.01
     Davidson diagonalization with overlap
     ethr =  5.81E-08,  avg # of iterations =  1.0

     total cpu time spent up to now is       28.3 secs

     End of self-consistent calculation

          k = 0.0000 0.0000 0.0000 (   537 PWs)   bands (ev):

   -21.3868   1.2794   1.2794   1.2794

          k =-0.1000 0.1000-0.1000 (   570 PWs)   bands (ev):

   -21.3301   0.7326   1.0700   1.0700

          k =-0.2000 0.2000-0.2000 (   567 PWs)   bands (ev):

   -21.1689  -0.0842   1.0054   1.0054

          k =-0.3000 0.3000-0.3000 (   571 PWs)   bands (ev):

   -20.9619  -1.0341   0.8992   0.8992

          k =-0.4000 0.4000-0.4000 (   589 PWs)   bands (ev):

   -20.7887  -1.8193   0.7387   0.7387

          k = 0.5000-0.5000 0.5000 (   580 PWs)   bands (ev):

   -20.7190  -1.9950   0.7245   0.7245

          k = 0.0000 0.2000 0.0000 (   564 PWs)   bands (ev):

   -21.3087   0.7933   1.0082   1.0082

          k =-0.1000 0.3000-0.1000 (   569 PWs)   bands (ev):

   -21.1794   0.1221   0.8273   0.9407

          k =-0.2000 0.4000-0.2000 (   575 PWs)   bands (ev):

   -20.9841  -0.8009   0.6958   0.7947

          k =-0.3000 0.5000-0.3000 (   582 PWs)   bands (ev):

   -20.7947  -1.5803   0.5972   0.6034

          k = 0.6000-0.4000 0.6000 (   573 PWs)   bands (ev):

   -20.6869  -1.9062   0.4654   0.6702

          k = 0.5000-0.3000 0.5000 (   575 PWs)   bands (ev):

   -20.7112  -1.8298   0.3885   0.7650

          k = 0.4000-0.2000 0.4000 (   581 PWs)   bands (ev):

   -20.8557  -1.3376   0.4142   0.8812

          k = 0.3000-0.1000 0.3000 (   570 PWs)   bands (ev):

   -21.0560  -0.4788   0.6141   1.0494

          k = 0.2000 0.0000 0.2000 (   559 PWs)   bands (ev):

   -21.2345   0.3491   0.9174   1.1594

          k = 0.0000 0.4000 0.0000 (   572 PWs)   bands (ev):

   -21.0838  -0.1194   0.6403   0.6403

          k =-0.1000 0.5000-0.1000 (   572 PWs)   bands (ev):

   -20.9128  -0.7892   0.4414   0.4767

          k =-0.2000 0.6000-0.2000 (   572 PWs)   bands (ev):

   -20.7283  -1.4750   0.2193   0.3806

          k = 0.7000-0.3000 0.7000 (   570 PWs)   bands (ev):

   -20.6029  -1.7846  -0.1185   0.3979

          k = 0.6000-0.2000 0.6000 (   572 PWs)   bands (ev):

   -20.5916  -1.7665  -0.3432   0.5440

          k = 0.5000-0.1000 0.5000 (   577 PWs)   bands (ev):

   -20.6993  -1.4015  -0.3748   0.7504

          k = 0.4000 0.0000 0.4000 (   572 PWs)   bands (ev):

   -20.8778  -0.8895   0.0090   0.9615

          k = 0.0000 0.6000 0.0000 (   576 PWs)   bands (ev):

   -20.7731  -1.2735   0.2199   0.2199

          k =-0.1000 0.7000-0.1000 (   579 PWs)   bands (ev):

   -20.6136  -1.8158  -0.0612   0.0970

          k = 0.8000-0.2000 0.8000 (   578 PWs)   bands (ev):

   -20.4973  -2.0305  -0.4678   0.1008

          k = 0.7000-0.1000 0.7000 (   571 PWs)   bands (ev):

   -20.4727  -1.8313  -0.8516   0.2759

          k = 0.6000-0.0000 0.6000 (   576 PWs)   bands (ev):

   -20.5520  -1.2454  -1.2173   0.4868

          k = 0.0000 0.8000 0.0000 (   568 PWs)   bands (ev):

   -20.4892  -2.2389  -0.0513  -0.0513

          k = 0.9000-0.1000 0.9000 (   578 PWs)   bands (ev):

   -20.4084  -2.4560  -0.3228  -0.1490

          k = 0.8000 0.0000 0.8000 (   586 PWs)   bands (ev):

   -20.4028  -2.3332  -0.7020  -0.0230

          k = 0.0000-1.0000 0.0000 (   588 PWs)   bands (ev):

   -20.3749  -2.7178  -0.2589  -0.2589

          k =-0.2000 0.4000 0.0000 (   572 PWs)   bands (ev):

   -21.0296  -0.4264   0.4655   0.8697

          k =-0.3000 0.5000-0.1000 (   575 PWs)   bands (ev):

   -20.8373  -1.1338   0.1531   0.7513

          k = 0.6000-0.4000 0.8000 (   578 PWs)   bands (ev):

   -20.6752  -1.6815  -0.0542   0.5967

          k = 0.5000-0.3000 0.7000 (   574 PWs)   bands (ev):

   -20.6111  -1.8316  -0.1260   0.5396

          k =-0.2000 0.6000 0.0000 (   577 PWs)   bands (ev):

   -20.7463  -1.3265   0.0028   0.3843

          k = 0.7000-0.3000 0.9000 (   570 PWs)   bands (ev):

   -20.5902  -1.6721  -0.3904   0.3420

          k = 0.6000-0.2000 0.8000 (   570 PWs)   bands (ev):

   -20.5100  -1.7734  -0.7134   0.3338

          k = 0.5000-0.1000 0.7000 (   571 PWs)   bands (ev):

   -20.5401  -1.5785  -0.8634   0.4657

          k = 0.4000 0.0000 0.6000 (   574 PWs)   bands (ev):

   -20.6673  -1.3213  -0.5720   0.6313

          k = 0.8000-0.2000 1.0000 (   577 PWs)   bands (ev):

   -20.4887  -2.1226  -0.3530   0.0029

          k = 0.7000-0.1000 0.9000 (   576 PWs)   bands (ev):

   -20.4225  -2.1088  -0.7854   0.0656

          k = 0.6000 0.0000 0.8000 (   577 PWs)   bands (ev):

   -20.4429  -1.7594  -1.1533   0.2149

          k =-0.2000-1.0000 0.0000 (   578 PWs)   bands (ev):

   -20.3829  -2.4784  -0.5092  -0.0858

          k = 0.6000-0.2000 1.0000 (   565 PWs)   bands (ev):

   -20.4748  -1.6890  -0.9712   0.2984

          k = 0.5000-0.1000 0.9000 (   570 PWs)   bands (ev):

   -20.4306  -1.5940  -1.3229   0.2235

          k =-0.4000-1.0000 0.0000 (   582 PWs)   bands (ev):

   -20.3977  -1.9639  -1.1768   0.0790

     highest occupied level (ev):     1.2794

!    total energy              =     -48.56636070 Ry
     estimated scf accuracy    <       0.00000012 Ry

     The total energy is the sum of the following terms:
     one-electron contribution =     -20.37661248 Ry
     hartree contribution      =      15.36032392 Ry
     xc contribution           =      -9.92650360 Ry
     ewald contribution        =     -33.62356854 Ry

     convergence has been achieved in  20 iterations
     Writing meta-gga kinetic term

     Writing all to output data dir ./input_pw/LiF/7/pwscf.save/
     Writing meta-gga kinetic term
 
     init_run     :      0.58s CPU      1.24s WALL (       1 calls)
     electrons    :     13.36s CPU     26.97s WALL (       1 calls)

     Called by init_run:
     wfcinit      :      0.49s CPU      1.07s WALL (       1 calls)
     potinit      :      0.01s CPU      0.03s WALL (       1 calls)
     hinit0       :      0.07s CPU      0.14s WALL (       1 calls)

     Called by electrons:
     c_bands      :     10.39s CPU     21.06s WALL (      20 calls)
     sum_band     :      2.64s CPU      5.24s WALL (      20 calls)
     v_of_rho     :      0.17s CPU      0.29s WALL (      21 calls)
     mix_rho      :      0.16s CPU      0.37s WALL (      20 calls)

     Called by c_bands:
     init_us_2    :      0.06s CPU      0.12s WALL (    1927 calls)
     init_us_2:cp :      0.05s CPU      0.10s WALL (    1927 calls)
     cegterg      :     10.32s CPU     20.92s WALL (     940 calls)

     Called by *egterg:
     cdiaghg      :      0.08s CPU      0.18s WALL (    2052 calls)
     h_psi        :     10.56s CPU     21.45s WALL (    2099 calls)
     g_psi        :      0.01s CPU      0.03s WALL (    1112 calls)

     Called by h_psi:
     h_psi:calbec :      0.02s CPU      0.06s WALL (    2099 calls)
     vloc_psi     :      2.60s CPU      5.31s WALL (    2099 calls)
     add_vuspsi   :      0.03s CPU      0.07s WALL (    2099 calls)
     h_psi_meta   :      7.88s CPU     15.93s WALL (    2099 calls)

     General routines
     calbec       :      0.01s CPU      0.04s WALL (    2099 calls)
     fft          :      0.04s CPU      0.07s WALL (     249 calls)
     ffts         :      0.08s CPU      0.11s WALL (     537 calls)
     fftw         :     11.78s CPU     23.89s WALL (   81592 calls)
     interpolate  :      0.00s CPU      0.00s WALL (      21 calls)
 
     Parallel routines
 
     PWSCF        :     13.98s CPU     28.30s WALL

 
   This run was terminated on:   9:44:13  10Apr2023            

=------------------------------------------------------------------------------=
   JOB DONE.
=------------------------------------------------------------------------------=
