
     Program PWSCF v.7.0 starts on  7Jul2023 at 14:23:46 

     This program is part of the open-source Quantum ESPRESSO suite
     for quantum simulation of materials; please cite
         "P. Giannozzi et al., J. Phys.:Condens. Matter 21 395502 (2009);
         "P. Giannozzi et al., J. Phys.:Condens. Matter 29 465901 (2017);
         "P. Giannozzi et al., J. Chem. Phys. 152 154105 (2020);
          URL http://www.quantum-espresso.org", 
     in publications or presentations arising from this work. More details at
     http://www.quantum-espresso.org/quote

     Parallel version (MPI), running on     1 processors

     MPI processes distributed on     1 nodes
     26807 MiB available memory on the printing compute node when the environment starts
 
     Waiting for input...
     Reading input from standard input
Warning: card &CELL ignored
Warning: card / ignored

     Current dimensions of program PWSCF are:
     Max number of different atomic species (ntypx) = 10
     Max number of k-points (npk) =  40000
     Max angular momentum in pseudopotentials (lmaxx) =  4

     WARNING: the MGGA functional with ID    5 has been 
     read together with other dft terms, but it should 
     stand alone in order to work properly. The other 
     terms will be ignored.

     WARNING: the MGGA functional with ID    5 has been 
     read together with other dft terms, but it should 
     stand alone in order to work properly. The other 
     terms will be ignored.

     Subspace diagonalization in iterative solution of the eigenvalue problem:
     a serial algorithm will be used

 
     G-vector sticks info
     --------------------
     sticks:   dense  smooth     PW     G-vecs:    dense   smooth      PW
     Sum         439     439    151                 6183     6183    1139
 
     Using Slab Decomposition
 


     bravais-lattice index     =            2
     lattice parameter (alat)  =       8.0175  a.u.
     unit-cell volume          =     128.8408 (a.u.)^3
     number of atoms/cell      =            2
     number of atomic types    =            2
     number of electrons       =         8.00
     number of Kohn-Sham states=            4
     kinetic-energy cutoff     =      50.0000  Ry
     charge density cutoff     =     200.0000  Ry
     scf convergence threshold =      2.0E-05
     mixing beta               =       0.2000
     number of iterations used =            8  local-TF  mixing
     Exchange-correlation= SLA  PW   SCAN SCAN
                           (   0   0   0   0   0 263 267)

     celldm(1)=   8.017478  celldm(2)=   0.000000  celldm(3)=   0.000000
     celldm(4)=   0.000000  celldm(5)=   0.000000  celldm(6)=   0.000000

     crystal axes: (cart. coord. in units of alat)
               a(1) = (  -0.500000   0.000000   0.500000 )  
               a(2) = (   0.000000   0.500000   0.500000 )  
               a(3) = (  -0.500000   0.500000   0.000000 )  

     reciprocal axes: (cart. coord. in units 2 pi/alat)
               b(1) = ( -1.000000 -1.000000  1.000000 )  
               b(2) = (  1.000000  1.000000  1.000000 )  
               b(3) = ( -1.000000  1.000000 -1.000000 )  


     PseudoPot. # 1 for Li read from file:
     ~/Documents/TA/PWDFT.jl/pseudopotentials/scan_upf/Li.SCAN.UPF2
     MD5 check sum: Not computed, couldn't open file
     Pseudo is Norm-conserving, Zval =  1.0
     Generated by new atomic code, or converted to UPF format
     Using radial grid of 1321 points,  1 beta functions with: 
                l(1) =   0

     PseudoPot. # 2 for F  read from file:
     ~/Documents/TA/PWDFT.jl/pseudopotentials/scan_upf/F.SCAN.UPF2
     MD5 check sum: Not computed, couldn't open file
     Pseudo is Norm-conserving, Zval =  7.0
     Generated by new atomic code, or converted to UPF format
     Using radial grid of 1431 points,  1 beta functions with: 
                l(1) =   0

     atomic species   valence    mass     pseudopotential
        Li             1.00     6.94100     Li( 1.00)
        F              7.00    18.99800     F ( 1.00)

     48 Sym. Ops., with inversion, found



   Cartesian axes

     site n.     atom                  positions (alat units)
         1           Li  tau(   1) = (   0.0000000   0.0000000   0.0000000  )
         2           F   tau(   2) = (   0.5000000   0.5000000   0.5000000  )

     number of k points=    47
                       cart. coord. in units 2pi/alat
        k(    1) = (   0.0000000   0.0000000   0.0000000), wk =   0.0020000
        k(    2) = (  -0.1000000   0.1000000  -0.1000000), wk =   0.0160000
        k(    3) = (  -0.2000000   0.2000000  -0.2000000), wk =   0.0160000
        k(    4) = (  -0.3000000   0.3000000  -0.3000000), wk =   0.0160000
        k(    5) = (  -0.4000000   0.4000000  -0.4000000), wk =   0.0160000
        k(    6) = (   0.5000000  -0.5000000   0.5000000), wk =   0.0080000
        k(    7) = (   0.0000000   0.2000000   0.0000000), wk =   0.0120000
        k(    8) = (  -0.1000000   0.3000000  -0.1000000), wk =   0.0480000
        k(    9) = (  -0.2000000   0.4000000  -0.2000000), wk =   0.0480000
        k(   10) = (  -0.3000000   0.5000000  -0.3000000), wk =   0.0480000
        k(   11) = (   0.6000000  -0.4000000   0.6000000), wk =   0.0480000
        k(   12) = (   0.5000000  -0.3000000   0.5000000), wk =   0.0480000
        k(   13) = (   0.4000000  -0.2000000   0.4000000), wk =   0.0480000
        k(   14) = (   0.3000000  -0.1000000   0.3000000), wk =   0.0480000
        k(   15) = (   0.2000000   0.0000000   0.2000000), wk =   0.0240000
        k(   16) = (   0.0000000   0.4000000   0.0000000), wk =   0.0120000
        k(   17) = (  -0.1000000   0.5000000  -0.1000000), wk =   0.0480000
        k(   18) = (  -0.2000000   0.6000000  -0.2000000), wk =   0.0480000
        k(   19) = (   0.7000000  -0.3000000   0.7000000), wk =   0.0480000
        k(   20) = (   0.6000000  -0.2000000   0.6000000), wk =   0.0480000
        k(   21) = (   0.5000000  -0.1000000   0.5000000), wk =   0.0480000
        k(   22) = (   0.4000000   0.0000000   0.4000000), wk =   0.0240000
        k(   23) = (   0.0000000   0.6000000   0.0000000), wk =   0.0120000
        k(   24) = (  -0.1000000   0.7000000  -0.1000000), wk =   0.0480000
        k(   25) = (   0.8000000  -0.2000000   0.8000000), wk =   0.0480000
        k(   26) = (   0.7000000  -0.1000000   0.7000000), wk =   0.0480000
        k(   27) = (   0.6000000  -0.0000000   0.6000000), wk =   0.0240000
        k(   28) = (   0.0000000   0.8000000   0.0000000), wk =   0.0120000
        k(   29) = (   0.9000000  -0.1000000   0.9000000), wk =   0.0480000
        k(   30) = (   0.8000000   0.0000000   0.8000000), wk =   0.0240000
        k(   31) = (   0.0000000  -1.0000000   0.0000000), wk =   0.0060000
        k(   32) = (  -0.2000000   0.4000000   0.0000000), wk =   0.0480000
        k(   33) = (  -0.3000000   0.5000000  -0.1000000), wk =   0.0960000
        k(   34) = (   0.6000000  -0.4000000   0.8000000), wk =   0.0960000
        k(   35) = (   0.5000000  -0.3000000   0.7000000), wk =   0.0480000
        k(   36) = (  -0.2000000   0.6000000   0.0000000), wk =   0.0480000
        k(   37) = (   0.7000000  -0.3000000   0.9000000), wk =   0.0960000
        k(   38) = (   0.6000000  -0.2000000   0.8000000), wk =   0.0960000
        k(   39) = (   0.5000000  -0.1000000   0.7000000), wk =   0.0960000
        k(   40) = (   0.4000000   0.0000000   0.6000000), wk =   0.0480000
        k(   41) = (   0.8000000  -0.2000000   1.0000000), wk =   0.0480000
        k(   42) = (   0.7000000  -0.1000000   0.9000000), wk =   0.0960000
        k(   43) = (   0.6000000   0.0000000   0.8000000), wk =   0.0480000
        k(   44) = (  -0.2000000  -1.0000000   0.0000000), wk =   0.0240000
        k(   45) = (   0.6000000  -0.2000000   1.0000000), wk =   0.0480000
        k(   46) = (   0.5000000  -0.1000000   0.9000000), wk =   0.0480000
        k(   47) = (  -0.4000000  -1.0000000   0.0000000), wk =   0.0240000

     Dense  grid:     6183 G-vectors     FFT dimensions: (  25,  25,  25)

     Estimated max dynamical RAM per process >      11.28 MB

     WARNING: libxc functional with ID  263 depends
      on external parameters: check the user_guide of
      QE if you need to modify them or to check their
      default values.

     Initial potential from superposition of free atoms

     starting charge       7.9953, renormalised to       8.0000
     Starting wfcs are    8 randomized atomic wfcs

     total cpu time spent up to now is        1.4 secs

     Self-consistent Calculation

     iteration #  1     ecut=    50.00 Ry     beta= 0.20
     Davidson diagonalization with overlap
     ethr =  1.00E-02,  avg # of iterations =  2.0

     total cpu time spent up to now is        3.3 secs

     total energy              =     -48.60024655 Ry
     estimated scf accuracy    <      17.59459901 Ry

     iteration #  2     ecut=    50.00 Ry     beta= 0.20
     Davidson diagonalization with overlap
     ethr =  1.00E-02,  avg # of iterations =  1.0

     total cpu time spent up to now is        4.7 secs

     total energy              =     -48.60701480 Ry
     estimated scf accuracy    <      11.27251302 Ry

     iteration #  3     ecut=    50.00 Ry     beta= 0.20
     Davidson diagonalization with overlap
     ethr =  1.00E-02,  avg # of iterations =  1.0

     total cpu time spent up to now is        6.1 secs

     total energy              =     -48.60928990 Ry
     estimated scf accuracy    <       0.00518775 Ry

     iteration #  4     ecut=    50.00 Ry     beta= 0.20
     Davidson diagonalization with overlap
     ethr =  6.48E-05,  avg # of iterations =  1.0

     total cpu time spent up to now is        7.6 secs

     total energy              =     -48.60942080 Ry
     estimated scf accuracy    <       0.00672524 Ry

     iteration #  5     ecut=    50.00 Ry     beta= 0.20
     Davidson diagonalization with overlap
     ethr =  6.48E-05,  avg # of iterations =  1.0

     total cpu time spent up to now is        9.0 secs

     total energy              =     -48.61001157 Ry
     estimated scf accuracy    <       0.00775056 Ry

     iteration #  6     ecut=    50.00 Ry     beta= 0.20
     Davidson diagonalization with overlap
     ethr =  6.48E-05,  avg # of iterations =  1.0

     total cpu time spent up to now is       10.5 secs

     total energy              =     -48.61031091 Ry
     estimated scf accuracy    <       0.00032803 Ry

     iteration #  7     ecut=    50.00 Ry     beta= 0.20
     Davidson diagonalization with overlap
     ethr =  4.10E-06,  avg # of iterations =  1.1

     total cpu time spent up to now is       11.9 secs

     total energy              =     -48.61032621 Ry
     estimated scf accuracy    <       0.00020319 Ry

     iteration #  8     ecut=    50.00 Ry     beta= 0.20
     Davidson diagonalization with overlap
     ethr =  2.54E-06,  avg # of iterations =  1.0

     total cpu time spent up to now is       13.0 secs

     total energy              =     -48.61032913 Ry
     estimated scf accuracy    <       0.00003995 Ry

     iteration #  9     ecut=    50.00 Ry     beta= 0.20
     Davidson diagonalization with overlap
     ethr =  4.99E-07,  avg # of iterations =  2.0

     total cpu time spent up to now is       14.9 secs

     total energy              =     -48.61033852 Ry
     estimated scf accuracy    <       0.00073548 Ry

     iteration # 10     ecut=    50.00 Ry     beta= 0.20
     Davidson diagonalization with overlap
     ethr =  4.99E-07,  avg # of iterations =  1.0

     total cpu time spent up to now is       16.0 secs

     total energy              =     -48.61033959 Ry
     estimated scf accuracy    <       0.00010537 Ry

     iteration # 11     ecut=    50.00 Ry     beta= 0.20
     Davidson diagonalization with overlap
     ethr =  4.99E-07,  avg # of iterations =  1.0

     total cpu time spent up to now is       16.7 secs

     End of self-consistent calculation

          k = 0.0000 0.0000 0.0000 (   749 PWs)   bands (ev):

   -22.7961  -0.9910  -0.9910  -0.9910

          k =-0.1000 0.1000-0.1000 (   770 PWs)   bands (ev):

   -22.7658  -1.3801  -1.0631  -1.0631

          k =-0.2000 0.2000-0.2000 (   776 PWs)   bands (ev):

   -22.6821  -1.9842  -1.1520  -1.1520

          k =-0.3000 0.3000-0.3000 (   769 PWs)   bands (ev):

   -22.5753  -2.5751  -1.2162  -1.2162

          k =-0.4000 0.4000-0.4000 (   769 PWs)   bands (ev):

   -22.4870  -3.0517  -1.2698  -1.2698

          k = 0.5000-0.5000 0.5000 (   778 PWs)   bands (ev):

   -22.4534  -3.2497  -1.3258  -1.3258

          k = 0.0000 0.2000 0.0000 (   769 PWs)   bands (ev):

   -22.7549  -1.3805  -1.1140  -1.1140

          k =-0.1000 0.3000-0.1000 (   781 PWs)   bands (ev):

   -22.6883  -1.8595  -1.2712  -1.2066

          k =-0.2000 0.4000-0.2000 (   778 PWs)   bands (ev):

   -22.5880  -2.4102  -1.3419  -1.3361

          k =-0.3000 0.5000-0.3000 (   776 PWs)   bands (ev):

   -22.4923  -2.9156  -1.4267  -1.3904

          k = 0.6000-0.4000 0.6000 (   767 PWs)   bands (ev):

   -22.4387  -3.1457  -1.4751  -1.3571

          k = 0.5000-0.3000 0.5000 (   774 PWs)   bands (ev):

   -22.4509  -3.1067  -1.5608  -1.3064

          k = 0.4000-0.2000 0.4000 (   775 PWs)   bands (ev):

   -22.5224  -2.7570  -1.5321  -1.2142

          k = 0.3000-0.1000 0.3000 (   780 PWs)   bands (ev):

   -22.6245  -2.2225  -1.4364  -1.1596

          k = 0.2000 0.0000 0.2000 (   765 PWs)   bands (ev):

   -22.7160  -1.6951  -1.1795  -1.0181

          k = 0.0000 0.4000 0.0000 (   785 PWs)   bands (ev):

   -22.6403  -2.0131  -1.4084  -1.4084

          k =-0.1000 0.5000-0.1000 (   768 PWs)   bands (ev):

   -22.5539  -2.3773  -1.4877  -1.4735

          k =-0.2000 0.6000-0.2000 (   763 PWs)   bands (ev):

   -22.4629  -2.8096  -1.6311  -1.5266

          k = 0.7000-0.3000 0.7000 (   766 PWs)   bands (ev):

   -22.4020  -3.0373  -1.8736  -1.5154

          k = 0.6000-0.2000 0.6000 (   775 PWs)   bands (ev):

   -22.3964  -3.0214  -2.0583  -1.4752

          k = 0.5000-0.1000 0.5000 (   773 PWs)   bands (ev):

   -22.4475  -2.7898  -2.0263  -1.3330

          k = 0.4000 0.0000 0.4000 (   770 PWs)   bands (ev):

   -22.5346  -2.4766  -1.7636  -1.1965

          k = 0.0000 0.6000 0.0000 (   781 PWs)   bands (ev):

   -22.4881  -2.7302  -1.6618  -1.6618

          k =-0.1000 0.7000-0.1000 (   774 PWs)   bands (ev):

   -22.4120  -3.0202  -1.8064  -1.7577

          k = 0.8000-0.2000 0.8000 (   768 PWs)   bands (ev):

   -22.3563  -3.1282  -2.0746  -1.7300

          k = 0.7000-0.1000 0.7000 (   769 PWs)   bands (ev):

   -22.3437  -2.9563  -2.4154  -1.6431

          k = 0.6000-0.0000 0.6000 (   772 PWs)   bands (ev):

   -22.3789  -2.6852  -2.5521  -1.4986

          k = 0.0000 0.8000 0.0000 (   761 PWs)   bands (ev):

   -22.3556  -3.2596  -1.8207  -1.8207

          k = 0.9000-0.1000 0.9000 (   765 PWs)   bands (ev):

   -22.3183  -3.3720  -1.9990  -1.8638

          k = 0.8000 0.0000 0.8000 (   764 PWs)   bands (ev):

   -22.3135  -3.2256  -2.2267  -1.7959

          k = 0.0000-1.0000 0.0000 (   774 PWs)   bands (ev):

   -22.3043  -3.5063  -1.9648  -1.9648

          k =-0.2000 0.4000 0.0000 (   774 PWs)   bands (ev):

   -22.6115  -2.1786  -1.4763  -1.2467

          k =-0.3000 0.5000-0.1000 (   773 PWs)   bands (ev):

   -22.5152  -2.6199  -1.6992  -1.3168

          k = 0.6000-0.4000 0.8000 (   775 PWs)   bands (ev):

   -22.4358  -2.9738  -1.8532  -1.4028

          k = 0.5000-0.3000 0.7000 (   768 PWs)   bands (ev):

   -22.4045  -3.0672  -1.8594  -1.4465

          k =-0.2000 0.6000 0.0000 (   772 PWs)   bands (ev):

   -22.4733  -2.7419  -1.7666  -1.5323

          k = 0.7000-0.3000 0.9000 (   771 PWs)   bands (ev):

   -22.3987  -2.9612  -2.0391  -1.6038

          k = 0.6000-0.2000 0.8000 (   765 PWs)   bands (ev):

   -22.3599  -2.9611  -2.2654  -1.5956

          k = 0.5000-0.1000 0.7000 (   765 PWs)   bands (ev):

   -22.3733  -2.8538  -2.3433  -1.5090

          k = 0.4000 0.0000 0.6000 (   770 PWs)   bands (ev):

   -22.4333  -2.7604  -2.1208  -1.3978

          k = 0.8000-0.2000 1.0000 (   761 PWs)   bands (ev):

   -22.3534  -3.1762  -1.9791  -1.7516

          k = 0.7000-0.1000 0.9000 (   763 PWs)   bands (ev):

   -22.3223  -3.1326  -2.2612  -1.7774

          k = 0.6000 0.0000 0.8000 (   765 PWs)   bands (ev):

   -22.3300  -2.8760  -2.5505  -1.6809

          k =-0.2000-1.0000 0.0000 (   764 PWs)   bands (ev):

   -22.3063  -3.3670  -2.0788  -1.8730

          k = 0.6000-0.2000 1.0000 (   762 PWs)   bands (ev):

   -22.3451  -2.9064  -2.3982  -1.6562

          k = 0.5000-0.1000 0.9000 (   756 PWs)   bands (ev):

   -22.3243  -2.7975  -2.5933  -1.6813

          k =-0.4000-1.0000 0.0000 (   760 PWs)   bands (ev):

   -22.3101  -2.9920  -2.4916  -1.7649

     highest occupied level (ev):    -0.9910

!    total energy              =     -48.61033963 Ry
     estimated scf accuracy    <       0.00001348 Ry

     The total energy is the sum of the following terms:
     one-electron contribution =     -25.81690837 Ry
     hartree contribution      =      17.51827253 Ry
     xc contribution           =      -9.81590907 Ry
     ewald contribution        =     -30.49579473 Ry

     convergence has been achieved in  11 iterations
     Writing meta-gga kinetic term

     Writing all to output data dir ./input_pw/LiF/7/pwscf.save/
     Writing meta-gga kinetic term
 
     init_run     :      0.63s CPU      1.38s WALL (       1 calls)
     electrons    :      8.30s CPU     15.32s WALL (       1 calls)

     Called by init_run:
     wfcinit      :      0.55s CPU      1.25s WALL (       1 calls)
     potinit      :      0.01s CPU      0.05s WALL (       1 calls)
     hinit0       :      0.06s CPU      0.07s WALL (       1 calls)

     Called by electrons:
     c_bands      :      6.52s CPU     12.09s WALL (      11 calls)
     sum_band     :      1.57s CPU      2.82s WALL (      11 calls)
     v_of_rho     :      0.11s CPU      0.30s WALL (      12 calls)
     mix_rho      :      0.10s CPU      0.16s WALL (      11 calls)

     Called by c_bands:
     init_us_2    :      0.04s CPU      0.06s WALL (    1081 calls)
     init_us_2:cp :      0.04s CPU      0.06s WALL (    1081 calls)
     cegterg      :      6.48s CPU     11.99s WALL (     517 calls)

     Called by *egterg:
     cdiaghg      :      0.05s CPU      0.08s WALL (    1134 calls)
     h_psi        :      6.85s CPU     12.94s WALL (    1181 calls)
     g_psi        :      0.01s CPU      0.01s WALL (     617 calls)

     Called by h_psi:
     h_psi:calbec :      0.01s CPU      0.03s WALL (    1181 calls)
     vloc_psi     :      1.69s CPU      3.16s WALL (    1181 calls)
     add_vuspsi   :      0.02s CPU      0.05s WALL (    1181 calls)
     h_psi_meta   :      5.11s CPU      9.67s WALL (    1181 calls)

     General routines
     calbec       :      0.01s CPU      0.03s WALL (    1181 calls)
     fft          :      0.02s CPU      0.03s WALL (     141 calls)
     ffts         :      0.05s CPU      0.08s WALL (     308 calls)
     fftw         :      7.43s CPU     13.84s WALL (   46960 calls)
     interpolate  :      0.00s CPU      0.00s WALL (      12 calls)
 
     Parallel routines
 
     PWSCF        :      8.97s CPU     16.75s WALL

 
   This run was terminated on:  14:24: 2   7Jul2023            

=------------------------------------------------------------------------------=
   JOB DONE.
=------------------------------------------------------------------------------=
