
     Program PWSCF v.7.0 starts on 14Mar2023 at 14:28:42 

     This program is part of the open-source Quantum ESPRESSO suite
     for quantum simulation of materials; please cite
         "P. Giannozzi et al., J. Phys.:Condens. Matter 21 395502 (2009);
         "P. Giannozzi et al., J. Phys.:Condens. Matter 29 465901 (2017);
         "P. Giannozzi et al., J. Chem. Phys. 152 154105 (2020);
          URL http://www.quantum-espresso.org", 
     in publications or presentations arising from this work. More details at
     http://www.quantum-espresso.org/quote

     Parallel version (MPI), running on     1 processors

     MPI processes distributed on     1 nodes
     27195 MiB available memory on the printing compute node when the environment starts
 
     Waiting for input...
     Reading input from standard input
Warning: card &CELL ignored
Warning: card / ignored

     Current dimensions of program PWSCF are:
     Max number of different atomic species (ntypx) = 10
     Max number of k-points (npk) =  40000
     Max angular momentum in pseudopotentials (lmaxx) =  4
     file Cl.SCAN.UPF2: wavefunction(s)  0D renormalized

     WARNING: the MGGA functional with ID    5 has been 
     read together with other dft terms, but it should 
     stand alone in order to work properly. The other 
     terms will be ignored.

     WARNING: the MGGA functional with ID    5 has been 
     read together with other dft terms, but it should 
     stand alone in order to work properly. The other 
     terms will be ignored.

     Subspace diagonalization in iterative solution of the eigenvalue problem:
     a serial algorithm will be used

 
     G-vector sticks info
     --------------------
     sticks:   dense  smooth     PW     G-vecs:    dense   smooth      PW
     Sum         313     313    109                 3839     3839     749
 
     Using Slab Decomposition
 


     bravais-lattice index     =            2
     lattice parameter (alat)  =       6.8580  a.u.
     unit-cell volume          =      80.6366 (a.u.)^3
     number of atoms/cell      =            2
     number of atomic types    =            2
     number of electrons       =         8.00
     number of Kohn-Sham states=            4
     kinetic-energy cutoff     =      50.0000  Ry
     charge density cutoff     =     200.0000  Ry
     scf convergence threshold =      1.0E-06
     mixing beta               =       0.0100
     number of iterations used =            8  local-TF  mixing
     Exchange-correlation= SLA  PW   SCAN SCAN
                           (   0   0   0   0   0 263 267)

     celldm(1)=   6.858000  celldm(2)=   0.000000  celldm(3)=   0.000000
     celldm(4)=   0.000000  celldm(5)=   0.000000  celldm(6)=   0.000000

     crystal axes: (cart. coord. in units of alat)
               a(1) = (  -0.500000   0.000000   0.500000 )  
               a(2) = (   0.000000   0.500000   0.500000 )  
               a(3) = (  -0.500000   0.500000   0.000000 )  

     reciprocal axes: (cart. coord. in units 2 pi/alat)
               b(1) = ( -1.000000 -1.000000  1.000000 )  
               b(2) = (  1.000000  1.000000  1.000000 )  
               b(3) = ( -1.000000  1.000000 -1.000000 )  


     PseudoPot. # 1 for Li read from file:
     ~/Documents/TA/PWDFT.jl/pseudopotentials/scan_upf/Li.SCAN.UPF2
     MD5 check sum: Not computed, couldn't open file
     Pseudo is Norm-conserving, Zval =  1.0
     Generated by new atomic code, or converted to UPF format
     Using radial grid of 1321 points,  1 beta functions with: 
                l(1) =   0

     PseudoPot. # 2 for Cl read from file:
     ~/Documents/TA/PWDFT.jl/pseudopotentials/scan_upf/Cl.SCAN.UPF2
     MD5 check sum: Not computed, couldn't open file
     Pseudo is Norm-conserving, Zval =  7.0
     Generated by new atomic code, or converted to UPF format
     Using radial grid of 1493 points,  2 beta functions with: 
                l(1) =   0
                l(2) =   1

     atomic species   valence    mass     pseudopotential
        Li             1.00     6.94100     Li( 1.00)
        Cl             7.00    35.45300     Cl( 1.00)

     48 Sym. Ops., with inversion, found



   Cartesian axes

     site n.     atom                  positions (alat units)
         1           Li  tau(   1) = (   0.0000000   0.0000000   0.0000000  )
         2           Cl  tau(   2) = (   0.5000000   0.5000000   0.5000000  )

     number of k points=    47
                       cart. coord. in units 2pi/alat
        k(    1) = (   0.0000000   0.0000000   0.0000000), wk =   0.0020000
        k(    2) = (  -0.1000000   0.1000000  -0.1000000), wk =   0.0160000
        k(    3) = (  -0.2000000   0.2000000  -0.2000000), wk =   0.0160000
        k(    4) = (  -0.3000000   0.3000000  -0.3000000), wk =   0.0160000
        k(    5) = (  -0.4000000   0.4000000  -0.4000000), wk =   0.0160000
        k(    6) = (   0.5000000  -0.5000000   0.5000000), wk =   0.0080000
        k(    7) = (   0.0000000   0.2000000   0.0000000), wk =   0.0120000
        k(    8) = (  -0.1000000   0.3000000  -0.1000000), wk =   0.0480000
        k(    9) = (  -0.2000000   0.4000000  -0.2000000), wk =   0.0480000
        k(   10) = (  -0.3000000   0.5000000  -0.3000000), wk =   0.0480000
        k(   11) = (   0.6000000  -0.4000000   0.6000000), wk =   0.0480000
        k(   12) = (   0.5000000  -0.3000000   0.5000000), wk =   0.0480000
        k(   13) = (   0.4000000  -0.2000000   0.4000000), wk =   0.0480000
        k(   14) = (   0.3000000  -0.1000000   0.3000000), wk =   0.0480000
        k(   15) = (   0.2000000   0.0000000   0.2000000), wk =   0.0240000
        k(   16) = (   0.0000000   0.4000000   0.0000000), wk =   0.0120000
        k(   17) = (  -0.1000000   0.5000000  -0.1000000), wk =   0.0480000
        k(   18) = (  -0.2000000   0.6000000  -0.2000000), wk =   0.0480000
        k(   19) = (   0.7000000  -0.3000000   0.7000000), wk =   0.0480000
        k(   20) = (   0.6000000  -0.2000000   0.6000000), wk =   0.0480000
        k(   21) = (   0.5000000  -0.1000000   0.5000000), wk =   0.0480000
        k(   22) = (   0.4000000   0.0000000   0.4000000), wk =   0.0240000
        k(   23) = (   0.0000000   0.6000000   0.0000000), wk =   0.0120000
        k(   24) = (  -0.1000000   0.7000000  -0.1000000), wk =   0.0480000
        k(   25) = (   0.8000000  -0.2000000   0.8000000), wk =   0.0480000
        k(   26) = (   0.7000000  -0.1000000   0.7000000), wk =   0.0480000
        k(   27) = (   0.6000000  -0.0000000   0.6000000), wk =   0.0240000
        k(   28) = (   0.0000000   0.8000000   0.0000000), wk =   0.0120000
        k(   29) = (   0.9000000  -0.1000000   0.9000000), wk =   0.0480000
        k(   30) = (   0.8000000   0.0000000   0.8000000), wk =   0.0240000
        k(   31) = (   0.0000000  -1.0000000   0.0000000), wk =   0.0060000
        k(   32) = (  -0.2000000   0.4000000   0.0000000), wk =   0.0480000
        k(   33) = (  -0.3000000   0.5000000  -0.1000000), wk =   0.0960000
        k(   34) = (   0.6000000  -0.4000000   0.8000000), wk =   0.0960000
        k(   35) = (   0.5000000  -0.3000000   0.7000000), wk =   0.0480000
        k(   36) = (  -0.2000000   0.6000000   0.0000000), wk =   0.0480000
        k(   37) = (   0.7000000  -0.3000000   0.9000000), wk =   0.0960000
        k(   38) = (   0.6000000  -0.2000000   0.8000000), wk =   0.0960000
        k(   39) = (   0.5000000  -0.1000000   0.7000000), wk =   0.0960000
        k(   40) = (   0.4000000   0.0000000   0.6000000), wk =   0.0480000
        k(   41) = (   0.8000000  -0.2000000   1.0000000), wk =   0.0480000
        k(   42) = (   0.7000000  -0.1000000   0.9000000), wk =   0.0960000
        k(   43) = (   0.6000000   0.0000000   0.8000000), wk =   0.0480000
        k(   44) = (  -0.2000000  -1.0000000   0.0000000), wk =   0.0240000
        k(   45) = (   0.6000000  -0.2000000   1.0000000), wk =   0.0480000
        k(   46) = (   0.5000000  -0.1000000   0.9000000), wk =   0.0480000
        k(   47) = (  -0.4000000  -1.0000000   0.0000000), wk =   0.0240000

     Dense  grid:     3839 G-vectors     FFT dimensions: (  24,  24,  24)

     Estimated max dynamical RAM per process >       7.69 MB

     WARNING: libxc functional with ID  263 depends
      on external parameters: check the user_guide of
      QE if you need to modify them or to check their
      default values.

     Initial potential from superposition of free atoms

     starting charge       7.9953, renormalised to       8.0000
     Starting wfcs are   13 randomized atomic wfcs

     total cpu time spent up to now is        2.7 secs

     Self-consistent Calculation

     iteration #  1     ecut=    50.00 Ry     beta= 0.01
     Davidson diagonalization with overlap
     ethr =  1.00E-02,  avg # of iterations =  2.0

     total cpu time spent up to now is        4.9 secs

     total energy              =     -30.01422546 Ry
     estimated scf accuracy    <       0.42413385 Ry

     iteration #  2     ecut=    50.00 Ry     beta= 0.01
     Davidson diagonalization with overlap
     ethr =  5.30E-03,  avg # of iterations =  1.0

     total cpu time spent up to now is        6.6 secs

     total energy              =     -30.10807823 Ry
     estimated scf accuracy    <       0.41311482 Ry

     iteration #  3     ecut=    50.00 Ry     beta= 0.01
     Davidson diagonalization with overlap
     ethr =  5.16E-03,  avg # of iterations =  1.0

     total cpu time spent up to now is        8.3 secs

     total energy              =     -30.12167041 Ry
     estimated scf accuracy    <       0.09279355 Ry

     iteration #  4     ecut=    50.00 Ry     beta= 0.01
     Davidson diagonalization with overlap
     ethr =  1.16E-03,  avg # of iterations =  1.0

     total cpu time spent up to now is        9.9 secs

     total energy              =     -30.12247407 Ry
     estimated scf accuracy    <       0.00402511 Ry

     iteration #  5     ecut=    50.00 Ry     beta= 0.01
     Davidson diagonalization with overlap
     ethr =  5.03E-05,  avg # of iterations =  1.0

     total cpu time spent up to now is       11.5 secs

     total energy              =     -30.12206118 Ry
     estimated scf accuracy    <       0.00356810 Ry

     iteration #  6     ecut=    50.00 Ry     beta= 0.01
     Davidson diagonalization with overlap
     ethr =  4.46E-05,  avg # of iterations =  1.0

     total cpu time spent up to now is       13.3 secs

     total energy              =     -30.12152473 Ry
     estimated scf accuracy    <       0.00200138 Ry

     iteration #  7     ecut=    50.00 Ry     beta= 0.01
     Davidson diagonalization with overlap
     ethr =  2.50E-05,  avg # of iterations =  2.0

     total cpu time spent up to now is       15.3 secs

     total energy              =     -30.12175049 Ry
     estimated scf accuracy    <       0.00020278 Ry

     iteration #  8     ecut=    50.00 Ry     beta= 0.01
     Davidson diagonalization with overlap
     ethr =  2.53E-06,  avg # of iterations =  1.1

     total cpu time spent up to now is       17.0 secs

     total energy              =     -30.12179013 Ry
     estimated scf accuracy    <       0.00032295 Ry

     iteration #  9     ecut=    50.00 Ry     beta= 0.01
     Davidson diagonalization with overlap
     ethr =  2.53E-06,  avg # of iterations =  1.0

     total cpu time spent up to now is       18.6 secs

     total energy              =     -30.12175666 Ry
     estimated scf accuracy    <       0.00026850 Ry

     iteration # 10     ecut=    50.00 Ry     beta= 0.01
     Davidson diagonalization with overlap
     ethr =  2.53E-06,  avg # of iterations =  1.0

     total cpu time spent up to now is       20.3 secs

     total energy              =     -30.12176524 Ry
     estimated scf accuracy    <       0.00000558 Ry

     iteration # 11     ecut=    50.00 Ry     beta= 0.01
     Davidson diagonalization with overlap
     ethr =  6.98E-08,  avg # of iterations =  1.1

     total cpu time spent up to now is       22.0 secs

     total energy              =     -30.12176360 Ry
     estimated scf accuracy    <       0.00000589 Ry

     iteration # 12     ecut=    50.00 Ry     beta= 0.01
     Davidson diagonalization with overlap
     ethr =  6.98E-08,  avg # of iterations =  1.0

     total cpu time spent up to now is       23.6 secs

     End of self-consistent calculation

          k = 0.0000 0.0000 0.0000 (   531 PWs)   bands (ev):

    -5.0458  17.3527  17.3527  17.3527

          k =-0.1000 0.1000-0.1000 (   495 PWs)   bands (ev):

    -4.8419  16.0215  17.1575  17.1575

          k =-0.2000 0.2000-0.2000 (   489 PWs)   bands (ev):

    -4.2520  13.1330  16.7387  16.7387

          k =-0.3000 0.3000-0.3000 (   489 PWs)   bands (ev):

    -3.3540  10.0874  16.3559  16.3559

          k =-0.4000 0.4000-0.4000 (   477 PWs)   bands (ev):

    -2.3847   7.6953  16.1290  16.1290

          k = 0.5000-0.5000 0.5000 (   476 PWs)   bands (ev):

    -1.9082   6.7269  16.0595  16.0595

          k = 0.0000 0.2000 0.0000 (   503 PWs)   bands (ev):

    -4.7707  16.4192  16.4192  16.8928

          k =-0.1000 0.3000-0.1000 (   495 PWs)   bands (ev):

    -4.2969  14.1522  15.6624  16.6761

          k =-0.2000 0.4000-0.2000 (   487 PWs)   bands (ev):

    -3.4726  11.1066  15.1652  16.0517

          k =-0.3000 0.5000-0.3000 (   481 PWs)   bands (ev):

    -2.4630   8.4198  15.0451  15.2615

          k = 0.6000-0.4000 0.6000 (   477 PWs)   bands (ev):

    -1.7240   6.8751  14.5935  15.3115

          k = 0.5000-0.3000 0.5000 (   481 PWs)   bands (ev):

    -1.9035   7.2242  14.2079  15.8877

          k = 0.4000-0.2000 0.4000 (   485 PWs)   bands (ev):

    -2.8142   9.2643  14.1845  16.6091

          k = 0.3000-0.1000 0.3000 (   491 PWs)   bands (ev):

    -3.7920  12.1780  14.5445  17.2360

          k = 0.2000 0.0000 0.2000 (   493 PWs)   bands (ev):

    -4.5052  15.0431  15.3838  17.4849

          k = 0.0000 0.4000 0.0000 (   488 PWs)   bands (ev):

    -3.9245  14.6179  14.6179  14.7931

          k =-0.1000 0.5000-0.1000 (   485 PWs)   bands (ev):

    -3.1673  11.9569  13.9117  14.1505

          k =-0.2000 0.6000-0.2000 (   475 PWs)   bands (ev):

    -2.1365   9.1846  13.0469  13.6632

          k = 0.7000-0.3000 0.7000 (   477 PWs)   bands (ev):

    -1.1850   7.2087  12.0603  13.9032

          k = 0.6000-0.2000 0.6000 (   477 PWs)   bands (ev):

    -1.0557   6.9754  11.4490  14.6010

          k = 0.5000-0.1000 0.5000 (   484 PWs)   bands (ev):

    -1.8962   8.6720  11.2799  15.6395

          k = 0.4000 0.0000 0.4000 (   489 PWs)   bands (ev):

    -2.9579  11.3491  11.6519  16.7192

          k = 0.0000 0.6000 0.0000 (   484 PWs)   bands (ev):

    -2.4594  11.0023  12.9991  12.9991

          k =-0.1000 0.7000-0.1000 (   475 PWs)   bands (ev):

    -1.4242   8.8005  11.9441  12.5672

          k = 0.8000-0.2000 0.8000 (   476 PWs)   bands (ev):

    -0.3332   6.9485  10.6000  12.6600

          k = 0.7000-0.1000 0.7000 (   482 PWs)   bands (ev):

     0.0339   6.4576   9.6648  13.2704

          k = 0.6000-0.0000 0.6000 (   484 PWs)   bands (ev):

    -0.7643   7.6982   9.5135  14.3317

          k = 0.0000 0.8000 0.0000 (   468 PWs)   bands (ev):

    -0.3861   7.0066  11.9454  11.9454

          k = 0.9000-0.1000 0.9000 (   469 PWs)   bands (ev):

     0.7148   5.4761  11.0572  11.8581

          k = 0.8000 0.0000 0.8000 (   474 PWs)   bands (ev):

     0.9510   5.3395   9.8845  12.3125

          k = 0.0000-1.0000 0.0000 (   468 PWs)   bands (ev):

     1.3809   4.5338  11.5838  11.5838

          k =-0.2000 0.4000 0.0000 (   484 PWs)   bands (ev):

    -3.6875  13.1054  13.4470  16.3277

          k =-0.3000 0.5000-0.1000 (   485 PWs)   bands (ev):

    -2.7499  10.2710  12.6714  15.6525

          k = 0.6000-0.4000 0.8000 (   480 PWs)   bands (ev):

    -1.7161   7.8369  12.3641  14.9475

          k = 0.5000-0.3000 0.7000 (   474 PWs)   bands (ev):

    -1.1933   6.8258  12.2846  14.6571

          k =-0.2000 0.6000 0.0000 (   479 PWs)   bands (ev):

    -2.2760  10.4806  11.7419  13.8949

          k = 0.7000-0.3000 0.9000 (   479 PWs)   bands (ev):

    -1.1731   8.3078  10.5609  13.5493

          k = 0.6000-0.2000 0.8000 (   484 PWs)   bands (ev):

    -0.3710   6.8960   9.9346  13.5683

          k = 0.5000-0.1000 0.7000 (   483 PWs)   bands (ev):

    -0.6620   7.4502   9.6809  14.0606

          k = 0.4000 0.0000 0.6000 (   482 PWs)   bands (ev):

    -1.7116   9.5497   9.9354  14.8831

          k = 0.8000-0.2000 1.0000 (   475 PWs)   bands (ev):

    -0.3126   7.0937  10.6425  12.4651

          k = 0.7000-0.1000 0.9000 (   481 PWs)   bands (ev):

     0.5987   6.0331   9.3460  12.6270

          k = 0.6000 0.0000 0.8000 (   479 PWs)   bands (ev):

     0.3883   6.5252   8.6824  13.1793

          k =-0.2000-1.0000 0.0000 (   480 PWs)   bands (ev):

     1.2378   4.9372  10.2665  12.0423

          k = 0.6000-0.2000 1.0000 (   487 PWs)   bands (ev):

    -0.0671   7.6028   8.4026  13.2867

          k = 0.5000-0.1000 0.9000 (   480 PWs)   bands (ev):

     0.5248   6.9710   7.8200  13.1552

          k =-0.4000-1.0000 0.0000 (   476 PWs)   bands (ev):

     1.0228   6.1267   8.0120  12.8141

     highest occupied level (ev):    17.4849

!    total energy              =     -30.12176465 Ry
     estimated scf accuracy    <       0.00000088 Ry

     The total energy is the sum of the following terms:
     one-electron contribution =      10.71948474 Ry
     hartree contribution      =       1.86631267 Ry
     xc contribution           =      -7.05586121 Ry
     ewald contribution        =     -35.65170085 Ry

     convergence has been achieved in  12 iterations
     Writing meta-gga kinetic term

     Writing all to output data dir ./input_pw/LiCl/0/pwscf.save/
     Writing meta-gga kinetic term
 
     init_run     :      0.90s CPU      2.60s WALL (       1 calls)
     electrons    :      8.10s CPU     20.88s WALL (       1 calls)

     Called by init_run:
     wfcinit      :      0.80s CPU      2.15s WALL (       1 calls)
     potinit      :      0.01s CPU      0.04s WALL (       1 calls)
     hinit0       :      0.10s CPU      0.38s WALL (       1 calls)

     Called by electrons:
     c_bands      :      6.37s CPU     16.50s WALL (      12 calls)
     sum_band     :      1.57s CPU      3.91s WALL (      12 calls)
     v_of_rho     :      0.11s CPU      0.29s WALL (      13 calls)
     mix_rho      :      0.06s CPU      0.20s WALL (      12 calls)

     Called by c_bands:
     init_us_2    :      0.08s CPU      0.26s WALL (    1175 calls)
     init_us_2:cp :      0.08s CPU      0.25s WALL (    1175 calls)
     cegterg      :      6.29s CPU     16.28s WALL (     564 calls)

     Called by *egterg:
     cdiaghg      :      0.06s CPU      0.10s WALL (    1231 calls)
     h_psi        :      6.89s CPU     18.02s WALL (    1278 calls)
     g_psi        :      0.00s CPU      0.00s WALL (     667 calls)

     Called by h_psi:
     h_psi:calbec :      0.02s CPU      0.06s WALL (    1278 calls)
     vloc_psi     :      1.69s CPU      4.38s WALL (    1278 calls)
     add_vuspsi   :      0.02s CPU      0.06s WALL (    1278 calls)
     h_psi_meta   :      5.13s CPU     13.48s WALL (    1278 calls)

     General routines
     calbec       :      0.02s CPU      0.06s WALL (    1278 calls)
     fft          :      0.02s CPU      0.15s WALL (     153 calls)
     ffts         :      0.03s CPU      0.07s WALL (     219 calls)
     fftw         :      7.46s CPU     19.48s WALL (   52248 calls)
     interpolate  :      0.00s CPU      0.00s WALL (      13 calls)
 
     Parallel routines
 
     PWSCF        :      9.07s CPU     23.66s WALL

 
   This run was terminated on:  14:29: 6  14Mar2023            

=------------------------------------------------------------------------------=
   JOB DONE.
=------------------------------------------------------------------------------=
