
     Program PWSCF v.7.0 starts on  7Jul2023 at 14:24:17 

     This program is part of the open-source Quantum ESPRESSO suite
     for quantum simulation of materials; please cite
         "P. Giannozzi et al., J. Phys.:Condens. Matter 21 395502 (2009);
         "P. Giannozzi et al., J. Phys.:Condens. Matter 29 465901 (2017);
         "P. Giannozzi et al., J. Chem. Phys. 152 154105 (2020);
          URL http://www.quantum-espresso.org", 
     in publications or presentations arising from this work. More details at
     http://www.quantum-espresso.org/quote

     Parallel version (MPI), running on     1 processors

     MPI processes distributed on     1 nodes
     27206 MiB available memory on the printing compute node when the environment starts
 
     Waiting for input...
     Reading input from standard input
Warning: card &CELL ignored
Warning: card / ignored

     Current dimensions of program PWSCF are:
     Max number of different atomic species (ntypx) = 10
     Max number of k-points (npk) =  40000
     Max angular momentum in pseudopotentials (lmaxx) =  4
     file Cl.SCAN.UPF2: wavefunction(s)  0D renormalized

     WARNING: the MGGA functional with ID    5 has been 
     read together with other dft terms, but it should 
     stand alone in order to work properly. The other 
     terms will be ignored.

     WARNING: the MGGA functional with ID    5 has been 
     read together with other dft terms, but it should 
     stand alone in order to work properly. The other 
     terms will be ignored.

     Subspace diagonalization in iterative solution of the eigenvalue problem:
     a serial algorithm will be used

 
     G-vector sticks info
     --------------------
     sticks:   dense  smooth     PW     G-vecs:    dense   smooth      PW
     Sum         721     721    211                12627    12627    2109
 
     Using Slab Decomposition
 


     bravais-lattice index     =            2
     lattice parameter (alat)  =      10.1789  a.u.
     unit-cell volume          =     263.6599 (a.u.)^3
     number of atoms/cell      =            2
     number of atomic types    =            2
     number of electrons       =         8.00
     number of Kohn-Sham states=            4
     kinetic-energy cutoff     =      50.0000  Ry
     charge density cutoff     =     200.0000  Ry
     scf convergence threshold =      2.0E-05
     mixing beta               =       0.2000
     number of iterations used =            8  local-TF  mixing
     Exchange-correlation= SLA  PW   SCAN SCAN
                           (   0   0   0   0   0 263 267)

     celldm(1)=  10.178912  celldm(2)=   0.000000  celldm(3)=   0.000000
     celldm(4)=   0.000000  celldm(5)=   0.000000  celldm(6)=   0.000000

     crystal axes: (cart. coord. in units of alat)
               a(1) = (  -0.500000   0.000000   0.500000 )  
               a(2) = (   0.000000   0.500000   0.500000 )  
               a(3) = (  -0.500000   0.500000   0.000000 )  

     reciprocal axes: (cart. coord. in units 2 pi/alat)
               b(1) = ( -1.000000 -1.000000  1.000000 )  
               b(2) = (  1.000000  1.000000  1.000000 )  
               b(3) = ( -1.000000  1.000000 -1.000000 )  


     PseudoPot. # 1 for Li read from file:
     ~/Documents/TA/PWDFT.jl/pseudopotentials/scan_upf/Li.SCAN.UPF2
     MD5 check sum: Not computed, couldn't open file
     Pseudo is Norm-conserving, Zval =  1.0
     Generated by new atomic code, or converted to UPF format
     Using radial grid of 1321 points,  1 beta functions with: 
                l(1) =   0

     PseudoPot. # 2 for Cl read from file:
     ~/Documents/TA/PWDFT.jl/pseudopotentials/scan_upf/Cl.SCAN.UPF2
     MD5 check sum: Not computed, couldn't open file
     Pseudo is Norm-conserving, Zval =  7.0
     Generated by new atomic code, or converted to UPF format
     Using radial grid of 1493 points,  2 beta functions with: 
                l(1) =   0
                l(2) =   1

     atomic species   valence    mass     pseudopotential
        Li             1.00     6.94100     Li( 1.00)
        Cl             7.00    35.45300     Cl( 1.00)

     48 Sym. Ops., with inversion, found



   Cartesian axes

     site n.     atom                  positions (alat units)
         1           Li  tau(   1) = (   0.0000000   0.0000000   0.0000000  )
         2           Cl  tau(   2) = (   0.5000000   0.5000000   0.5000000  )

     number of k points=    47
                       cart. coord. in units 2pi/alat
        k(    1) = (   0.0000000   0.0000000   0.0000000), wk =   0.0020000
        k(    2) = (  -0.1000000   0.1000000  -0.1000000), wk =   0.0160000
        k(    3) = (  -0.2000000   0.2000000  -0.2000000), wk =   0.0160000
        k(    4) = (  -0.3000000   0.3000000  -0.3000000), wk =   0.0160000
        k(    5) = (  -0.4000000   0.4000000  -0.4000000), wk =   0.0160000
        k(    6) = (   0.5000000  -0.5000000   0.5000000), wk =   0.0080000
        k(    7) = (   0.0000000   0.2000000   0.0000000), wk =   0.0120000
        k(    8) = (  -0.1000000   0.3000000  -0.1000000), wk =   0.0480000
        k(    9) = (  -0.2000000   0.4000000  -0.2000000), wk =   0.0480000
        k(   10) = (  -0.3000000   0.5000000  -0.3000000), wk =   0.0480000
        k(   11) = (   0.6000000  -0.4000000   0.6000000), wk =   0.0480000
        k(   12) = (   0.5000000  -0.3000000   0.5000000), wk =   0.0480000
        k(   13) = (   0.4000000  -0.2000000   0.4000000), wk =   0.0480000
        k(   14) = (   0.3000000  -0.1000000   0.3000000), wk =   0.0480000
        k(   15) = (   0.2000000   0.0000000   0.2000000), wk =   0.0240000
        k(   16) = (   0.0000000   0.4000000   0.0000000), wk =   0.0120000
        k(   17) = (  -0.1000000   0.5000000  -0.1000000), wk =   0.0480000
        k(   18) = (  -0.2000000   0.6000000  -0.2000000), wk =   0.0480000
        k(   19) = (   0.7000000  -0.3000000   0.7000000), wk =   0.0480000
        k(   20) = (   0.6000000  -0.2000000   0.6000000), wk =   0.0480000
        k(   21) = (   0.5000000  -0.1000000   0.5000000), wk =   0.0480000
        k(   22) = (   0.4000000   0.0000000   0.4000000), wk =   0.0240000
        k(   23) = (   0.0000000   0.6000000   0.0000000), wk =   0.0120000
        k(   24) = (  -0.1000000   0.7000000  -0.1000000), wk =   0.0480000
        k(   25) = (   0.8000000  -0.2000000   0.8000000), wk =   0.0480000
        k(   26) = (   0.7000000  -0.1000000   0.7000000), wk =   0.0480000
        k(   27) = (   0.6000000  -0.0000000   0.6000000), wk =   0.0240000
        k(   28) = (   0.0000000   0.8000000   0.0000000), wk =   0.0120000
        k(   29) = (   0.9000000  -0.1000000   0.9000000), wk =   0.0480000
        k(   30) = (   0.8000000   0.0000000   0.8000000), wk =   0.0240000
        k(   31) = (   0.0000000  -1.0000000   0.0000000), wk =   0.0060000
        k(   32) = (  -0.2000000   0.4000000   0.0000000), wk =   0.0480000
        k(   33) = (  -0.3000000   0.5000000  -0.1000000), wk =   0.0960000
        k(   34) = (   0.6000000  -0.4000000   0.8000000), wk =   0.0960000
        k(   35) = (   0.5000000  -0.3000000   0.7000000), wk =   0.0480000
        k(   36) = (  -0.2000000   0.6000000   0.0000000), wk =   0.0480000
        k(   37) = (   0.7000000  -0.3000000   0.9000000), wk =   0.0960000
        k(   38) = (   0.6000000  -0.2000000   0.8000000), wk =   0.0960000
        k(   39) = (   0.5000000  -0.1000000   0.7000000), wk =   0.0960000
        k(   40) = (   0.4000000   0.0000000   0.6000000), wk =   0.0480000
        k(   41) = (   0.8000000  -0.2000000   1.0000000), wk =   0.0480000
        k(   42) = (   0.7000000  -0.1000000   0.9000000), wk =   0.0960000
        k(   43) = (   0.6000000   0.0000000   0.8000000), wk =   0.0480000
        k(   44) = (  -0.2000000  -1.0000000   0.0000000), wk =   0.0240000
        k(   45) = (   0.6000000  -0.2000000   1.0000000), wk =   0.0480000
        k(   46) = (   0.5000000  -0.1000000   0.9000000), wk =   0.0480000
        k(   47) = (  -0.4000000  -1.0000000   0.0000000), wk =   0.0240000

     Dense  grid:    12627 G-vectors     FFT dimensions: (  36,  36,  36)

     Estimated max dynamical RAM per process >      24.96 MB

     WARNING: libxc functional with ID  263 depends
      on external parameters: check the user_guide of
      QE if you need to modify them or to check their
      default values.

     Initial potential from superposition of free atoms

     starting charge       7.9953, renormalised to       8.0000
     Starting wfcs are   13 randomized atomic wfcs

     total cpu time spent up to now is        6.6 secs

     Self-consistent Calculation

     iteration #  1     ecut=    50.00 Ry     beta= 0.20
     Davidson diagonalization with overlap
     ethr =  1.00E-02,  avg # of iterations =  1.0

     total cpu time spent up to now is       11.6 secs

     total energy              =     -30.70162227 Ry
     estimated scf accuracy    <       0.35605069 Ry

     iteration #  2     ecut=    50.00 Ry     beta= 0.20
     Davidson diagonalization with overlap
     ethr =  4.45E-03,  avg # of iterations =  1.0

     total cpu time spent up to now is       15.8 secs

     total energy              =     -30.73881781 Ry
     estimated scf accuracy    <       0.23111791 Ry

     iteration #  3     ecut=    50.00 Ry     beta= 0.20
     Davidson diagonalization with overlap
     ethr =  2.89E-03,  avg # of iterations =  1.0

     total cpu time spent up to now is       19.0 secs

     total energy              =     -30.74169527 Ry
     estimated scf accuracy    <       0.00260066 Ry

     iteration #  4     ecut=    50.00 Ry     beta= 0.20
     Davidson diagonalization with overlap
     ethr =  3.25E-05,  avg # of iterations =  2.0

     total cpu time spent up to now is       22.8 secs

     total energy              =     -30.74205897 Ry
     estimated scf accuracy    <       0.00124783 Ry

     iteration #  5     ecut=    50.00 Ry     beta= 0.20
     Davidson diagonalization with overlap
     ethr =  1.56E-05,  avg # of iterations =  1.6

     total cpu time spent up to now is       25.5 secs

     total energy              =     -30.74227667 Ry
     estimated scf accuracy    <       0.00023322 Ry

     iteration #  6     ecut=    50.00 Ry     beta= 0.20
     Davidson diagonalization with overlap
     ethr =  2.92E-06,  avg # of iterations =  2.0

     total cpu time spent up to now is       28.8 secs

     total energy              =     -30.74232575 Ry
     estimated scf accuracy    <       0.00008568 Ry

     iteration #  7     ecut=    50.00 Ry     beta= 0.20
     Davidson diagonalization with overlap
     ethr =  1.07E-06,  avg # of iterations =  1.0

     total cpu time spent up to now is       31.1 secs

     End of self-consistent calculation

          k = 0.0000 0.0000 0.0000 (  1591 PWs)   bands (ev):

   -13.5080  -0.0958  -0.0958  -0.0958

          k =-0.1000 0.1000-0.1000 (  1543 PWs)   bands (ev):

   -13.4692  -0.3781  -0.1171  -0.1171

          k =-0.2000 0.2000-0.2000 (  1552 PWs)   bands (ev):

   -13.3663  -1.0279  -0.1713  -0.1713

          k =-0.3000 0.3000-0.3000 (  1573 PWs)   bands (ev):

   -13.2332  -1.7186  -0.2352  -0.2352

          k =-0.4000 0.4000-0.4000 (  1586 PWs)   bands (ev):

   -13.1200  -2.2210  -0.2846  -0.2846

          k = 0.5000-0.5000 0.5000 (  1568 PWs)   bands (ev):

   -13.0751  -2.4034  -0.3029  -0.3029

          k = 0.0000 0.2000 0.0000 (  1547 PWs)   bands (ev):

   -13.4563  -0.3518  -0.1879  -0.1879

          k =-0.1000 0.3000-0.1000 (  1555 PWs)   bands (ev):

   -13.3745  -0.8480  -0.2808  -0.2256

          k =-0.2000 0.4000-0.2000 (  1571 PWs)   bands (ev):

   -13.2504  -1.5066  -0.3589  -0.3003

          k =-0.3000 0.5000-0.3000 (  1572 PWs)   bands (ev):

   -13.1288  -2.0525  -0.4079  -0.3939

          k = 0.6000-0.4000 0.6000 (  1562 PWs)   bands (ev):

   -13.0598  -2.3298  -0.5053  -0.3745

          k = 0.5000-0.3000 0.5000 (  1569 PWs)   bands (ev):

   -13.0750  -2.2675  -0.5555  -0.3083

          k = 0.4000-0.2000 0.4000 (  1570 PWs)   bands (ev):

   -13.1671  -1.8839  -0.5376  -0.2184

          k = 0.3000-0.1000 0.3000 (  1569 PWs)   bands (ev):

   -13.2954  -1.2894  -0.4480  -0.1376

          k = 0.2000 0.0000 0.2000 (  1554 PWs)   bands (ev):

   -13.4093  -0.6982  -0.2895  -0.0980

          k = 0.0000 0.4000 0.0000 (  1559 PWs)   bands (ev):

   -13.3170  -0.9668  -0.4192  -0.4192

          k =-0.1000 0.5000-0.1000 (  1578 PWs)   bands (ev):

   -13.2128  -1.4317  -0.5424  -0.5328

          k =-0.2000 0.6000-0.2000 (  1581 PWs)   bands (ev):

   -13.0985  -1.8921  -0.7250  -0.5826

          k = 0.7000-0.3000 0.7000 (  1579 PWs)   bands (ev):

   -13.0195  -2.1607  -0.9327  -0.5528

          k = 0.6000-0.2000 0.6000 (  1560 PWs)   bands (ev):

   -13.0101  -2.1621  -1.0772  -0.4531

          k = 0.5000-0.1000 0.5000 (  1566 PWs)   bands (ev):

   -13.0749  -1.9216  -1.0758  -0.3170

          k = 0.4000 0.0000 0.4000 (  1558 PWs)   bands (ev):

   -13.1847  -1.5853  -0.8482  -0.1950

          k = 0.0000 0.6000 0.0000 (  1580 PWs)   bands (ev):

   -13.1328  -1.6647  -0.6875  -0.6875

          k =-0.1000 0.7000-0.1000 (  1581 PWs)   bands (ev):

   -13.0389  -1.9726  -0.8688  -0.7706

          k = 0.8000-0.2000 0.8000 (  1587 PWs)   bands (ev):

   -12.9678  -2.1168  -1.1735  -0.7569

          k = 0.7000-0.1000 0.7000 (  1569 PWs)   bands (ev):

   -12.9490  -2.0127  -1.5055  -0.6506

          k = 0.6000-0.0000 0.6000 (  1578 PWs)   bands (ev):

   -12.9910  -1.8295  -1.5855  -0.4843

          k = 0.0000 0.8000 0.0000 (  1592 PWs)   bands (ev):

   -12.9723  -2.2039  -0.8922  -0.8922

          k = 0.9000-0.1000 0.9000 (  1580 PWs)   bands (ev):

   -12.9245  -2.3046  -1.0606  -0.9111

          k = 0.8000 0.0000 0.8000 (  1596 PWs)   bands (ev):

   -12.9160  -2.1826  -1.3658  -0.8221

          k = 0.0000-1.0000 0.0000 (  1588 PWs)   bands (ev):

   -12.9078  -2.4067  -0.9677  -0.9677

          k =-0.2000 0.4000 0.0000 (  1562 PWs)   bands (ev):

   -13.2813  -1.2232  -0.5432  -0.2526

          k =-0.3000 0.5000-0.1000 (  1577 PWs)   bands (ev):

   -13.1613  -1.7058  -0.7515  -0.3269

          k = 0.6000-0.4000 0.8000 (  1575 PWs)   bands (ev):

   -13.0597  -2.0948  -0.8543  -0.4222

          k = 0.5000-0.3000 0.7000 (  1566 PWs)   bands (ev):

   -13.0197  -2.2411  -0.8823  -0.4662

          k =-0.2000 0.6000 0.0000 (  1567 PWs)   bands (ev):

   -13.1128  -1.7430  -0.8352  -0.5756

          k = 0.7000-0.3000 0.9000 (  1575 PWs)   bands (ev):

   -13.0188  -1.9899  -1.0911  -0.6547

          k = 0.6000-0.2000 0.8000 (  1565 PWs)   bands (ev):

   -12.9687  -2.0703  -1.3054  -0.6624

          k = 0.5000-0.1000 0.7000 (  1573 PWs)   bands (ev):

   -12.9848  -1.9768  -1.3930  -0.5700

          k = 0.4000 0.0000 0.6000 (  1580 PWs)   bands (ev):

   -13.0596  -1.8426  -1.1920  -0.4308

          k = 0.8000-0.2000 1.0000 (  1579 PWs)   bands (ev):

   -12.9670  -2.1411  -1.0564  -0.8558

          k = 0.7000-0.1000 0.9000 (  1578 PWs)   bands (ev):

   -12.9261  -2.1165  -1.3527  -0.8622

          k = 0.6000 0.0000 0.8000 (  1569 PWs)   bands (ev):

   -12.9331  -1.8740  -1.6824  -0.7469

          k =-0.2000-1.0000 0.0000 (  1580 PWs)   bands (ev):

   -12.9087  -2.2935  -1.1377  -0.9613

          k = 0.6000-0.2000 1.0000 (  1586 PWs)   bands (ev):

   -12.9528  -1.9586  -1.4482  -0.7811

          k = 0.5000-0.1000 0.9000 (  1584 PWs)   bands (ev):

   -12.9272  -1.8668  -1.6501  -0.8476

          k =-0.4000-1.0000 0.0000 (  1586 PWs)   bands (ev):

   -12.9106  -1.9782  -1.5417  -0.9508

     highest occupied level (ev):    -0.0958

!    total energy              =     -30.74232515 Ry
     estimated scf accuracy    <       0.00001130 Ry

     The total energy is the sum of the following terms:
     one-electron contribution =      -6.91391978 Ry
     hartree contribution      =       6.50613477 Ry
     xc contribution           =      -6.31435473 Ry
     ewald contribution        =     -24.02018542 Ry

     convergence has been achieved in   7 iterations
     Writing meta-gga kinetic term

     Writing all to output data dir ./input_pw/LiCl/8/pwscf.save/
     Writing meta-gga kinetic term
 
     init_run     :      3.03s CPU      6.50s WALL (       1 calls)
     electrons    :     18.29s CPU     24.52s WALL (       1 calls)

     Called by init_run:
     wfcinit      :      2.89s CPU      6.12s WALL (       1 calls)
     potinit      :      0.04s CPU      0.17s WALL (       1 calls)
     hinit0       :      0.09s CPU      0.15s WALL (       1 calls)

     Called by electrons:
     c_bands      :     14.51s CPU     19.61s WALL (       7 calls)
     sum_band     :      3.40s CPU      4.39s WALL (       7 calls)
     v_of_rho     :      0.24s CPU      0.44s WALL (       8 calls)
     mix_rho      :      0.16s CPU      0.23s WALL (       7 calls)

     Called by c_bands:
     init_us_2    :      0.14s CPU      0.17s WALL (     705 calls)
     init_us_2:cp :      0.14s CPU      0.16s WALL (     705 calls)
     cegterg      :     14.38s CPU     19.45s WALL (     329 calls)

     Called by *egterg:
     cdiaghg      :      0.05s CPU      0.07s WALL (     780 calls)
     h_psi        :     16.99s CPU     25.16s WALL (     827 calls)
     g_psi        :      0.01s CPU      0.01s WALL (     451 calls)

     Called by h_psi:
     h_psi:calbec :      0.04s CPU      0.10s WALL (     827 calls)
     vloc_psi     :      4.20s CPU      6.27s WALL (     827 calls)
     add_vuspsi   :      0.04s CPU      0.04s WALL (     827 calls)
     h_psi_meta   :     12.68s CPU     18.70s WALL (     827 calls)

     General routines
     calbec       :      0.04s CPU      0.09s WALL (     827 calls)
     fft          :      0.05s CPU      0.07s WALL (      93 calls)
     ffts         :      0.08s CPU      0.10s WALL (     156 calls)
     fftw         :     17.76s CPU     25.93s WALL (   34176 calls)
     interpolate  :      0.00s CPU      0.00s WALL (       8 calls)
 
     Parallel routines
 
     PWSCF        :     21.38s CPU     31.15s WALL

 
   This run was terminated on:  14:24:48   7Jul2023            

=------------------------------------------------------------------------------=
   JOB DONE.
=------------------------------------------------------------------------------=
