
     Program PWSCF v.7.0 starts on 29Mar2023 at 10:21:34 

     This program is part of the open-source Quantum ESPRESSO suite
     for quantum simulation of materials; please cite
         "P. Giannozzi et al., J. Phys.:Condens. Matter 21 395502 (2009);
         "P. Giannozzi et al., J. Phys.:Condens. Matter 29 465901 (2017);
         "P. Giannozzi et al., J. Chem. Phys. 152 154105 (2020);
          URL http://www.quantum-espresso.org", 
     in publications or presentations arising from this work. More details at
     http://www.quantum-espresso.org/quote

     Parallel version (MPI), running on     1 processors

     MPI processes distributed on     1 nodes
     24234 MiB available memory on the printing compute node when the environment starts
 
     Waiting for input...
     Reading input from standard input
Warning: card &CELL ignored
Warning: card / ignored

     Current dimensions of program PWSCF are:
     Max number of different atomic species (ntypx) = 10
     Max number of k-points (npk) =  40000
     Max angular momentum in pseudopotentials (lmaxx) =  4
     file Cl.SCAN.UPF2: wavefunction(s)  0D renormalized

     WARNING: the MGGA functional with ID    5 has been 
     read together with other dft terms, but it should 
     stand alone in order to work properly. The other 
     terms will be ignored.

     WARNING: the MGGA functional with ID    5 has been 
     read together with other dft terms, but it should 
     stand alone in order to work properly. The other 
     terms will be ignored.

     Subspace diagonalization in iterative solution of the eigenvalue problem:
     a serial algorithm will be used

 
     G-vector sticks info
     --------------------
     sticks:   dense  smooth     PW     G-vecs:    dense   smooth      PW
     Sum         721     721    211                12627    12627    2109
 
     Using Slab Decomposition
 


     bravais-lattice index     =            2
     lattice parameter (alat)  =      10.1789  a.u.
     unit-cell volume          =     263.6616 (a.u.)^3
     number of atoms/cell      =            2
     number of atomic types    =            2
     number of electrons       =         8.00
     number of Kohn-Sham states=            4
     kinetic-energy cutoff     =      50.0000  Ry
     charge density cutoff     =     200.0000  Ry
     scf convergence threshold =      1.0E-06
     mixing beta               =       0.0100
     number of iterations used =            8  local-TF  mixing
     Exchange-correlation= SLA  PW   SCAN SCAN
                           (   0   0   0   0   0 263 267)

     celldm(1)=  10.178933  celldm(2)=   0.000000  celldm(3)=   0.000000
     celldm(4)=   0.000000  celldm(5)=   0.000000  celldm(6)=   0.000000

     crystal axes: (cart. coord. in units of alat)
               a(1) = (  -0.500000   0.000000   0.500000 )  
               a(2) = (   0.000000   0.500000   0.500000 )  
               a(3) = (  -0.500000   0.500000   0.000000 )  

     reciprocal axes: (cart. coord. in units 2 pi/alat)
               b(1) = ( -1.000000 -1.000000  1.000000 )  
               b(2) = (  1.000000  1.000000  1.000000 )  
               b(3) = ( -1.000000  1.000000 -1.000000 )  


     PseudoPot. # 1 for Li read from file:
     ~/Documents/TA/PWDFT.jl/pseudopotentials/scan_upf/Li.SCAN.UPF2
     MD5 check sum: Not computed, couldn't open file
     Pseudo is Norm-conserving, Zval =  1.0
     Generated by new atomic code, or converted to UPF format
     Using radial grid of 1321 points,  1 beta functions with: 
                l(1) =   0

     PseudoPot. # 2 for Cl read from file:
     ~/Documents/TA/PWDFT.jl/pseudopotentials/scan_upf/Cl.SCAN.UPF2
     MD5 check sum: Not computed, couldn't open file
     Pseudo is Norm-conserving, Zval =  7.0
     Generated by new atomic code, or converted to UPF format
     Using radial grid of 1493 points,  2 beta functions with: 
                l(1) =   0
                l(2) =   1

     atomic species   valence    mass     pseudopotential
        Li             1.00     6.94100     Li( 1.00)
        Cl             7.00    35.45300     Cl( 1.00)

     48 Sym. Ops., with inversion, found



   Cartesian axes

     site n.     atom                  positions (alat units)
         1           Li  tau(   1) = (   0.0000000   0.0000000   0.0000000  )
         2           Cl  tau(   2) = (   0.5000000   0.5000000   0.5000000  )

     number of k points=    47
                       cart. coord. in units 2pi/alat
        k(    1) = (   0.0000000   0.0000000   0.0000000), wk =   0.0020000
        k(    2) = (  -0.1000000   0.1000000  -0.1000000), wk =   0.0160000
        k(    3) = (  -0.2000000   0.2000000  -0.2000000), wk =   0.0160000
        k(    4) = (  -0.3000000   0.3000000  -0.3000000), wk =   0.0160000
        k(    5) = (  -0.4000000   0.4000000  -0.4000000), wk =   0.0160000
        k(    6) = (   0.5000000  -0.5000000   0.5000000), wk =   0.0080000
        k(    7) = (   0.0000000   0.2000000   0.0000000), wk =   0.0120000
        k(    8) = (  -0.1000000   0.3000000  -0.1000000), wk =   0.0480000
        k(    9) = (  -0.2000000   0.4000000  -0.2000000), wk =   0.0480000
        k(   10) = (  -0.3000000   0.5000000  -0.3000000), wk =   0.0480000
        k(   11) = (   0.6000000  -0.4000000   0.6000000), wk =   0.0480000
        k(   12) = (   0.5000000  -0.3000000   0.5000000), wk =   0.0480000
        k(   13) = (   0.4000000  -0.2000000   0.4000000), wk =   0.0480000
        k(   14) = (   0.3000000  -0.1000000   0.3000000), wk =   0.0480000
        k(   15) = (   0.2000000   0.0000000   0.2000000), wk =   0.0240000
        k(   16) = (   0.0000000   0.4000000   0.0000000), wk =   0.0120000
        k(   17) = (  -0.1000000   0.5000000  -0.1000000), wk =   0.0480000
        k(   18) = (  -0.2000000   0.6000000  -0.2000000), wk =   0.0480000
        k(   19) = (   0.7000000  -0.3000000   0.7000000), wk =   0.0480000
        k(   20) = (   0.6000000  -0.2000000   0.6000000), wk =   0.0480000
        k(   21) = (   0.5000000  -0.1000000   0.5000000), wk =   0.0480000
        k(   22) = (   0.4000000   0.0000000   0.4000000), wk =   0.0240000
        k(   23) = (   0.0000000   0.6000000   0.0000000), wk =   0.0120000
        k(   24) = (  -0.1000000   0.7000000  -0.1000000), wk =   0.0480000
        k(   25) = (   0.8000000  -0.2000000   0.8000000), wk =   0.0480000
        k(   26) = (   0.7000000  -0.1000000   0.7000000), wk =   0.0480000
        k(   27) = (   0.6000000  -0.0000000   0.6000000), wk =   0.0240000
        k(   28) = (   0.0000000   0.8000000   0.0000000), wk =   0.0120000
        k(   29) = (   0.9000000  -0.1000000   0.9000000), wk =   0.0480000
        k(   30) = (   0.8000000   0.0000000   0.8000000), wk =   0.0240000
        k(   31) = (   0.0000000  -1.0000000   0.0000000), wk =   0.0060000
        k(   32) = (  -0.2000000   0.4000000   0.0000000), wk =   0.0480000
        k(   33) = (  -0.3000000   0.5000000  -0.1000000), wk =   0.0960000
        k(   34) = (   0.6000000  -0.4000000   0.8000000), wk =   0.0960000
        k(   35) = (   0.5000000  -0.3000000   0.7000000), wk =   0.0480000
        k(   36) = (  -0.2000000   0.6000000   0.0000000), wk =   0.0480000
        k(   37) = (   0.7000000  -0.3000000   0.9000000), wk =   0.0960000
        k(   38) = (   0.6000000  -0.2000000   0.8000000), wk =   0.0960000
        k(   39) = (   0.5000000  -0.1000000   0.7000000), wk =   0.0960000
        k(   40) = (   0.4000000   0.0000000   0.6000000), wk =   0.0480000
        k(   41) = (   0.8000000  -0.2000000   1.0000000), wk =   0.0480000
        k(   42) = (   0.7000000  -0.1000000   0.9000000), wk =   0.0960000
        k(   43) = (   0.6000000   0.0000000   0.8000000), wk =   0.0480000
        k(   44) = (  -0.2000000  -1.0000000   0.0000000), wk =   0.0240000
        k(   45) = (   0.6000000  -0.2000000   1.0000000), wk =   0.0480000
        k(   46) = (   0.5000000  -0.1000000   0.9000000), wk =   0.0480000
        k(   47) = (  -0.4000000  -1.0000000   0.0000000), wk =   0.0240000

     Dense  grid:    12627 G-vectors     FFT dimensions: (  36,  36,  36)

     Estimated max dynamical RAM per process >      24.96 MB

     WARNING: libxc functional with ID  263 depends
      on external parameters: check the user_guide of
      QE if you need to modify them or to check their
      default values.

     Initial potential from superposition of free atoms

     starting charge       7.9953, renormalised to       8.0000
     Starting wfcs are   13 randomized atomic wfcs

     total cpu time spent up to now is        6.5 secs

     Self-consistent Calculation

     iteration #  1     ecut=    50.00 Ry     beta= 0.01
     Davidson diagonalization with overlap
     ethr =  1.00E-02,  avg # of iterations =  1.0

     total cpu time spent up to now is       11.2 secs

     total energy              =     -30.65779676 Ry
     estimated scf accuracy    <       0.35605085 Ry

     iteration #  2     ecut=    50.00 Ry     beta= 0.01
     Davidson diagonalization with overlap
     ethr =  4.45E-03,  avg # of iterations =  1.0

     total cpu time spent up to now is       16.0 secs

     total energy              =     -30.68679574 Ry
     estimated scf accuracy    <       0.33907078 Ry

     iteration #  3     ecut=    50.00 Ry     beta= 0.01
     Davidson diagonalization with overlap
     ethr =  4.24E-03,  avg # of iterations =  1.0

     total cpu time spent up to now is       20.8 secs

     total energy              =     -30.74078845 Ry
     estimated scf accuracy    <       0.25244943 Ry

     iteration #  4     ecut=    50.00 Ry     beta= 0.01
     Davidson diagonalization with overlap
     ethr =  3.16E-03,  avg # of iterations =  1.0

     total cpu time spent up to now is       25.6 secs

     total energy              =     -30.74317095 Ry
     estimated scf accuracy    <       0.00497625 Ry

     iteration #  5     ecut=    50.00 Ry     beta= 0.01
     Davidson diagonalization with overlap
     ethr =  6.22E-05,  avg # of iterations =  1.0

     total cpu time spent up to now is       30.9 secs

     total energy              =     -30.74301211 Ry
     estimated scf accuracy    <       0.00500121 Ry

     iteration #  6     ecut=    50.00 Ry     beta= 0.01
     Davidson diagonalization with overlap
     ethr =  6.22E-05,  avg # of iterations =  1.0

     total cpu time spent up to now is       35.2 secs

     total energy              =     -30.74086832 Ry
     estimated scf accuracy    <       0.00436401 Ry

     iteration #  7     ecut=    50.00 Ry     beta= 0.01
     Davidson diagonalization with overlap
     ethr =  5.46E-05,  avg # of iterations =  2.0

     total cpu time spent up to now is       40.0 secs

     total energy              =     -30.74293807 Ry
     estimated scf accuracy    <       0.00373517 Ry

     iteration #  8     ecut=    50.00 Ry     beta= 0.01
     Davidson diagonalization with overlap
     ethr =  4.67E-05,  avg # of iterations =  1.0

     total cpu time spent up to now is       42.5 secs

     total energy              =     -30.74250317 Ry
     estimated scf accuracy    <       0.00352718 Ry

     iteration #  9     ecut=    50.00 Ry     beta= 0.01
     Davidson diagonalization with overlap
     ethr =  4.41E-05,  avg # of iterations =  1.0

     total cpu time spent up to now is       44.9 secs

     total energy              =     -30.74213253 Ry
     estimated scf accuracy    <       0.00173506 Ry

     iteration # 10     ecut=    50.00 Ry     beta= 0.01
     Davidson diagonalization with overlap
     ethr =  2.17E-05,  avg # of iterations =  1.9

     total cpu time spent up to now is       47.6 secs

     total energy              =     -30.74231815 Ry
     estimated scf accuracy    <       0.00002786 Ry

     iteration # 11     ecut=    50.00 Ry     beta= 0.01
     Davidson diagonalization with overlap
     ethr =  3.48E-07,  avg # of iterations =  2.0

     total cpu time spent up to now is       50.9 secs

     total energy              =     -30.74234295 Ry
     estimated scf accuracy    <       0.00001819 Ry

     iteration # 12     ecut=    50.00 Ry     beta= 0.01
     Davidson diagonalization with overlap
     ethr =  2.27E-07,  avg # of iterations =  2.0

     total cpu time spent up to now is       53.7 secs

     total energy              =     -30.74231981 Ry
     estimated scf accuracy    <       0.00005513 Ry

     iteration # 13     ecut=    50.00 Ry     beta= 0.01
     Davidson diagonalization with overlap
     ethr =  2.27E-07,  avg # of iterations =  2.0

     total cpu time spent up to now is       56.9 secs

     End of self-consistent calculation

          k = 0.0000 0.0000 0.0000 (  1591 PWs)   bands (ev):

   -13.5224  -0.1084  -0.1084  -0.1084

          k =-0.1000 0.1000-0.1000 (  1543 PWs)   bands (ev):

   -13.4836  -0.3899  -0.1296  -0.1296

          k =-0.2000 0.2000-0.2000 (  1552 PWs)   bands (ev):

   -13.3809  -1.0383  -0.1837  -0.1837

          k =-0.3000 0.3000-0.3000 (  1573 PWs)   bands (ev):

   -13.2480  -1.7279  -0.2475  -0.2475

          k =-0.4000 0.4000-0.4000 (  1586 PWs)   bands (ev):

   -13.1350  -2.2295  -0.2968  -0.2968

          k = 0.5000-0.5000 0.5000 (  1568 PWs)   bands (ev):

   -13.0902  -2.4117  -0.3152  -0.3152

          k = 0.0000 0.2000 0.0000 (  1547 PWs)   bands (ev):

   -13.4707  -0.3636  -0.2003  -0.2003

          k =-0.1000 0.3000-0.1000 (  1555 PWs)   bands (ev):

   -13.3891  -0.8588  -0.2930  -0.2379

          k =-0.2000 0.4000-0.2000 (  1571 PWs)   bands (ev):

   -13.2652  -1.5162  -0.3710  -0.3124

          k =-0.3000 0.5000-0.3000 (  1572 PWs)   bands (ev):

   -13.1438  -2.0612  -0.4198  -0.4059

          k = 0.6000-0.4000 0.6000 (  1562 PWs)   bands (ev):

   -13.0749  -2.3381  -0.5170  -0.3866

          k = 0.5000-0.3000 0.5000 (  1569 PWs)   bands (ev):

   -13.0901  -2.2759  -0.5670  -0.3205

          k = 0.4000-0.2000 0.4000 (  1570 PWs)   bands (ev):

   -13.1820  -1.8929  -0.5492  -0.2308

          k = 0.3000-0.1000 0.3000 (  1569 PWs)   bands (ev):

   -13.3101  -1.2993  -0.4597  -0.1502

          k = 0.2000 0.0000 0.2000 (  1554 PWs)   bands (ev):

   -13.4238  -0.7092  -0.3016  -0.1106

          k = 0.0000 0.4000 0.0000 (  1559 PWs)   bands (ev):

   -13.3317  -0.9773  -0.4310  -0.4310

          k =-0.1000 0.5000-0.1000 (  1578 PWs)   bands (ev):

   -13.2277  -1.4414  -0.5539  -0.5444

          k =-0.2000 0.6000-0.2000 (  1581 PWs)   bands (ev):

   -13.1135  -1.9011  -0.7361  -0.5941

          k = 0.7000-0.3000 0.7000 (  1579 PWs)   bands (ev):

   -13.0347  -2.1693  -0.9434  -0.5644

          k = 0.6000-0.2000 0.6000 (  1560 PWs)   bands (ev):

   -13.0253  -2.1707  -1.0876  -0.4650

          k = 0.5000-0.1000 0.5000 (  1566 PWs)   bands (ev):

   -13.0900  -1.9305  -1.0861  -0.3292

          k = 0.4000 0.0000 0.4000 (  1558 PWs)   bands (ev):

   -13.1996  -1.5948  -0.8590  -0.2074

          k = 0.0000 0.6000 0.0000 (  1580 PWs)   bands (ev):

   -13.1478  -1.6739  -0.6988  -0.6988

          k =-0.1000 0.7000-0.1000 (  1581 PWs)   bands (ev):

   -13.0540  -1.9813  -0.8797  -0.7818

          k = 0.8000-0.2000 0.8000 (  1587 PWs)   bands (ev):

   -12.9831  -2.1254  -1.1837  -0.7682

          k = 0.7000-0.1000 0.7000 (  1569 PWs)   bands (ev):

   -12.9643  -2.0214  -1.5151  -0.6620

          k = 0.6000-0.0000 0.6000 (  1578 PWs)   bands (ev):

   -13.0062  -1.8386  -1.5949  -0.4961

          k = 0.0000 0.8000 0.0000 (  1592 PWs)   bands (ev):

   -12.9875  -2.2123  -0.9032  -0.9032

          k = 0.9000-0.1000 0.9000 (  1580 PWs)   bands (ev):

   -12.9398  -2.3128  -1.0712  -0.9221

          k = 0.8000 0.0000 0.8000 (  1596 PWs)   bands (ev):

   -12.9314  -2.1910  -1.3758  -0.8332

          k = 0.0000-1.0000 0.0000 (  1588 PWs)   bands (ev):

   -12.9231  -2.4148  -0.9786  -0.9786

          k =-0.2000 0.4000 0.0000 (  1562 PWs)   bands (ev):

   -13.2960  -1.2332  -0.5548  -0.2648

          k =-0.3000 0.5000-0.1000 (  1577 PWs)   bands (ev):

   -13.1762  -1.7150  -0.7625  -0.3390

          k = 0.6000-0.4000 0.8000 (  1575 PWs)   bands (ev):

   -13.0748  -2.1035  -0.8651  -0.4341

          k = 0.5000-0.3000 0.7000 (  1566 PWs)   bands (ev):

   -13.0349  -2.2496  -0.8931  -0.4780

          k =-0.2000 0.6000 0.0000 (  1567 PWs)   bands (ev):

   -13.1278  -1.7521  -0.8462  -0.5871

          k = 0.7000-0.3000 0.9000 (  1575 PWs)   bands (ev):

   -13.0339  -1.9987  -1.1015  -0.6661

          k = 0.6000-0.2000 0.8000 (  1565 PWs)   bands (ev):

   -12.9840  -2.0790  -1.3153  -0.6738

          k = 0.5000-0.1000 0.7000 (  1573 PWs)   bands (ev):

   -13.0001  -1.9857  -1.4027  -0.5816

          k = 0.4000 0.0000 0.6000 (  1580 PWs)   bands (ev):

   -13.0747  -1.8516  -1.2022  -0.4427

          k = 0.8000-0.2000 1.0000 (  1579 PWs)   bands (ev):

   -12.9823  -2.1496  -1.0670  -0.8668

          k = 0.7000-0.1000 0.9000 (  1578 PWs)   bands (ev):

   -12.9414  -2.1250  -1.3626  -0.8732

          k = 0.6000 0.0000 0.8000 (  1569 PWs)   bands (ev):

   -12.9484  -1.8829  -1.6917  -0.7582

          k =-0.2000-1.0000 0.0000 (  1580 PWs)   bands (ev):

   -12.9241  -2.3018  -1.1482  -0.9721

          k = 0.6000-0.2000 1.0000 (  1586 PWs)   bands (ev):

   -12.9681  -1.9675  -1.4579  -0.7922

          k = 0.5000-0.1000 0.9000 (  1584 PWs)   bands (ev):

   -12.9425  -1.8757  -1.6594  -0.8587

          k =-0.4000-1.0000 0.0000 (  1586 PWs)   bands (ev):

   -12.9260  -1.9869  -1.5512  -0.9616

     highest occupied level (ev):    -0.1084

!    total energy              =     -30.74232895 Ry
     estimated scf accuracy    <       0.00000066 Ry

     The total energy is the sum of the following terms:
     one-electron contribution =      -6.92073006 Ry
     hartree contribution      =       6.51533562 Ry
     xc contribution           =      -6.31679836 Ry
     ewald contribution        =     -24.02013616 Ry

     convergence has been achieved in  13 iterations
     Writing meta-gga kinetic term

     Writing all to output data dir ./input_pw/LiCl/8/pwscf.save/
     Writing meta-gga kinetic term
 
     init_run     :      3.06s CPU      6.45s WALL (       1 calls)
     electrons    :     34.30s CPU     50.39s WALL (       1 calls)

     Called by init_run:
     wfcinit      :      2.92s CPU      6.02s WALL (       1 calls)
     potinit      :      0.03s CPU      0.19s WALL (       1 calls)
     hinit0       :      0.09s CPU      0.21s WALL (       1 calls)

     Called by electrons:
     c_bands      :     27.19s CPU     39.91s WALL (      13 calls)
     sum_band     :      6.32s CPU      9.30s WALL (      13 calls)
     v_of_rho     :      0.43s CPU      0.76s WALL (      14 calls)
     mix_rho      :      0.37s CPU      0.56s WALL (      13 calls)

     Called by c_bands:
     init_us_2    :      0.26s CPU      0.40s WALL (    1269 calls)
     init_us_2:cp :      0.26s CPU      0.40s WALL (    1269 calls)
     cegterg      :     26.94s CPU     39.51s WALL (     611 calls)

     Called by *egterg:
     cdiaghg      :      0.09s CPU      0.12s WALL (    1453 calls)
     h_psi        :     29.39s CPU     44.85s WALL (    1500 calls)
     g_psi        :      0.02s CPU      0.02s WALL (     842 calls)

     Called by h_psi:
     h_psi:calbec :      0.08s CPU      0.12s WALL (    1500 calls)
     vloc_psi     :      7.30s CPU     11.24s WALL (    1500 calls)
     add_vuspsi   :      0.07s CPU      0.08s WALL (    1500 calls)
     h_psi_meta   :     21.90s CPU     33.35s WALL (    1500 calls)

     General routines
     calbec       :      0.08s CPU      0.12s WALL (    1500 calls)
     fft          :      0.08s CPU      0.20s WALL (     165 calls)
     ffts         :      0.17s CPU      0.24s WALL (     312 calls)
     fftw         :     30.88s CPU     46.96s WALL (   59672 calls)
     interpolate  :      0.00s CPU      0.00s WALL (      14 calls)
 
     Parallel routines
 
     PWSCF        :     37.41s CPU     56.95s WALL

 
   This run was terminated on:  10:22:31  29Mar2023            

=------------------------------------------------------------------------------=
   JOB DONE.
=------------------------------------------------------------------------------=
