
     Program PWSCF v.7.0 starts on  7Jul2023 at 14:24:17 

     This program is part of the open-source Quantum ESPRESSO suite
     for quantum simulation of materials; please cite
         "P. Giannozzi et al., J. Phys.:Condens. Matter 21 395502 (2009);
         "P. Giannozzi et al., J. Phys.:Condens. Matter 29 465901 (2017);
         "P. Giannozzi et al., J. Chem. Phys. 152 154105 (2020);
          URL http://www.quantum-espresso.org", 
     in publications or presentations arising from this work. More details at
     http://www.quantum-espresso.org/quote

     Parallel version (MPI), running on     1 processors

     MPI processes distributed on     1 nodes
     27331 MiB available memory on the printing compute node when the environment starts
 
     Waiting for input...
     Reading input from standard input
Warning: card &CELL ignored
Warning: card / ignored

     Current dimensions of program PWSCF are:
     Max number of different atomic species (ntypx) = 10
     Max number of k-points (npk) =  40000
     Max angular momentum in pseudopotentials (lmaxx) =  4
     file Cl.SCAN.UPF2: wavefunction(s)  0D renormalized

     WARNING: the MGGA functional with ID    5 has been 
     read together with other dft terms, but it should 
     stand alone in order to work properly. The other 
     terms will be ignored.

     WARNING: the MGGA functional with ID    5 has been 
     read together with other dft terms, but it should 
     stand alone in order to work properly. The other 
     terms will be ignored.

     Subspace diagonalization in iterative solution of the eigenvalue problem:
     a serial algorithm will be used

 
     G-vector sticks info
     --------------------
     sticks:   dense  smooth     PW     G-vecs:    dense   smooth      PW
     Sum         847     847    253                15905    15905    2685
 
     Using Slab Decomposition
 


     bravais-lattice index     =            2
     lattice parameter (alat)  =      10.9825  a.u.
     unit-cell volume          =     331.1654 (a.u.)^3
     number of atoms/cell      =            2
     number of atomic types    =            2
     number of electrons       =         8.00
     number of Kohn-Sham states=            4
     kinetic-energy cutoff     =      50.0000  Ry
     charge density cutoff     =     200.0000  Ry
     scf convergence threshold =      2.0E-05
     mixing beta               =       0.2000
     number of iterations used =            8  local-TF  mixing
     Exchange-correlation= SLA  PW   SCAN SCAN
                           (   0   0   0   0   0 263 267)

     celldm(1)=  10.982511  celldm(2)=   0.000000  celldm(3)=   0.000000
     celldm(4)=   0.000000  celldm(5)=   0.000000  celldm(6)=   0.000000

     crystal axes: (cart. coord. in units of alat)
               a(1) = (  -0.500000   0.000000   0.500000 )  
               a(2) = (   0.000000   0.500000   0.500000 )  
               a(3) = (  -0.500000   0.500000   0.000000 )  

     reciprocal axes: (cart. coord. in units 2 pi/alat)
               b(1) = ( -1.000000 -1.000000  1.000000 )  
               b(2) = (  1.000000  1.000000  1.000000 )  
               b(3) = ( -1.000000  1.000000 -1.000000 )  


     PseudoPot. # 1 for Li read from file:
     ~/Documents/TA/PWDFT.jl/pseudopotentials/scan_upf/Li.SCAN.UPF2
     MD5 check sum: Not computed, couldn't open file
     Pseudo is Norm-conserving, Zval =  1.0
     Generated by new atomic code, or converted to UPF format
     Using radial grid of 1321 points,  1 beta functions with: 
                l(1) =   0

     PseudoPot. # 2 for Cl read from file:
     ~/Documents/TA/PWDFT.jl/pseudopotentials/scan_upf/Cl.SCAN.UPF2
     MD5 check sum: Not computed, couldn't open file
     Pseudo is Norm-conserving, Zval =  7.0
     Generated by new atomic code, or converted to UPF format
     Using radial grid of 1493 points,  2 beta functions with: 
                l(1) =   0
                l(2) =   1

     atomic species   valence    mass     pseudopotential
        Li             1.00     6.94100     Li( 1.00)
        Cl             7.00    35.45300     Cl( 1.00)

     48 Sym. Ops., with inversion, found



   Cartesian axes

     site n.     atom                  positions (alat units)
         1           Li  tau(   1) = (   0.0000000   0.0000000   0.0000000  )
         2           Cl  tau(   2) = (   0.5000000   0.5000000   0.5000000  )

     number of k points=    47
                       cart. coord. in units 2pi/alat
        k(    1) = (   0.0000000   0.0000000   0.0000000), wk =   0.0020000
        k(    2) = (  -0.1000000   0.1000000  -0.1000000), wk =   0.0160000
        k(    3) = (  -0.2000000   0.2000000  -0.2000000), wk =   0.0160000
        k(    4) = (  -0.3000000   0.3000000  -0.3000000), wk =   0.0160000
        k(    5) = (  -0.4000000   0.4000000  -0.4000000), wk =   0.0160000
        k(    6) = (   0.5000000  -0.5000000   0.5000000), wk =   0.0080000
        k(    7) = (   0.0000000   0.2000000   0.0000000), wk =   0.0120000
        k(    8) = (  -0.1000000   0.3000000  -0.1000000), wk =   0.0480000
        k(    9) = (  -0.2000000   0.4000000  -0.2000000), wk =   0.0480000
        k(   10) = (  -0.3000000   0.5000000  -0.3000000), wk =   0.0480000
        k(   11) = (   0.6000000  -0.4000000   0.6000000), wk =   0.0480000
        k(   12) = (   0.5000000  -0.3000000   0.5000000), wk =   0.0480000
        k(   13) = (   0.4000000  -0.2000000   0.4000000), wk =   0.0480000
        k(   14) = (   0.3000000  -0.1000000   0.3000000), wk =   0.0480000
        k(   15) = (   0.2000000   0.0000000   0.2000000), wk =   0.0240000
        k(   16) = (   0.0000000   0.4000000   0.0000000), wk =   0.0120000
        k(   17) = (  -0.1000000   0.5000000  -0.1000000), wk =   0.0480000
        k(   18) = (  -0.2000000   0.6000000  -0.2000000), wk =   0.0480000
        k(   19) = (   0.7000000  -0.3000000   0.7000000), wk =   0.0480000
        k(   20) = (   0.6000000  -0.2000000   0.6000000), wk =   0.0480000
        k(   21) = (   0.5000000  -0.1000000   0.5000000), wk =   0.0480000
        k(   22) = (   0.4000000   0.0000000   0.4000000), wk =   0.0240000
        k(   23) = (   0.0000000   0.6000000   0.0000000), wk =   0.0120000
        k(   24) = (  -0.1000000   0.7000000  -0.1000000), wk =   0.0480000
        k(   25) = (   0.8000000  -0.2000000   0.8000000), wk =   0.0480000
        k(   26) = (   0.7000000  -0.1000000   0.7000000), wk =   0.0480000
        k(   27) = (   0.6000000  -0.0000000   0.6000000), wk =   0.0240000
        k(   28) = (   0.0000000   0.8000000   0.0000000), wk =   0.0120000
        k(   29) = (   0.9000000  -0.1000000   0.9000000), wk =   0.0480000
        k(   30) = (   0.8000000   0.0000000   0.8000000), wk =   0.0240000
        k(   31) = (   0.0000000  -1.0000000   0.0000000), wk =   0.0060000
        k(   32) = (  -0.2000000   0.4000000   0.0000000), wk =   0.0480000
        k(   33) = (  -0.3000000   0.5000000  -0.1000000), wk =   0.0960000
        k(   34) = (   0.6000000  -0.4000000   0.8000000), wk =   0.0960000
        k(   35) = (   0.5000000  -0.3000000   0.7000000), wk =   0.0480000
        k(   36) = (  -0.2000000   0.6000000   0.0000000), wk =   0.0480000
        k(   37) = (   0.7000000  -0.3000000   0.9000000), wk =   0.0960000
        k(   38) = (   0.6000000  -0.2000000   0.8000000), wk =   0.0960000
        k(   39) = (   0.5000000  -0.1000000   0.7000000), wk =   0.0960000
        k(   40) = (   0.4000000   0.0000000   0.6000000), wk =   0.0480000
        k(   41) = (   0.8000000  -0.2000000   1.0000000), wk =   0.0480000
        k(   42) = (   0.7000000  -0.1000000   0.9000000), wk =   0.0960000
        k(   43) = (   0.6000000   0.0000000   0.8000000), wk =   0.0480000
        k(   44) = (  -0.2000000  -1.0000000   0.0000000), wk =   0.0240000
        k(   45) = (   0.6000000  -0.2000000   1.0000000), wk =   0.0480000
        k(   46) = (   0.5000000  -0.1000000   0.9000000), wk =   0.0480000
        k(   47) = (  -0.4000000  -1.0000000   0.0000000), wk =   0.0240000

     Dense  grid:    15905 G-vectors     FFT dimensions: (  36,  36,  36)

     Estimated max dynamical RAM per process >      29.98 MB

     WARNING: libxc functional with ID  263 depends
      on external parameters: check the user_guide of
      QE if you need to modify them or to check their
      default values.

     Initial potential from superposition of free atoms

     starting charge       7.9953, renormalised to       8.0000
     Starting wfcs are   13 randomized atomic wfcs

     total cpu time spent up to now is        6.5 secs

     Self-consistent Calculation

     iteration #  1     ecut=    50.00 Ry     beta= 0.20
     Davidson diagonalization with overlap
     ethr =  1.00E-02,  avg # of iterations =  1.0

     total cpu time spent up to now is       11.3 secs

     total energy              =     -30.68614142 Ry
     estimated scf accuracy    <       0.36561098 Ry

     iteration #  2     ecut=    50.00 Ry     beta= 0.20
     Davidson diagonalization with overlap
     ethr =  4.57E-03,  avg # of iterations =  1.0

     total cpu time spent up to now is       15.9 secs

     total energy              =     -30.71912338 Ry
     estimated scf accuracy    <       0.24027500 Ry

     iteration #  3     ecut=    50.00 Ry     beta= 0.20
     Davidson diagonalization with overlap
     ethr =  3.00E-03,  avg # of iterations =  1.0

     total cpu time spent up to now is       20.0 secs

     total energy              =     -30.72217409 Ry
     estimated scf accuracy    <       0.00432499 Ry

     iteration #  4     ecut=    50.00 Ry     beta= 0.20
     Davidson diagonalization with overlap
     ethr =  5.41E-05,  avg # of iterations =  1.9

     total cpu time spent up to now is       23.5 secs

     total energy              =     -30.72255801 Ry
     estimated scf accuracy    <       0.00194358 Ry

     iteration #  5     ecut=    50.00 Ry     beta= 0.20
     Davidson diagonalization with overlap
     ethr =  2.43E-05,  avg # of iterations =  2.0

     total cpu time spent up to now is       26.5 secs

     total energy              =     -30.72305486 Ry
     estimated scf accuracy    <       0.00033537 Ry

     iteration #  6     ecut=    50.00 Ry     beta= 0.20
     Davidson diagonalization with overlap
     ethr =  4.19E-06,  avg # of iterations =  2.0

     total cpu time spent up to now is       29.8 secs

     total energy              =     -30.72310770 Ry
     estimated scf accuracy    <       0.00013082 Ry

     iteration #  7     ecut=    50.00 Ry     beta= 0.20
     Davidson diagonalization with overlap
     ethr =  1.64E-06,  avg # of iterations =  1.0

     total cpu time spent up to now is       32.1 secs

     total energy              =     -30.72307094 Ry
     estimated scf accuracy    <       0.00007622 Ry

     iteration #  8     ecut=    50.00 Ry     beta= 0.20
     Davidson diagonalization with overlap
     ethr =  9.53E-07,  avg # of iterations =  2.0

     total cpu time spent up to now is       35.1 secs

     total energy              =     -30.72309770 Ry
     estimated scf accuracy    <       0.00003890 Ry

     iteration #  9     ecut=    50.00 Ry     beta= 0.20
     Davidson diagonalization with overlap
     ethr =  4.86E-07,  avg # of iterations =  1.0

     total cpu time spent up to now is       36.3 secs

     End of self-consistent calculation

          k = 0.0000 0.0000 0.0000 (  1989 PWs)   bands (ev):

   -14.3426  -1.4650  -1.4650  -1.4650

          k =-0.1000 0.1000-0.1000 (  1977 PWs)   bands (ev):

   -14.3211  -1.6621  -1.4791  -1.4791

          k =-0.2000 0.2000-0.2000 (  1976 PWs)   bands (ev):

   -14.2644  -2.1184  -1.5153  -1.5153

          k =-0.3000 0.3000-0.3000 (  1979 PWs)   bands (ev):

   -14.1924  -2.6033  -1.5584  -1.5584

          k =-0.4000 0.4000-0.4000 (  1970 PWs)   bands (ev):

   -14.1323  -2.9534  -1.5922  -1.5922

          k = 0.5000-0.5000 0.5000 (  2006 PWs)   bands (ev):

   -14.1094  -3.0797  -1.6048  -1.6048

          k = 0.0000 0.2000 0.0000 (  1973 PWs)   bands (ev):

   -14.3139  -1.6496  -1.5245  -1.5245

          k =-0.1000 0.3000-0.1000 (  1980 PWs)   bands (ev):

   -14.2689  -1.9953  -1.5854  -1.5506

          k =-0.2000 0.4000-0.2000 (  1970 PWs)   bands (ev):

   -14.2015  -2.4548  -1.6378  -1.5995

          k =-0.3000 0.5000-0.3000 (  1973 PWs)   bands (ev):

   -14.1370  -2.8333  -1.6702  -1.6624

          k = 0.6000-0.4000 0.6000 (  1975 PWs)   bands (ev):

   -14.1012  -3.0240  -1.7346  -1.6508

          k = 0.5000-0.3000 0.5000 (  1979 PWs)   bands (ev):

   -14.1091  -2.9813  -1.7674  -1.6077

          k = 0.4000-0.2000 0.4000 (  1978 PWs)   bands (ev):

   -14.1573  -2.7173  -1.7544  -1.5484

          k = 0.3000-0.1000 0.3000 (  1972 PWs)   bands (ev):

   -14.2257  -2.3047  -1.6938  -1.4948

          k = 0.2000 0.0000 0.2000 (  1977 PWs)   bands (ev):

   -14.2879  -1.8902  -1.5897  -1.4679

          k = 0.0000 0.4000 0.0000 (  1992 PWs)   bands (ev):

   -14.2378  -2.0826  -1.6759  -1.6759

          k =-0.1000 0.5000-0.1000 (  1987 PWs)   bands (ev):

   -14.1817  -2.4016  -1.7571  -1.7518

          k =-0.2000 0.6000-0.2000 (  1984 PWs)   bands (ev):

   -14.1213  -2.7149  -1.8770  -1.7860

          k = 0.7000-0.3000 0.7000 (  1977 PWs)   bands (ev):

   -14.0803  -2.8947  -2.0163  -1.7671

          k = 0.6000-0.2000 0.6000 (  1987 PWs)   bands (ev):

   -14.0757  -2.8949  -2.1143  -1.7017

          k = 0.5000-0.1000 0.5000 (  1971 PWs)   bands (ev):

   -14.1089  -2.7373  -2.1102  -1.6124

          k = 0.4000 0.0000 0.4000 (  1973 PWs)   bands (ev):

   -14.1666  -2.5135  -1.9547  -1.5327

          k = 0.0000 0.6000 0.0000 (  1992 PWs)   bands (ev):

   -14.1395  -2.5553  -1.8552  -1.8552

          k =-0.1000 0.7000-0.1000 (  1983 PWs)   bands (ev):

   -14.0906  -2.7586  -1.9761  -1.9118

          k = 0.8000-0.2000 0.8000 (  1989 PWs)   bands (ev):

   -14.0541  -2.8474  -2.1827  -1.9032

          k = 0.7000-0.1000 0.7000 (  1978 PWs)   bands (ev):

   -14.0444  -2.7676  -2.4147  -1.8320

          k = 0.6000-0.0000 0.6000 (  1979 PWs)   bands (ev):

   -14.0656  -2.6639  -2.4546  -1.7218

          k = 0.0000 0.8000 0.0000 (  1996 PWs)   bands (ev):

   -14.0567  -2.9076  -1.9946  -1.9946

          k = 0.9000-0.1000 0.9000 (  1985 PWs)   bands (ev):

   -14.0324  -2.9681  -2.1091  -2.0077

          k = 0.8000 0.0000 0.8000 (  1968 PWs)   bands (ev):

   -14.0276  -2.8757  -2.3213  -1.9473

          k = 0.0000-1.0000 0.0000 (  1964 PWs)   bands (ev):

   -14.0238  -3.0373  -2.0465  -2.0465

          k =-0.2000 0.4000 0.0000 (  1974 PWs)   bands (ev):

   -14.2182  -2.2603  -1.7553  -1.5688

          k =-0.3000 0.5000-0.1000 (  1978 PWs)   bands (ev):

   -14.1542  -2.5924  -1.8935  -1.6178

          k = 0.6000-0.4000 0.8000 (  1977 PWs)   bands (ev):

   -14.1011  -2.8553  -1.9633  -1.6812

          k = 0.5000-0.3000 0.7000 (  1980 PWs)   bands (ev):

   -14.0805  -2.9533  -1.9824  -1.7108

          k =-0.2000 0.6000 0.0000 (  1978 PWs)   bands (ev):

   -14.1289  -2.6113  -1.9503  -1.7811

          k = 0.7000-0.3000 0.9000 (  1983 PWs)   bands (ev):

   -14.0801  -2.7720  -2.1212  -1.8354

          k = 0.6000-0.2000 0.8000 (  1974 PWs)   bands (ev):

   -14.0544  -2.8189  -2.2681  -1.8416

          k = 0.5000-0.1000 0.7000 (  1983 PWs)   bands (ev):

   -14.0626  -2.7590  -2.3268  -1.7794

          k = 0.4000 0.0000 0.6000 (  1985 PWs)   bands (ev):

   -14.1011  -2.6811  -2.1860  -1.6865

          k = 0.8000-0.2000 1.0000 (  1982 PWs)   bands (ev):

   -14.0538  -2.8631  -2.1010  -1.9722

          k = 0.7000-0.1000 0.9000 (  1976 PWs)   bands (ev):

   -14.0328  -2.8340  -2.3045  -1.9782

          k = 0.6000 0.0000 0.8000 (  1964 PWs)   bands (ev):

   -14.0361  -2.6567  -2.5432  -1.8991

          k =-0.2000-1.0000 0.0000 (  1980 PWs)   bands (ev):

   -14.0243  -2.9555  -2.1571  -2.0464

          k = 0.6000-0.2000 1.0000 (  1978 PWs)   bands (ev):

   -14.0462  -2.7354  -2.3624  -1.9242

          k = 0.5000-0.1000 0.9000 (  1968 PWs)   bands (ev):

   -14.0331  -2.6620  -2.5023  -1.9719

          k =-0.4000-1.0000 0.0000 (  1962 PWs)   bands (ev):

   -14.0247  -2.7307  -2.4276  -2.0463

     highest occupied level (ev):    -1.4650

!    total energy              =     -30.72309726 Ry
     estimated scf accuracy    <       0.00000589 Ry

     The total energy is the sum of the following terms:
     one-electron contribution =      -9.83456648 Ry
     hartree contribution      =       7.63622444 Ry
     xc contribution           =      -6.26214435 Ry
     ewald contribution        =     -22.26261088 Ry

     convergence has been achieved in   9 iterations
     Writing meta-gga kinetic term

     Writing all to output data dir ./input_pw/LiCl/11/pwscf.save/
     Writing meta-gga kinetic term
 
     init_run     :      3.02s CPU      6.40s WALL (       1 calls)
     electrons    :     22.43s CPU     29.76s WALL (       1 calls)

     Called by init_run:
     wfcinit      :      2.87s CPU      5.93s WALL (       1 calls)
     potinit      :      0.04s CPU      0.16s WALL (       1 calls)
     hinit0       :      0.09s CPU      0.26s WALL (       1 calls)

     Called by electrons:
     c_bands      :     17.96s CPU     24.02s WALL (       9 calls)
     sum_band     :      3.94s CPU      5.05s WALL (       9 calls)
     v_of_rho     :      0.28s CPU      0.49s WALL (      10 calls)
     mix_rho      :      0.27s CPU      0.35s WALL (       9 calls)

     Called by c_bands:
     init_us_2    :      0.21s CPU      0.30s WALL (     893 calls)
     init_us_2:cp :      0.20s CPU      0.30s WALL (     893 calls)
     cegterg      :     17.77s CPU     23.74s WALL (     423 calls)

     Called by *egterg:
     cdiaghg      :      0.06s CPU      0.09s WALL (    1028 calls)
     h_psi        :     20.25s CPU     29.09s WALL (    1075 calls)
     g_psi        :      0.01s CPU      0.01s WALL (     605 calls)

     Called by h_psi:
     h_psi:calbec :      0.06s CPU      0.11s WALL (    1075 calls)
     vloc_psi     :      5.01s CPU      7.23s WALL (    1075 calls)
     add_vuspsi   :      0.05s CPU      0.09s WALL (    1075 calls)
     h_psi_meta   :     15.10s CPU     21.61s WALL (    1075 calls)

     General routines
     calbec       :      0.06s CPU      0.11s WALL (    1075 calls)
     fft          :      0.06s CPU      0.14s WALL (     117 calls)
     ffts         :      0.11s CPU      0.13s WALL (     218 calls)
     fftw         :     21.00s CPU     29.81s WALL (   43288 calls)
     interpolate  :      0.00s CPU      0.00s WALL (      10 calls)
 
     Parallel routines
 
     PWSCF        :     25.49s CPU     36.27s WALL

 
   This run was terminated on:  14:24:54   7Jul2023            

=------------------------------------------------------------------------------=
   JOB DONE.
=------------------------------------------------------------------------------=
