
     Program PWSCF v.7.0 starts on 14Mar2023 at 14:28:43 

     This program is part of the open-source Quantum ESPRESSO suite
     for quantum simulation of materials; please cite
         "P. Giannozzi et al., J. Phys.:Condens. Matter 21 395502 (2009);
         "P. Giannozzi et al., J. Phys.:Condens. Matter 29 465901 (2017);
         "P. Giannozzi et al., J. Chem. Phys. 152 154105 (2020);
          URL http://www.quantum-espresso.org", 
     in publications or presentations arising from this work. More details at
     http://www.quantum-espresso.org/quote

     Parallel version (MPI), running on     1 processors

     MPI processes distributed on     1 nodes
     26649 MiB available memory on the printing compute node when the environment starts
 
     Waiting for input...
     Reading input from standard input
Warning: card &CELL ignored
Warning: card / ignored

     Current dimensions of program PWSCF are:
     Max number of different atomic species (ntypx) = 10
     Max number of k-points (npk) =  40000
     Max angular momentum in pseudopotentials (lmaxx) =  4
     file Cl.SCAN.UPF2: wavefunction(s)  0D renormalized

     WARNING: the MGGA functional with ID    5 has been 
     read together with other dft terms, but it should 
     stand alone in order to work properly. The other 
     terms will be ignored.

     WARNING: the MGGA functional with ID    5 has been 
     read together with other dft terms, but it should 
     stand alone in order to work properly. The other 
     terms will be ignored.

     Subspace diagonalization in iterative solution of the eigenvalue problem:
     a serial algorithm will be used

 
     G-vector sticks info
     --------------------
     sticks:   dense  smooth     PW     G-vecs:    dense   smooth      PW
     Sum         685     685    211                11935    11935    2085
 
     Using Slab Decomposition
 


     bravais-lattice index     =            2
     lattice parameter (alat)  =      10.0010  a.u.
     unit-cell volume          =     250.0750 (a.u.)^3
     number of atoms/cell      =            2
     number of atomic types    =            2
     number of electrons       =         8.00
     number of Kohn-Sham states=            4
     kinetic-energy cutoff     =      50.0000  Ry
     charge density cutoff     =     200.0000  Ry
     scf convergence threshold =      1.0E-06
     mixing beta               =       0.0100
     number of iterations used =            8  local-TF  mixing
     Exchange-correlation= SLA  PW   SCAN SCAN
                           (   0   0   0   0   0 263 267)

     celldm(1)=  10.001000  celldm(2)=   0.000000  celldm(3)=   0.000000
     celldm(4)=   0.000000  celldm(5)=   0.000000  celldm(6)=   0.000000

     crystal axes: (cart. coord. in units of alat)
               a(1) = (  -0.500000   0.000000   0.500000 )  
               a(2) = (   0.000000   0.500000   0.500000 )  
               a(3) = (  -0.500000   0.500000   0.000000 )  

     reciprocal axes: (cart. coord. in units 2 pi/alat)
               b(1) = ( -1.000000 -1.000000  1.000000 )  
               b(2) = (  1.000000  1.000000  1.000000 )  
               b(3) = ( -1.000000  1.000000 -1.000000 )  


     PseudoPot. # 1 for Li read from file:
     ~/Documents/TA/PWDFT.jl/pseudopotentials/scan_upf/Li.SCAN.UPF2
     MD5 check sum: Not computed, couldn't open file
     Pseudo is Norm-conserving, Zval =  1.0
     Generated by new atomic code, or converted to UPF format
     Using radial grid of 1321 points,  1 beta functions with: 
                l(1) =   0

     PseudoPot. # 2 for Cl read from file:
     ~/Documents/TA/PWDFT.jl/pseudopotentials/scan_upf/Cl.SCAN.UPF2
     MD5 check sum: Not computed, couldn't open file
     Pseudo is Norm-conserving, Zval =  7.0
     Generated by new atomic code, or converted to UPF format
     Using radial grid of 1493 points,  2 beta functions with: 
                l(1) =   0
                l(2) =   1

     atomic species   valence    mass     pseudopotential
        Li             1.00     6.94100     Li( 1.00)
        Cl             7.00    35.45300     Cl( 1.00)

     48 Sym. Ops., with inversion, found



   Cartesian axes

     site n.     atom                  positions (alat units)
         1           Li  tau(   1) = (   0.0000000   0.0000000   0.0000000  )
         2           Cl  tau(   2) = (   0.5000000   0.5000000   0.5000000  )

     number of k points=    47
                       cart. coord. in units 2pi/alat
        k(    1) = (   0.0000000   0.0000000   0.0000000), wk =   0.0020000
        k(    2) = (  -0.1000000   0.1000000  -0.1000000), wk =   0.0160000
        k(    3) = (  -0.2000000   0.2000000  -0.2000000), wk =   0.0160000
        k(    4) = (  -0.3000000   0.3000000  -0.3000000), wk =   0.0160000
        k(    5) = (  -0.4000000   0.4000000  -0.4000000), wk =   0.0160000
        k(    6) = (   0.5000000  -0.5000000   0.5000000), wk =   0.0080000
        k(    7) = (   0.0000000   0.2000000   0.0000000), wk =   0.0120000
        k(    8) = (  -0.1000000   0.3000000  -0.1000000), wk =   0.0480000
        k(    9) = (  -0.2000000   0.4000000  -0.2000000), wk =   0.0480000
        k(   10) = (  -0.3000000   0.5000000  -0.3000000), wk =   0.0480000
        k(   11) = (   0.6000000  -0.4000000   0.6000000), wk =   0.0480000
        k(   12) = (   0.5000000  -0.3000000   0.5000000), wk =   0.0480000
        k(   13) = (   0.4000000  -0.2000000   0.4000000), wk =   0.0480000
        k(   14) = (   0.3000000  -0.1000000   0.3000000), wk =   0.0480000
        k(   15) = (   0.2000000   0.0000000   0.2000000), wk =   0.0240000
        k(   16) = (   0.0000000   0.4000000   0.0000000), wk =   0.0120000
        k(   17) = (  -0.1000000   0.5000000  -0.1000000), wk =   0.0480000
        k(   18) = (  -0.2000000   0.6000000  -0.2000000), wk =   0.0480000
        k(   19) = (   0.7000000  -0.3000000   0.7000000), wk =   0.0480000
        k(   20) = (   0.6000000  -0.2000000   0.6000000), wk =   0.0480000
        k(   21) = (   0.5000000  -0.1000000   0.5000000), wk =   0.0480000
        k(   22) = (   0.4000000   0.0000000   0.4000000), wk =   0.0240000
        k(   23) = (   0.0000000   0.6000000   0.0000000), wk =   0.0120000
        k(   24) = (  -0.1000000   0.7000000  -0.1000000), wk =   0.0480000
        k(   25) = (   0.8000000  -0.2000000   0.8000000), wk =   0.0480000
        k(   26) = (   0.7000000  -0.1000000   0.7000000), wk =   0.0480000
        k(   27) = (   0.6000000  -0.0000000   0.6000000), wk =   0.0240000
        k(   28) = (   0.0000000   0.8000000   0.0000000), wk =   0.0120000
        k(   29) = (   0.9000000  -0.1000000   0.9000000), wk =   0.0480000
        k(   30) = (   0.8000000   0.0000000   0.8000000), wk =   0.0240000
        k(   31) = (   0.0000000  -1.0000000   0.0000000), wk =   0.0060000
        k(   32) = (  -0.2000000   0.4000000   0.0000000), wk =   0.0480000
        k(   33) = (  -0.3000000   0.5000000  -0.1000000), wk =   0.0960000
        k(   34) = (   0.6000000  -0.4000000   0.8000000), wk =   0.0960000
        k(   35) = (   0.5000000  -0.3000000   0.7000000), wk =   0.0480000
        k(   36) = (  -0.2000000   0.6000000   0.0000000), wk =   0.0480000
        k(   37) = (   0.7000000  -0.3000000   0.9000000), wk =   0.0960000
        k(   38) = (   0.6000000  -0.2000000   0.8000000), wk =   0.0960000
        k(   39) = (   0.5000000  -0.1000000   0.7000000), wk =   0.0960000
        k(   40) = (   0.4000000   0.0000000   0.6000000), wk =   0.0480000
        k(   41) = (   0.8000000  -0.2000000   1.0000000), wk =   0.0480000
        k(   42) = (   0.7000000  -0.1000000   0.9000000), wk =   0.0960000
        k(   43) = (   0.6000000   0.0000000   0.8000000), wk =   0.0480000
        k(   44) = (  -0.2000000  -1.0000000   0.0000000), wk =   0.0240000
        k(   45) = (   0.6000000  -0.2000000   1.0000000), wk =   0.0480000
        k(   46) = (   0.5000000  -0.1000000   0.9000000), wk =   0.0480000
        k(   47) = (  -0.4000000  -1.0000000   0.0000000), wk =   0.0240000

     Dense  grid:    11935 G-vectors     FFT dimensions: (  32,  32,  32)

     Estimated max dynamical RAM per process >      22.32 MB

     WARNING: libxc functional with ID  263 depends
      on external parameters: check the user_guide of
      QE if you need to modify them or to check their
      default values.

     Initial potential from superposition of free atoms

     starting charge       7.9953, renormalised to       8.0000
     Starting wfcs are   13 randomized atomic wfcs

     total cpu time spent up to now is        3.7 secs

     Self-consistent Calculation

     iteration #  1     ecut=    50.00 Ry     beta= 0.01
     Davidson diagonalization with overlap
     ethr =  1.00E-02,  avg # of iterations =  1.0

     total cpu time spent up to now is        6.1 secs

     total energy              =     -30.65925668 Ry
     estimated scf accuracy    <       0.35508863 Ry

     iteration #  2     ecut=    50.00 Ry     beta= 0.01
     Davidson diagonalization with overlap
     ethr =  4.44E-03,  avg # of iterations =  1.0

     total cpu time spent up to now is        8.7 secs

     total energy              =     -30.68662803 Ry
     estimated scf accuracy    <       0.33844541 Ry

     iteration #  3     ecut=    50.00 Ry     beta= 0.01
     Davidson diagonalization with overlap
     ethr =  4.23E-03,  avg # of iterations =  1.0

     total cpu time spent up to now is       11.2 secs

     total energy              =     -30.74239150 Ry
     estimated scf accuracy    <       0.25154495 Ry

     iteration #  4     ecut=    50.00 Ry     beta= 0.01
     Davidson diagonalization with overlap
     ethr =  3.14E-03,  avg # of iterations =  1.0

     total cpu time spent up to now is       13.8 secs

     total energy              =     -30.74477681 Ry
     estimated scf accuracy    <       0.00465565 Ry

     iteration #  5     ecut=    50.00 Ry     beta= 0.01
     Davidson diagonalization with overlap
     ethr =  5.82E-05,  avg # of iterations =  1.0

     total cpu time spent up to now is       16.4 secs

     total energy              =     -30.74468007 Ry
     estimated scf accuracy    <       0.00457546 Ry

     iteration #  6     ecut=    50.00 Ry     beta= 0.01
     Davidson diagonalization with overlap
     ethr =  5.72E-05,  avg # of iterations =  1.0

     total cpu time spent up to now is       19.1 secs

     total energy              =     -30.74263198 Ry
     estimated scf accuracy    <       0.00406186 Ry

     iteration #  7     ecut=    50.00 Ry     beta= 0.01
     Davidson diagonalization with overlap
     ethr =  5.08E-05,  avg # of iterations =  2.0

     total cpu time spent up to now is       22.5 secs

     total energy              =     -30.74458124 Ry
     estimated scf accuracy    <       0.00354027 Ry

     iteration #  8     ecut=    50.00 Ry     beta= 0.01
     Davidson diagonalization with overlap
     ethr =  4.43E-05,  avg # of iterations =  1.0

     total cpu time spent up to now is       25.0 secs

     total energy              =     -30.74424402 Ry
     estimated scf accuracy    <       0.00349298 Ry

     iteration #  9     ecut=    50.00 Ry     beta= 0.01
     Davidson diagonalization with overlap
     ethr =  4.37E-05,  avg # of iterations =  1.0

     total cpu time spent up to now is       27.4 secs

     total energy              =     -30.74370458 Ry
     estimated scf accuracy    <       0.00204118 Ry

     iteration # 10     ecut=    50.00 Ry     beta= 0.01
     Davidson diagonalization with overlap
     ethr =  2.55E-05,  avg # of iterations =  2.0

     total cpu time spent up to now is       30.1 secs

     total energy              =     -30.74396052 Ry
     estimated scf accuracy    <       0.00009437 Ry

     iteration # 11     ecut=    50.00 Ry     beta= 0.01
     Davidson diagonalization with overlap
     ethr =  1.18E-06,  avg # of iterations =  2.0

     total cpu time spent up to now is       33.0 secs

     total energy              =     -30.74398278 Ry
     estimated scf accuracy    <       0.00001569 Ry

     iteration # 12     ecut=    50.00 Ry     beta= 0.01
     Davidson diagonalization with overlap
     ethr =  1.96E-07,  avg # of iterations =  1.0

     total cpu time spent up to now is       35.1 secs

     total energy              =     -30.74399072 Ry
     estimated scf accuracy    <       0.00000726 Ry

     iteration # 13     ecut=    50.00 Ry     beta= 0.01
     Davidson diagonalization with overlap
     ethr =  9.08E-08,  avg # of iterations =  2.0

     total cpu time spent up to now is       37.5 secs

     total energy              =     -30.74397938 Ry
     estimated scf accuracy    <       0.00004275 Ry

     iteration # 14     ecut=    50.00 Ry     beta= 0.01
     Davidson diagonalization with overlap
     ethr =  9.08E-08,  avg # of iterations =  2.0

     total cpu time spent up to now is       39.8 secs

     End of self-consistent calculation

          k = 0.0000 0.0000 0.0000 (  1459 PWs)   bands (ev):

   -13.2849   0.2736   0.2736   0.2736

          k =-0.1000 0.1000-0.1000 (  1459 PWs)   bands (ev):

   -13.2415  -0.0306   0.2502   0.2502

          k =-0.2000 0.2000-0.2000 (  1480 PWs)   bands (ev):

   -13.1245  -0.7313   0.1909   0.1909

          k =-0.3000 0.3000-0.3000 (  1489 PWs)   bands (ev):

   -12.9721  -1.4779   0.1212   0.1212

          k =-0.4000 0.4000-0.4000 (  1486 PWs)   bands (ev):

   -12.8416  -2.0227   0.0674   0.0674

          k = 0.5000-0.5000 0.5000 (  1476 PWs)   bands (ev):

   -12.7898  -2.2210   0.0475   0.0475

          k = 0.0000 0.2000 0.0000 (  1467 PWs)   bands (ev):

   -13.2269   0.0007   0.1719   0.1719

          k =-0.1000 0.3000-0.1000 (  1479 PWs)   bands (ev):

   -13.1338  -0.5355   0.0697   0.1313

          k =-0.2000 0.4000-0.2000 (  1489 PWs)   bands (ev):

   -12.9918  -1.2482  -0.0156   0.0493

          k =-0.3000 0.5000-0.3000 (  1478 PWs)   bands (ev):

   -12.8518  -1.8409  -0.0689  -0.0534

          k = 0.6000-0.4000 0.6000 (  1494 PWs)   bands (ev):

   -12.7724  -2.1429  -0.1757  -0.0316

          k = 0.5000-0.3000 0.5000 (  1496 PWs)   bands (ev):

   -12.7900  -2.0750  -0.2308   0.0413

          k = 0.4000-0.2000 0.4000 (  1484 PWs)   bands (ev):

   -12.8961  -1.6575  -0.2118   0.1399

          k = 0.3000-0.1000 0.3000 (  1494 PWs)   bands (ev):

   -13.0435  -1.0124  -0.1143   0.2285

          k = 0.2000 0.0000 0.2000 (  1472 PWs)   bands (ev):

   -13.1733  -0.3739   0.0596   0.2718

          k = 0.0000 0.4000 0.0000 (  1479 PWs)   bands (ev):

   -13.0682  -0.6611  -0.0824  -0.0824

          k =-0.1000 0.5000-0.1000 (  1492 PWs)   bands (ev):

   -12.9486  -1.1666  -0.2173  -0.2067

          k =-0.2000 0.6000-0.2000 (  1484 PWs)   bands (ev):

   -12.8166  -1.6691  -0.4176  -0.2607

          k = 0.7000-0.3000 0.7000 (  1493 PWs)   bands (ev):

   -12.7253  -1.9640  -0.6441  -0.2277

          k = 0.6000-0.2000 0.6000 (  1491 PWs)   bands (ev):

   -12.7147  -1.9661  -0.8013  -0.1183

          k = 0.5000-0.1000 0.5000 (  1495 PWs)   bands (ev):

   -12.7898  -1.7008  -0.8013   0.0312

          k = 0.4000 0.0000 0.4000 (  1496 PWs)   bands (ev):

   -12.9167  -1.3315  -0.5546   0.1656

          k = 0.0000 0.6000 0.0000 (  1491 PWs)   bands (ev):

   -12.8563  -1.4220  -0.3758  -0.3758

          k =-0.1000 0.7000-0.1000 (  1492 PWs)   bands (ev):

   -12.7477  -1.7606  -0.5740  -0.4662

          k = 0.8000-0.2000 0.8000 (  1494 PWs)   bands (ev):

   -12.6650  -1.9224  -0.9054  -0.4511

          k = 0.7000-0.1000 0.7000 (  1502 PWs)   bands (ev):

   -12.6436  -1.8134  -1.2638  -0.3348

          k = 0.6000-0.0000 0.6000 (  1500 PWs)   bands (ev):

   -12.6924  -1.6049  -1.3571  -0.1527

          k = 0.0000 0.8000 0.0000 (  1496 PWs)   bands (ev):

   -12.6699  -2.0163  -0.5985  -0.5985

          k = 0.9000-0.1000 0.9000 (  1495 PWs)   bands (ev):

   -12.6144  -2.1297  -0.7818  -0.6190

          k = 0.8000 0.0000 0.8000 (  1496 PWs)   bands (ev):

   -12.6044  -2.0008  -1.1118  -0.5221

          k = 0.0000-1.0000 0.0000 (  1524 PWs)   bands (ev):

   -12.5950  -2.2412  -0.6805  -0.6805

          k =-0.2000 0.4000 0.0000 (  1486 PWs)   bands (ev):

   -13.0273  -0.9394  -0.2195   0.1017

          k =-0.3000 0.5000-0.1000 (  1490 PWs)   bands (ev):

   -12.8893  -1.4642  -0.4472   0.0201

          k = 0.6000-0.4000 0.8000 (  1490 PWs)   bands (ev):

   -12.7720  -1.8898  -0.5587  -0.0843

          k = 0.5000-0.3000 0.7000 (  1496 PWs)   bands (ev):

   -12.7259  -2.0503  -0.5890  -0.1324

          k =-0.2000 0.6000 0.0000 (  1491 PWs)   bands (ev):

   -12.8334  -1.5067  -0.5387  -0.2530

          k = 0.7000-0.3000 0.9000 (  1500 PWs)   bands (ev):

   -12.7246  -1.7796  -0.8182  -0.3389

          k = 0.6000-0.2000 0.8000 (  1504 PWs)   bands (ev):

   -12.6666  -1.8712  -1.0502  -0.3469

          k = 0.5000-0.1000 0.7000 (  1500 PWs)   bands (ev):

   -12.6853  -1.7679  -1.1459  -0.2461

          k = 0.4000 0.0000 0.6000 (  1497 PWs)   bands (ev):

   -12.7720  -1.6152  -0.9296  -0.0939

          k = 0.8000-0.2000 1.0000 (  1498 PWs)   bands (ev):

   -12.6641  -1.9488  -0.7793  -0.5578

          k = 0.7000-0.1000 0.9000 (  1495 PWs)   bands (ev):

   -12.6165  -1.9275  -1.1007  -0.5641

          k = 0.6000 0.0000 0.8000 (  1493 PWs)   bands (ev):

   -12.6248  -1.6686  -1.4535  -0.4389

          k =-0.2000-1.0000 0.0000 (  1510 PWs)   bands (ev):

   -12.5962  -2.1199  -0.8675  -0.6716

          k = 0.6000-0.2000 1.0000 (  1504 PWs)   bands (ev):

   -12.6478  -1.7521  -1.2075  -0.4752

          k = 0.5000-0.1000 0.9000 (  1502 PWs)   bands (ev):

   -12.6178  -1.6570  -1.4257  -0.5466

          k =-0.4000-1.0000 0.0000 (  1496 PWs)   bands (ev):

   -12.5983  -1.7808  -1.3085  -0.6572

     highest occupied level (ev):     0.2736

!    total energy              =     -30.74398302 Ry
     estimated scf accuracy    <       0.00000024 Ry

     The total energy is the sum of the following terms:
     one-electron contribution =      -6.22419543 Ry
     hartree contribution      =       6.25958836 Ry
     xc contribution           =      -6.33188425 Ry
     ewald contribution        =     -24.44749171 Ry

     convergence has been achieved in  14 iterations
     Writing meta-gga kinetic term

     Writing all to output data dir ./input_pw/LiCl/11/pwscf.save/
     Writing meta-gga kinetic term
 
     init_run     :      1.37s CPU      3.51s WALL (       1 calls)
     electrons    :     16.27s CPU     36.15s WALL (       1 calls)

     Called by init_run:
     wfcinit      :      1.24s CPU      3.10s WALL (       1 calls)
     potinit      :      0.02s CPU      0.16s WALL (       1 calls)
     hinit0       :      0.10s CPU      0.21s WALL (       1 calls)

     Called by electrons:
     c_bands      :     12.77s CPU     28.20s WALL (      14 calls)
     sum_band     :      2.98s CPU      6.77s WALL (      14 calls)
     v_of_rho     :      0.28s CPU      0.77s WALL (      15 calls)
     mix_rho      :      0.23s CPU      0.53s WALL (      14 calls)

     Called by c_bands:
     init_us_2    :      0.25s CPU      0.65s WALL (    1363 calls)
     init_us_2:cp :      0.25s CPU      0.64s WALL (    1363 calls)
     cegterg      :     12.54s CPU     27.73s WALL (     658 calls)

     Called by *egterg:
     cdiaghg      :      0.09s CPU      0.18s WALL (    1551 calls)
     h_psi        :     13.33s CPU     29.72s WALL (    1598 calls)
     g_psi        :      0.02s CPU      0.06s WALL (     893 calls)

     Called by h_psi:
     h_psi:calbec :      0.07s CPU      0.14s WALL (    1598 calls)
     vloc_psi     :      3.25s CPU      7.44s WALL (    1598 calls)
     add_vuspsi   :      0.07s CPU      0.17s WALL (    1598 calls)
     h_psi_meta   :      9.91s CPU     21.93s WALL (    1598 calls)

     General routines
     calbec       :      0.06s CPU      0.14s WALL (    1598 calls)
     fft          :      0.04s CPU      0.13s WALL (     177 calls)
     ffts         :      0.07s CPU      0.15s WALL (     339 calls)
     fftw         :     13.27s CPU     29.42s WALL (   64680 calls)
     interpolate  :      0.00s CPU      0.01s WALL (      15 calls)
 
     Parallel routines
 
     PWSCF        :     17.70s CPU     39.83s WALL

 
   This run was terminated on:  14:29:23  14Mar2023            

=------------------------------------------------------------------------------=
   JOB DONE.
=------------------------------------------------------------------------------=
