
     Program PWSCF v.7.0 starts on 29Mar2023 at 10:21:34 

     This program is part of the open-source Quantum ESPRESSO suite
     for quantum simulation of materials; please cite
         "P. Giannozzi et al., J. Phys.:Condens. Matter 21 395502 (2009);
         "P. Giannozzi et al., J. Phys.:Condens. Matter 29 465901 (2017);
         "P. Giannozzi et al., J. Chem. Phys. 152 154105 (2020);
          URL http://www.quantum-espresso.org", 
     in publications or presentations arising from this work. More details at
     http://www.quantum-espresso.org/quote

     Parallel version (MPI), running on     1 processors

     MPI processes distributed on     1 nodes
     24197 MiB available memory on the printing compute node when the environment starts
 
     Waiting for input...
     Reading input from standard input
Warning: card &CELL ignored
Warning: card / ignored

     Current dimensions of program PWSCF are:
     Max number of different atomic species (ntypx) = 10
     Max number of k-points (npk) =  40000
     Max angular momentum in pseudopotentials (lmaxx) =  4
     file Cl.SCAN.UPF2: wavefunction(s)  0D renormalized

     WARNING: the MGGA functional with ID    5 has been 
     read together with other dft terms, but it should 
     stand alone in order to work properly. The other 
     terms will be ignored.

     WARNING: the MGGA functional with ID    5 has been 
     read together with other dft terms, but it should 
     stand alone in order to work properly. The other 
     terms will be ignored.

     Subspace diagonalization in iterative solution of the eigenvalue problem:
     a serial algorithm will be used

 
     G-vector sticks info
     --------------------
     sticks:   dense  smooth     PW     G-vecs:    dense   smooth      PW
     Sum         847     847    253                15905    15905    2685
 
     Using Slab Decomposition
 


     bravais-lattice index     =            2
     lattice parameter (alat)  =      10.9825  a.u.
     unit-cell volume          =     331.1674 (a.u.)^3
     number of atoms/cell      =            2
     number of atomic types    =            2
     number of electrons       =         8.00
     number of Kohn-Sham states=            4
     kinetic-energy cutoff     =      50.0000  Ry
     charge density cutoff     =     200.0000  Ry
     scf convergence threshold =      1.0E-06
     mixing beta               =       0.0100
     number of iterations used =            8  local-TF  mixing
     Exchange-correlation= SLA  PW   SCAN SCAN
                           (   0   0   0   0   0 263 267)

     celldm(1)=  10.982533  celldm(2)=   0.000000  celldm(3)=   0.000000
     celldm(4)=   0.000000  celldm(5)=   0.000000  celldm(6)=   0.000000

     crystal axes: (cart. coord. in units of alat)
               a(1) = (  -0.500000   0.000000   0.500000 )  
               a(2) = (   0.000000   0.500000   0.500000 )  
               a(3) = (  -0.500000   0.500000   0.000000 )  

     reciprocal axes: (cart. coord. in units 2 pi/alat)
               b(1) = ( -1.000000 -1.000000  1.000000 )  
               b(2) = (  1.000000  1.000000  1.000000 )  
               b(3) = ( -1.000000  1.000000 -1.000000 )  


     PseudoPot. # 1 for Li read from file:
     ~/Documents/TA/PWDFT.jl/pseudopotentials/scan_upf/Li.SCAN.UPF2
     MD5 check sum: Not computed, couldn't open file
     Pseudo is Norm-conserving, Zval =  1.0
     Generated by new atomic code, or converted to UPF format
     Using radial grid of 1321 points,  1 beta functions with: 
                l(1) =   0

     PseudoPot. # 2 for Cl read from file:
     ~/Documents/TA/PWDFT.jl/pseudopotentials/scan_upf/Cl.SCAN.UPF2
     MD5 check sum: Not computed, couldn't open file
     Pseudo is Norm-conserving, Zval =  7.0
     Generated by new atomic code, or converted to UPF format
     Using radial grid of 1493 points,  2 beta functions with: 
                l(1) =   0
                l(2) =   1

     atomic species   valence    mass     pseudopotential
        Li             1.00     6.94100     Li( 1.00)
        Cl             7.00    35.45300     Cl( 1.00)

     48 Sym. Ops., with inversion, found



   Cartesian axes

     site n.     atom                  positions (alat units)
         1           Li  tau(   1) = (   0.0000000   0.0000000   0.0000000  )
         2           Cl  tau(   2) = (   0.5000000   0.5000000   0.5000000  )

     number of k points=    47
                       cart. coord. in units 2pi/alat
        k(    1) = (   0.0000000   0.0000000   0.0000000), wk =   0.0020000
        k(    2) = (  -0.1000000   0.1000000  -0.1000000), wk =   0.0160000
        k(    3) = (  -0.2000000   0.2000000  -0.2000000), wk =   0.0160000
        k(    4) = (  -0.3000000   0.3000000  -0.3000000), wk =   0.0160000
        k(    5) = (  -0.4000000   0.4000000  -0.4000000), wk =   0.0160000
        k(    6) = (   0.5000000  -0.5000000   0.5000000), wk =   0.0080000
        k(    7) = (   0.0000000   0.2000000   0.0000000), wk =   0.0120000
        k(    8) = (  -0.1000000   0.3000000  -0.1000000), wk =   0.0480000
        k(    9) = (  -0.2000000   0.4000000  -0.2000000), wk =   0.0480000
        k(   10) = (  -0.3000000   0.5000000  -0.3000000), wk =   0.0480000
        k(   11) = (   0.6000000  -0.4000000   0.6000000), wk =   0.0480000
        k(   12) = (   0.5000000  -0.3000000   0.5000000), wk =   0.0480000
        k(   13) = (   0.4000000  -0.2000000   0.4000000), wk =   0.0480000
        k(   14) = (   0.3000000  -0.1000000   0.3000000), wk =   0.0480000
        k(   15) = (   0.2000000   0.0000000   0.2000000), wk =   0.0240000
        k(   16) = (   0.0000000   0.4000000   0.0000000), wk =   0.0120000
        k(   17) = (  -0.1000000   0.5000000  -0.1000000), wk =   0.0480000
        k(   18) = (  -0.2000000   0.6000000  -0.2000000), wk =   0.0480000
        k(   19) = (   0.7000000  -0.3000000   0.7000000), wk =   0.0480000
        k(   20) = (   0.6000000  -0.2000000   0.6000000), wk =   0.0480000
        k(   21) = (   0.5000000  -0.1000000   0.5000000), wk =   0.0480000
        k(   22) = (   0.4000000   0.0000000   0.4000000), wk =   0.0240000
        k(   23) = (   0.0000000   0.6000000   0.0000000), wk =   0.0120000
        k(   24) = (  -0.1000000   0.7000000  -0.1000000), wk =   0.0480000
        k(   25) = (   0.8000000  -0.2000000   0.8000000), wk =   0.0480000
        k(   26) = (   0.7000000  -0.1000000   0.7000000), wk =   0.0480000
        k(   27) = (   0.6000000  -0.0000000   0.6000000), wk =   0.0240000
        k(   28) = (   0.0000000   0.8000000   0.0000000), wk =   0.0120000
        k(   29) = (   0.9000000  -0.1000000   0.9000000), wk =   0.0480000
        k(   30) = (   0.8000000   0.0000000   0.8000000), wk =   0.0240000
        k(   31) = (   0.0000000  -1.0000000   0.0000000), wk =   0.0060000
        k(   32) = (  -0.2000000   0.4000000   0.0000000), wk =   0.0480000
        k(   33) = (  -0.3000000   0.5000000  -0.1000000), wk =   0.0960000
        k(   34) = (   0.6000000  -0.4000000   0.8000000), wk =   0.0960000
        k(   35) = (   0.5000000  -0.3000000   0.7000000), wk =   0.0480000
        k(   36) = (  -0.2000000   0.6000000   0.0000000), wk =   0.0480000
        k(   37) = (   0.7000000  -0.3000000   0.9000000), wk =   0.0960000
        k(   38) = (   0.6000000  -0.2000000   0.8000000), wk =   0.0960000
        k(   39) = (   0.5000000  -0.1000000   0.7000000), wk =   0.0960000
        k(   40) = (   0.4000000   0.0000000   0.6000000), wk =   0.0480000
        k(   41) = (   0.8000000  -0.2000000   1.0000000), wk =   0.0480000
        k(   42) = (   0.7000000  -0.1000000   0.9000000), wk =   0.0960000
        k(   43) = (   0.6000000   0.0000000   0.8000000), wk =   0.0480000
        k(   44) = (  -0.2000000  -1.0000000   0.0000000), wk =   0.0240000
        k(   45) = (   0.6000000  -0.2000000   1.0000000), wk =   0.0480000
        k(   46) = (   0.5000000  -0.1000000   0.9000000), wk =   0.0480000
        k(   47) = (  -0.4000000  -1.0000000   0.0000000), wk =   0.0240000

     Dense  grid:    15905 G-vectors     FFT dimensions: (  36,  36,  36)

     Estimated max dynamical RAM per process >      29.98 MB

     WARNING: libxc functional with ID  263 depends
      on external parameters: check the user_guide of
      QE if you need to modify them or to check their
      default values.

     Initial potential from superposition of free atoms

     starting charge       7.9953, renormalised to       8.0000
     Starting wfcs are   13 randomized atomic wfcs

     total cpu time spent up to now is        6.4 secs

     Self-consistent Calculation

     iteration #  1     ecut=    50.00 Ry     beta= 0.01
     Davidson diagonalization with overlap
     ethr =  1.00E-02,  avg # of iterations =  1.0

     total cpu time spent up to now is       11.1 secs

     total energy              =     -30.63997438 Ry
     estimated scf accuracy    <       0.36561138 Ry

     iteration #  2     ecut=    50.00 Ry     beta= 0.01
     Davidson diagonalization with overlap
     ethr =  4.57E-03,  avg # of iterations =  1.0

     total cpu time spent up to now is       15.9 secs

     total energy              =     -30.67573852 Ry
     estimated scf accuracy    <       0.34805042 Ry

     iteration #  3     ecut=    50.00 Ry     beta= 0.01
     Davidson diagonalization with overlap
     ethr =  4.35E-03,  avg # of iterations =  1.0

     total cpu time spent up to now is       20.8 secs

     total energy              =     -30.72192893 Ry
     estimated scf accuracy    <       0.25523482 Ry

     iteration #  4     ecut=    50.00 Ry     beta= 0.01
     Davidson diagonalization with overlap
     ethr =  3.19E-03,  avg # of iterations =  1.0

     total cpu time spent up to now is       25.7 secs

     total energy              =     -30.72404810 Ry
     estimated scf accuracy    <       0.00745947 Ry

     iteration #  5     ecut=    50.00 Ry     beta= 0.01
     Davidson diagonalization with overlap
     ethr =  9.32E-05,  avg # of iterations =  1.0

     total cpu time spent up to now is       29.7 secs

     total energy              =     -30.72276759 Ry
     estimated scf accuracy    <       0.00701435 Ry

     iteration #  6     ecut=    50.00 Ry     beta= 0.01
     Davidson diagonalization with overlap
     ethr =  8.77E-05,  avg # of iterations =  1.0

     total cpu time spent up to now is       33.5 secs

     total energy              =     -30.72145450 Ry
     estimated scf accuracy    <       0.00482105 Ry

     iteration #  7     ecut=    50.00 Ry     beta= 0.01
     Davidson diagonalization with overlap
     ethr =  6.03E-05,  avg # of iterations =  2.0

     total cpu time spent up to now is       38.3 secs

     total energy              =     -30.72364588 Ry
     estimated scf accuracy    <       0.00304871 Ry

     iteration #  8     ecut=    50.00 Ry     beta= 0.01
     Davidson diagonalization with overlap
     ethr =  3.81E-05,  avg # of iterations =  1.0

     total cpu time spent up to now is       41.2 secs

     total energy              =     -30.72327125 Ry
     estimated scf accuracy    <       0.00310843 Ry

     iteration #  9     ecut=    50.00 Ry     beta= 0.01
     Davidson diagonalization with overlap
     ethr =  3.81E-05,  avg # of iterations =  1.0

     total cpu time spent up to now is       43.7 secs

     total energy              =     -30.72285017 Ry
     estimated scf accuracy    <       0.00191766 Ry

     iteration # 10     ecut=    50.00 Ry     beta= 0.01
     Davidson diagonalization with overlap
     ethr =  2.40E-05,  avg # of iterations =  1.9

     total cpu time spent up to now is       46.5 secs

     total energy              =     -30.72308921 Ry
     estimated scf accuracy    <       0.00003062 Ry

     iteration # 11     ecut=    50.00 Ry     beta= 0.01
     Davidson diagonalization with overlap
     ethr =  3.83E-07,  avg # of iterations =  2.0

     total cpu time spent up to now is       49.9 secs

     total energy              =     -30.72313155 Ry
     estimated scf accuracy    <       0.00005804 Ry

     iteration # 12     ecut=    50.00 Ry     beta= 0.01
     Davidson diagonalization with overlap
     ethr =  3.83E-07,  avg # of iterations =  1.9

     total cpu time spent up to now is       52.6 secs

     total energy              =     -30.72309031 Ry
     estimated scf accuracy    <       0.00012085 Ry

     iteration # 13     ecut=    50.00 Ry     beta= 0.01
     Davidson diagonalization with overlap
     ethr =  3.83E-07,  avg # of iterations =  2.0

     total cpu time spent up to now is       56.0 secs

     total energy              =     -30.72309695 Ry
     estimated scf accuracy    <       0.00000721 Ry

     iteration # 14     ecut=    50.00 Ry     beta= 0.01
     Davidson diagonalization with overlap
     ethr =  9.01E-08,  avg # of iterations =  2.0

     total cpu time spent up to now is       58.6 secs

     End of self-consistent calculation

          k = 0.0000 0.0000 0.0000 (  1989 PWs)   bands (ev):

   -14.3366  -1.4597  -1.4597  -1.4597

          k =-0.1000 0.1000-0.1000 (  1977 PWs)   bands (ev):

   -14.3151  -1.6569  -1.4738  -1.4738

          k =-0.2000 0.2000-0.2000 (  1976 PWs)   bands (ev):

   -14.2583  -2.1136  -1.5099  -1.5099

          k =-0.3000 0.3000-0.3000 (  1979 PWs)   bands (ev):

   -14.1863  -2.5987  -1.5531  -1.5531

          k =-0.4000 0.4000-0.4000 (  1970 PWs)   bands (ev):

   -14.1262  -2.9490  -1.5869  -1.5869

          k = 0.5000-0.5000 0.5000 (  2006 PWs)   bands (ev):

   -14.1033  -3.0754  -1.5995  -1.5995

          k = 0.0000 0.2000 0.0000 (  1973 PWs)   bands (ev):

   -14.3079  -1.6444  -1.5191  -1.5191

          k =-0.1000 0.3000-0.1000 (  1980 PWs)   bands (ev):

   -14.2629  -1.9904  -1.5801  -1.5453

          k =-0.2000 0.4000-0.2000 (  1970 PWs)   bands (ev):

   -14.1954  -2.4501  -1.6325  -1.5943

          k =-0.3000 0.5000-0.3000 (  1973 PWs)   bands (ev):

   -14.1309  -2.8288  -1.6650  -1.6571

          k = 0.6000-0.4000 0.6000 (  1975 PWs)   bands (ev):

   -14.0950  -3.0196  -1.7294  -1.6456

          k = 0.5000-0.3000 0.5000 (  1979 PWs)   bands (ev):

   -14.1029  -2.9769  -1.7623  -1.6024

          k = 0.4000-0.2000 0.4000 (  1978 PWs)   bands (ev):

   -14.1512  -2.7128  -1.7493  -1.5431

          k = 0.3000-0.1000 0.3000 (  1972 PWs)   bands (ev):

   -14.2197  -2.3000  -1.6886  -1.4894

          k = 0.2000 0.0000 0.2000 (  1977 PWs)   bands (ev):

   -14.2819  -1.8852  -1.5844  -1.4625

          k = 0.0000 0.4000 0.0000 (  1992 PWs)   bands (ev):

   -14.2317  -2.0777  -1.6707  -1.6707

          k =-0.1000 0.5000-0.1000 (  1987 PWs)   bands (ev):

   -14.1756  -2.3969  -1.7520  -1.7466

          k =-0.2000 0.6000-0.2000 (  1984 PWs)   bands (ev):

   -14.1152  -2.7105  -1.8720  -1.7808

          k = 0.7000-0.3000 0.7000 (  1977 PWs)   bands (ev):

   -14.0741  -2.8903  -2.0114  -1.7619

          k = 0.6000-0.2000 0.6000 (  1987 PWs)   bands (ev):

   -14.0695  -2.8905  -2.1094  -1.6965

          k = 0.5000-0.1000 0.5000 (  1971 PWs)   bands (ev):

   -14.1027  -2.7328  -2.1053  -1.6071

          k = 0.4000 0.0000 0.4000 (  1973 PWs)   bands (ev):

   -14.1605  -2.5089  -1.9497  -1.5273

          k = 0.0000 0.6000 0.0000 (  1992 PWs)   bands (ev):

   -14.1334  -2.5507  -1.8501  -1.8501

          k =-0.1000 0.7000-0.1000 (  1983 PWs)   bands (ev):

   -14.0845  -2.7541  -1.9711  -1.9067

          k = 0.8000-0.2000 0.8000 (  1989 PWs)   bands (ev):

   -14.0480  -2.8430  -2.1778  -1.8981

          k = 0.7000-0.1000 0.7000 (  1978 PWs)   bands (ev):

   -14.0382  -2.7632  -2.4100  -1.8269

          k = 0.6000-0.0000 0.6000 (  1979 PWs)   bands (ev):

   -14.0595  -2.6593  -2.4500  -1.7166

          k = 0.0000 0.8000 0.0000 (  1996 PWs)   bands (ev):

   -14.0505  -2.9032  -1.9896  -1.9896

          k = 0.9000-0.1000 0.9000 (  1985 PWs)   bands (ev):

   -14.0262  -2.9637  -2.1041  -2.0027

          k = 0.8000 0.0000 0.8000 (  1968 PWs)   bands (ev):

   -14.0214  -2.8713  -2.3166  -1.9422

          k = 0.0000-1.0000 0.0000 (  1964 PWs)   bands (ev):

   -14.0176  -3.0330  -2.0415  -2.0415

          k =-0.2000 0.4000 0.0000 (  1974 PWs)   bands (ev):

   -14.2121  -2.2556  -1.7501  -1.5635

          k =-0.3000 0.5000-0.1000 (  1978 PWs)   bands (ev):

   -14.1481  -2.5879  -1.8884  -1.6126

          k = 0.6000-0.4000 0.8000 (  1977 PWs)   bands (ev):

   -14.0949  -2.8509  -1.9583  -1.6759

          k = 0.5000-0.3000 0.7000 (  1980 PWs)   bands (ev):

   -14.0743  -2.9489  -1.9774  -1.7055

          k =-0.2000 0.6000 0.0000 (  1978 PWs)   bands (ev):

   -14.1228  -2.6068  -1.9453  -1.7760

          k = 0.7000-0.3000 0.9000 (  1983 PWs)   bands (ev):

   -14.0739  -2.7675  -2.1163  -1.8303

          k = 0.6000-0.2000 0.8000 (  1974 PWs)   bands (ev):

   -14.0482  -2.8145  -2.2633  -1.8365

          k = 0.5000-0.1000 0.7000 (  1983 PWs)   bands (ev):

   -14.0564  -2.7545  -2.3220  -1.7743

          k = 0.4000 0.0000 0.6000 (  1985 PWs)   bands (ev):

   -14.0949  -2.6766  -2.1811  -1.6813

          k = 0.8000-0.2000 1.0000 (  1982 PWs)   bands (ev):

   -14.0476  -2.8587  -2.0961  -1.9672

          k = 0.7000-0.1000 0.9000 (  1976 PWs)   bands (ev):

   -14.0267  -2.8296  -2.2998  -1.9732

          k = 0.6000 0.0000 0.8000 (  1964 PWs)   bands (ev):

   -14.0300  -2.6521  -2.5385  -1.8940

          k =-0.2000-1.0000 0.0000 (  1980 PWs)   bands (ev):

   -14.0181  -2.9512  -2.1522  -2.0414

          k = 0.6000-0.2000 1.0000 (  1978 PWs)   bands (ev):

   -14.0401  -2.7309  -2.3577  -1.9192

          k = 0.5000-0.1000 0.9000 (  1968 PWs)   bands (ev):

   -14.0269  -2.6575  -2.4977  -1.9669

          k =-0.4000-1.0000 0.0000 (  1962 PWs)   bands (ev):

   -14.0186  -2.7262  -2.4229  -2.0413

     highest occupied level (ev):    -1.4597

!    total energy              =     -30.72309860 Ry
     estimated scf accuracy    <       0.00000030 Ry

     The total energy is the sum of the following terms:
     one-electron contribution =      -9.83055768 Ry
     hartree contribution      =       7.63077277 Ry
     xc contribution           =      -6.26074847 Ry
     ewald contribution        =     -22.26256522 Ry

     convergence has been achieved in  14 iterations
     Writing meta-gga kinetic term

     Writing all to output data dir ./input_pw/LiCl/11/pwscf.save/
     Writing meta-gga kinetic term
 
     init_run     :      3.03s CPU      6.35s WALL (       1 calls)
     electrons    :     36.93s CPU     52.26s WALL (       1 calls)

     Called by init_run:
     wfcinit      :      2.88s CPU      6.01s WALL (       1 calls)
     potinit      :      0.03s CPU      0.12s WALL (       1 calls)
     hinit0       :      0.09s CPU      0.19s WALL (       1 calls)

     Called by electrons:
     c_bands      :     29.38s CPU     41.10s WALL (      14 calls)
     sum_band     :      6.65s CPU      9.84s WALL (      14 calls)
     v_of_rho     :      0.44s CPU      0.71s WALL (      15 calls)
     mix_rho      :      0.47s CPU      0.69s WALL (      14 calls)

     Called by c_bands:
     init_us_2    :      0.33s CPU      0.45s WALL (    1363 calls)
     init_us_2:cp :      0.33s CPU      0.45s WALL (    1363 calls)
     cegterg      :     29.06s CPU     40.71s WALL (     658 calls)

     Called by *egterg:
     cdiaghg      :      0.10s CPU      0.13s WALL (    1591 calls)
     h_psi        :     31.35s CPU     45.82s WALL (    1638 calls)
     g_psi        :      0.02s CPU      0.02s WALL (     933 calls)

     Called by h_psi:
     h_psi:calbec :      0.10s CPU      0.16s WALL (    1638 calls)
     vloc_psi     :      7.76s CPU     11.30s WALL (    1638 calls)
     add_vuspsi   :      0.09s CPU      0.14s WALL (    1638 calls)
     h_psi_meta   :     23.36s CPU     34.15s WALL (    1638 calls)

     General routines
     calbec       :      0.09s CPU      0.15s WALL (    1638 calls)
     fft          :      0.09s CPU      0.17s WALL (     177 calls)
     ffts         :      0.19s CPU      0.28s WALL (     355 calls)
     fftw         :     32.72s CPU     48.12s WALL (   64600 calls)
     interpolate  :      0.00s CPU      0.00s WALL (      15 calls)
 
     Parallel routines
 
     PWSCF        :     40.00s CPU     58.67s WALL

 
   This run was terminated on:  10:22:33  29Mar2023            

=------------------------------------------------------------------------------=
   JOB DONE.
=------------------------------------------------------------------------------=
