
     Program PWSCF v.7.0 starts on  7Jul2023 at 14:23:45 

     This program is part of the open-source Quantum ESPRESSO suite
     for quantum simulation of materials; please cite
         "P. Giannozzi et al., J. Phys.:Condens. Matter 21 395502 (2009);
         "P. Giannozzi et al., J. Phys.:Condens. Matter 29 465901 (2017);
         "P. Giannozzi et al., J. Chem. Phys. 152 154105 (2020);
          URL http://www.quantum-espresso.org", 
     in publications or presentations arising from this work. More details at
     http://www.quantum-espresso.org/quote

     Parallel version (MPI), running on     1 processors

     MPI processes distributed on     1 nodes
     26976 MiB available memory on the printing compute node when the environment starts
 
     Waiting for input...
     Reading input from standard input
Warning: card &CELL ignored
Warning: card / ignored

     Current dimensions of program PWSCF are:
     Max number of different atomic species (ntypx) = 10
     Max number of k-points (npk) =  40000
     Max angular momentum in pseudopotentials (lmaxx) =  4

     WARNING: the MGGA functional with ID    5 has been 
     read together with other dft terms, but it should 
     stand alone in order to work properly. The other 
     terms will be ignored.

     WARNING: the MGGA functional with ID    5 has been 
     read together with other dft terms, but it should 
     stand alone in order to work properly. The other 
     terms will be ignored.

     Subspace diagonalization in iterative solution of the eigenvalue problem:
     a serial algorithm will be used

 
     G-vector sticks info
     --------------------
     sticks:   dense  smooth     PW     G-vecs:    dense   smooth      PW
     Sum         637     637    199                10417    10417    1837
 
     Using Slab Decomposition
 


     bravais-lattice index     =            2
     lattice parameter (alat)  =       9.5343  a.u.
     unit-cell volume          =     216.6737 (a.u.)^3
     number of atoms/cell      =            2
     number of atomic types    =            2
     number of electrons       =         8.00
     number of Kohn-Sham states=            4
     kinetic-energy cutoff     =      50.0000  Ry
     charge density cutoff     =     200.0000  Ry
     scf convergence threshold =      2.0E-05
     mixing beta               =       0.2000
     number of iterations used =            8  local-TF  mixing
     Exchange-correlation= SLA  PW   SCAN SCAN
                           (   0   0   0   0   0 263 267)

     celldm(1)=   9.534298  celldm(2)=   0.000000  celldm(3)=   0.000000
     celldm(4)=   0.000000  celldm(5)=   0.000000  celldm(6)=   0.000000

     crystal axes: (cart. coord. in units of alat)
               a(1) = (  -0.500000   0.000000   0.500000 )  
               a(2) = (   0.000000   0.500000   0.500000 )  
               a(3) = (  -0.500000   0.500000   0.000000 )  

     reciprocal axes: (cart. coord. in units 2 pi/alat)
               b(1) = ( -1.000000 -1.000000  1.000000 )  
               b(2) = (  1.000000  1.000000  1.000000 )  
               b(3) = ( -1.000000  1.000000 -1.000000 )  


     PseudoPot. # 1 for Li read from file:
     ~/Documents/TA/PWDFT.jl/pseudopotentials/scan_upf/Li.SCAN.UPF2
     MD5 check sum: Not computed, couldn't open file
     Pseudo is Norm-conserving, Zval =  1.0
     Generated by new atomic code, or converted to UPF format
     Using radial grid of 1321 points,  1 beta functions with: 
                l(1) =   0

     PseudoPot. # 2 for F  read from file:
     ~/Documents/TA/PWDFT.jl/pseudopotentials/scan_upf/F.SCAN.UPF2
     MD5 check sum: Not computed, couldn't open file
     Pseudo is Norm-conserving, Zval =  7.0
     Generated by new atomic code, or converted to UPF format
     Using radial grid of 1431 points,  1 beta functions with: 
                l(1) =   0

     atomic species   valence    mass     pseudopotential
        Li             1.00     6.94100     Li( 1.00)
        F              7.00    18.99800     F ( 1.00)

     48 Sym. Ops., with inversion, found



   Cartesian axes

     site n.     atom                  positions (alat units)
         1           Li  tau(   1) = (   0.0000000   0.0000000   0.0000000  )
         2           F   tau(   2) = (   0.5000000   0.5000000   0.5000000  )

     number of k points=    47
                       cart. coord. in units 2pi/alat
        k(    1) = (   0.0000000   0.0000000   0.0000000), wk =   0.0020000
        k(    2) = (  -0.1000000   0.1000000  -0.1000000), wk =   0.0160000
        k(    3) = (  -0.2000000   0.2000000  -0.2000000), wk =   0.0160000
        k(    4) = (  -0.3000000   0.3000000  -0.3000000), wk =   0.0160000
        k(    5) = (  -0.4000000   0.4000000  -0.4000000), wk =   0.0160000
        k(    6) = (   0.5000000  -0.5000000   0.5000000), wk =   0.0080000
        k(    7) = (   0.0000000   0.2000000   0.0000000), wk =   0.0120000
        k(    8) = (  -0.1000000   0.3000000  -0.1000000), wk =   0.0480000
        k(    9) = (  -0.2000000   0.4000000  -0.2000000), wk =   0.0480000
        k(   10) = (  -0.3000000   0.5000000  -0.3000000), wk =   0.0480000
        k(   11) = (   0.6000000  -0.4000000   0.6000000), wk =   0.0480000
        k(   12) = (   0.5000000  -0.3000000   0.5000000), wk =   0.0480000
        k(   13) = (   0.4000000  -0.2000000   0.4000000), wk =   0.0480000
        k(   14) = (   0.3000000  -0.1000000   0.3000000), wk =   0.0480000
        k(   15) = (   0.2000000   0.0000000   0.2000000), wk =   0.0240000
        k(   16) = (   0.0000000   0.4000000   0.0000000), wk =   0.0120000
        k(   17) = (  -0.1000000   0.5000000  -0.1000000), wk =   0.0480000
        k(   18) = (  -0.2000000   0.6000000  -0.2000000), wk =   0.0480000
        k(   19) = (   0.7000000  -0.3000000   0.7000000), wk =   0.0480000
        k(   20) = (   0.6000000  -0.2000000   0.6000000), wk =   0.0480000
        k(   21) = (   0.5000000  -0.1000000   0.5000000), wk =   0.0480000
        k(   22) = (   0.4000000   0.0000000   0.4000000), wk =   0.0240000
        k(   23) = (   0.0000000   0.6000000   0.0000000), wk =   0.0120000
        k(   24) = (  -0.1000000   0.7000000  -0.1000000), wk =   0.0480000
        k(   25) = (   0.8000000  -0.2000000   0.8000000), wk =   0.0480000
        k(   26) = (   0.7000000  -0.1000000   0.7000000), wk =   0.0480000
        k(   27) = (   0.6000000  -0.0000000   0.6000000), wk =   0.0240000
        k(   28) = (   0.0000000   0.8000000   0.0000000), wk =   0.0120000
        k(   29) = (   0.9000000  -0.1000000   0.9000000), wk =   0.0480000
        k(   30) = (   0.8000000   0.0000000   0.8000000), wk =   0.0240000
        k(   31) = (   0.0000000  -1.0000000   0.0000000), wk =   0.0060000
        k(   32) = (  -0.2000000   0.4000000   0.0000000), wk =   0.0480000
        k(   33) = (  -0.3000000   0.5000000  -0.1000000), wk =   0.0960000
        k(   34) = (   0.6000000  -0.4000000   0.8000000), wk =   0.0960000
        k(   35) = (   0.5000000  -0.3000000   0.7000000), wk =   0.0480000
        k(   36) = (  -0.2000000   0.6000000   0.0000000), wk =   0.0480000
        k(   37) = (   0.7000000  -0.3000000   0.9000000), wk =   0.0960000
        k(   38) = (   0.6000000  -0.2000000   0.8000000), wk =   0.0960000
        k(   39) = (   0.5000000  -0.1000000   0.7000000), wk =   0.0960000
        k(   40) = (   0.4000000   0.0000000   0.6000000), wk =   0.0480000
        k(   41) = (   0.8000000  -0.2000000   1.0000000), wk =   0.0480000
        k(   42) = (   0.7000000  -0.1000000   0.9000000), wk =   0.0960000
        k(   43) = (   0.6000000   0.0000000   0.8000000), wk =   0.0480000
        k(   44) = (  -0.2000000  -1.0000000   0.0000000), wk =   0.0240000
        k(   45) = (   0.6000000  -0.2000000   1.0000000), wk =   0.0480000
        k(   46) = (   0.5000000  -0.1000000   0.9000000), wk =   0.0480000
        k(   47) = (  -0.4000000  -1.0000000   0.0000000), wk =   0.0240000

     Dense  grid:    10417 G-vectors     FFT dimensions: (  32,  32,  32)

     Estimated max dynamical RAM per process >      19.72 MB

     WARNING: libxc functional with ID  263 depends
      on external parameters: check the user_guide of
      QE if you need to modify them or to check their
      default values.

     Initial potential from superposition of free atoms

     starting charge       7.9953, renormalised to       8.0000
     Starting wfcs are    8 randomized atomic wfcs

     total cpu time spent up to now is        1.2 secs

     Self-consistent Calculation

     iteration #  1     ecut=    50.00 Ry     beta= 0.20
     Davidson diagonalization with overlap
     ethr =  1.00E-02,  avg # of iterations =  2.0

     total cpu time spent up to now is        3.6 secs

     total energy              =     -48.56790807 Ry
     estimated scf accuracy    <      17.86528490 Ry

     iteration #  2     ecut=    50.00 Ry     beta= 0.20
     Davidson diagonalization with overlap
     ethr =  1.00E-02,  avg # of iterations =  1.0

     total cpu time spent up to now is        5.6 secs

     total energy              =     -48.55796224 Ry
     estimated scf accuracy    <      11.59691595 Ry

     iteration #  3     ecut=    50.00 Ry     beta= 0.20
     Davidson diagonalization with overlap
     ethr =  1.00E-02,  avg # of iterations =  1.0

     total cpu time spent up to now is        7.5 secs

     total energy              =     -48.56715950 Ry
     estimated scf accuracy    <       0.06596881 Ry

     iteration #  4     ecut=    50.00 Ry     beta= 0.20
     Davidson diagonalization with overlap
     ethr =  8.25E-04,  avg # of iterations =  1.0

     total cpu time spent up to now is        9.5 secs

     total energy              =     -48.56868752 Ry
     estimated scf accuracy    <       0.05326243 Ry

     iteration #  5     ecut=    50.00 Ry     beta= 0.20
     Davidson diagonalization with overlap
     ethr =  6.66E-04,  avg # of iterations =  1.0

     total cpu time spent up to now is       11.3 secs

     total energy              =     -48.57029092 Ry
     estimated scf accuracy    <       0.02163434 Ry

     iteration #  6     ecut=    50.00 Ry     beta= 0.20
     Davidson diagonalization with overlap
     ethr =  2.70E-04,  avg # of iterations =  1.0

     total cpu time spent up to now is       12.6 secs

     total energy              =     -48.57045205 Ry
     estimated scf accuracy    <       0.00500880 Ry

     iteration #  7     ecut=    50.00 Ry     beta= 0.20
     Davidson diagonalization with overlap
     ethr =  6.26E-05,  avg # of iterations =  1.0

     total cpu time spent up to now is       14.0 secs

     total energy              =     -48.57054255 Ry
     estimated scf accuracy    <       0.00014771 Ry

     iteration #  8     ecut=    50.00 Ry     beta= 0.20
     Davidson diagonalization with overlap
     ethr =  1.85E-06,  avg # of iterations =  1.1

     total cpu time spent up to now is       15.5 secs

     total energy              =     -48.57053547 Ry
     estimated scf accuracy    <       0.00092955 Ry

     iteration #  9     ecut=    50.00 Ry     beta= 0.20
     Davidson diagonalization with overlap
     ethr =  1.85E-06,  avg # of iterations =  1.0

     total cpu time spent up to now is       16.6 secs

     total energy              =     -48.57052600 Ry
     estimated scf accuracy    <       0.00041687 Ry

     iteration # 10     ecut=    50.00 Ry     beta= 0.20
     Davidson diagonalization with overlap
     ethr =  1.85E-06,  avg # of iterations =  1.0

     total cpu time spent up to now is       17.3 secs

     End of self-consistent calculation

          k = 0.0000 0.0000 0.0000 (  1291 PWs)   bands (ev):

   -24.0778  -3.2745  -3.2745  -3.2745

          k =-0.1000 0.1000-0.1000 (  1297 PWs)   bands (ev):

   -24.0705  -3.4329  -3.2939  -3.2939

          k =-0.2000 0.2000-0.2000 (  1302 PWs)   bands (ev):

   -24.0504  -3.7484  -3.3227  -3.3227

          k =-0.3000 0.3000-0.3000 (  1305 PWs)   bands (ev):

   -24.0252  -4.0428  -3.3698  -3.3698

          k =-0.4000 0.4000-0.4000 (  1299 PWs)   bands (ev):

   -24.0044  -4.2264  -3.3963  -3.3963

          k = 0.5000-0.5000 0.5000 (  1308 PWs)   bands (ev):

   -23.9968  -4.3346  -3.4146  -3.4146

          k = 0.0000 0.2000 0.0000 (  1299 PWs)   bands (ev):

   -24.0680  -3.4281  -3.3299  -3.3299

          k =-0.1000 0.3000-0.1000 (  1305 PWs)   bands (ev):

   -24.0521  -3.6802  -3.3788  -3.3452

          k =-0.2000 0.4000-0.2000 (  1306 PWs)   bands (ev):

   -24.0284  -3.9600  -3.4149  -3.3960

          k =-0.3000 0.5000-0.3000 (  1296 PWs)   bands (ev):

   -24.0057  -4.1528  -3.4418  -3.4192

          k = 0.6000-0.4000 0.6000 (  1293 PWs)   bands (ev):

   -23.9933  -4.2687  -3.4675  -3.4070

          k = 0.5000-0.3000 0.5000 (  1294 PWs)   bands (ev):

   -23.9961  -4.2461  -3.4877  -3.3842

          k = 0.4000-0.2000 0.4000 (  1298 PWs)   bands (ev):

   -24.0127  -4.0987  -3.4714  -3.3590

          k = 0.3000-0.1000 0.3000 (  1304 PWs)   bands (ev):

   -24.0368  -3.8676  -3.4382  -3.3204

          k = 0.2000 0.0000 0.2000 (  1299 PWs)   bands (ev):

   -24.0586  -3.6032  -3.3646  -3.2776

          k = 0.0000 0.4000 0.0000 (  1307 PWs)   bands (ev):

   -24.0410  -3.7651  -3.4273  -3.4273

          k =-0.1000 0.5000-0.1000 (  1308 PWs)   bands (ev):

   -24.0213  -3.9453  -3.4970  -3.4919

          k =-0.2000 0.6000-0.2000 (  1286 PWs)   bands (ev):

   -23.9995  -4.0763  -3.5373  -3.4812

          k = 0.7000-0.3000 0.7000 (  1290 PWs)   bands (ev):

   -23.9858  -4.1898  -3.6271  -3.4818

          k = 0.6000-0.2000 0.6000 (  1287 PWs)   bands (ev):

   -23.9841  -4.1702  -3.6855  -3.4417

          k = 0.5000-0.1000 0.5000 (  1294 PWs)   bands (ev):

   -23.9958  -4.0860  -3.6902  -3.4042

          k = 0.4000 0.0000 0.4000 (  1301 PWs)   bands (ev):

   -24.0160  -3.9601  -3.6059  -3.3659

          k = 0.0000 0.6000 0.0000 (  1291 PWs)   bands (ev):

   -24.0057  -4.0198  -3.5262  -3.5262

          k =-0.1000 0.7000-0.1000 (  1291 PWs)   bands (ev):

   -23.9889  -4.1372  -3.6206  -3.5639

          k = 0.8000-0.2000 0.8000 (  1296 PWs)   bands (ev):

   -23.9768  -4.2083  -3.7362  -3.5740

          k = 0.7000-0.1000 0.7000 (  1294 PWs)   bands (ev):

   -23.9736  -4.1197  -3.8832  -3.5400

          k = 0.6000-0.0000 0.6000 (  1306 PWs)   bands (ev):

   -23.9814  -4.0506  -3.9601  -3.4833

          k = 0.0000 0.8000 0.0000 (  1290 PWs)   bands (ev):

   -23.9771  -4.2655  -3.6132  -3.6132

          k = 0.9000-0.1000 0.9000 (  1295 PWs)   bands (ev):

   -23.9692  -4.3106  -3.6989  -3.6288

          k = 0.8000 0.0000 0.8000 (  1296 PWs)   bands (ev):

   -23.9678  -4.2371  -3.8039  -3.6184

          k = 0.0000-1.0000 0.0000 (  1298 PWs)   bands (ev):

   -23.9664  -4.3730  -3.6642  -3.6642

          k =-0.2000 0.4000 0.0000 (  1306 PWs)   bands (ev):

   -24.0342  -3.8510  -3.4753  -3.3745

          k =-0.3000 0.5000-0.1000 (  1298 PWs)   bands (ev):

   -24.0115  -4.0242  -3.5695  -3.3901

          k = 0.6000-0.4000 0.8000 (  1289 PWs)   bands (ev):

   -23.9929  -4.1641  -3.5884  -3.4233

          k = 0.5000-0.3000 0.7000 (  1292 PWs)   bands (ev):

   -23.9861  -4.2220  -3.6210  -3.4421

          k =-0.2000 0.6000 0.0000 (  1298 PWs)   bands (ev):

   -24.0025  -4.0476  -3.6166  -3.4891

          k = 0.7000-0.3000 0.9000 (  1290 PWs)   bands (ev):

   -23.9855  -4.1378  -3.7018  -3.4993

          k = 0.6000-0.2000 0.8000 (  1285 PWs)   bands (ev):

   -23.9766  -4.1340  -3.7889  -3.5031

          k = 0.5000-0.1000 0.7000 (  1286 PWs)   bands (ev):

   -23.9795  -4.0868  -3.8360  -3.4632

          k = 0.4000 0.0000 0.6000 (  1299 PWs)   bands (ev):

   -23.9932  -4.0684  -3.7652  -3.4385

          k = 0.8000-0.2000 1.0000 (  1292 PWs)   bands (ev):

   -23.9764  -4.2181  -3.6930  -3.5974

          k = 0.7000-0.1000 0.9000 (  1289 PWs)   bands (ev):

   -23.9693  -4.1955  -3.8003  -3.5926

          k = 0.6000 0.0000 0.8000 (  1283 PWs)   bands (ev):

   -23.9703  -4.0584  -3.9352  -3.5310

          k =-0.2000-1.0000 0.0000 (  1294 PWs)   bands (ev):

   -23.9665  -4.2966  -3.7235  -3.6527

          k = 0.6000-0.2000 1.0000 (  1291 PWs)   bands (ev):

   -23.9740  -4.1137  -3.8627  -3.5459

          k = 0.5000-0.1000 0.9000 (  1288 PWs)   bands (ev):

   -23.9694  -4.0387  -3.9557  -3.5774

          k =-0.4000-1.0000 0.0000 (  1286 PWs)   bands (ev):

   -23.9664  -4.0948  -3.9143  -3.6030

     highest occupied level (ev):    -3.2745

!    total energy              =     -48.57053205 Ry
     estimated scf accuracy    <       0.00000065 Ry

     The total energy is the sum of the following terms:
     one-electron contribution =     -34.53117737 Ry
     hartree contribution      =      21.29976893 Ry
     xc contribution           =      -9.69493259 Ry
     ewald contribution        =     -25.64419103 Ry

     convergence has been achieved in  10 iterations
     Writing meta-gga kinetic term

     Writing all to output data dir ./input_pw/LiF/14/pwscf.save/
     Writing meta-gga kinetic term
 
     init_run     :      0.84s CPU      1.17s WALL (       1 calls)
     electrons    :      9.74s CPU     16.11s WALL (       1 calls)

     Called by init_run:
     wfcinit      :      0.74s CPU      1.04s WALL (       1 calls)
     potinit      :      0.03s CPU      0.06s WALL (       1 calls)
     hinit0       :      0.06s CPU      0.07s WALL (       1 calls)

     Called by electrons:
     c_bands      :      7.46s CPU     12.62s WALL (      10 calls)
     sum_band     :      1.92s CPU      2.95s WALL (      10 calls)
     v_of_rho     :      0.21s CPU      0.33s WALL (      11 calls)
     mix_rho      :      0.16s CPU      0.24s WALL (      10 calls)

     Called by c_bands:
     init_us_2    :      0.06s CPU      0.15s WALL (     987 calls)
     init_us_2:cp :      0.06s CPU      0.15s WALL (     987 calls)
     cegterg      :      7.40s CPU     12.50s WALL (     470 calls)

     Called by *egterg:
     cdiaghg      :      0.04s CPU      0.08s WALL (     993 calls)
     h_psi        :      7.93s CPU     13.12s WALL (    1040 calls)
     g_psi        :      0.01s CPU      0.01s WALL (     523 calls)

     Called by h_psi:
     h_psi:calbec :      0.02s CPU      0.06s WALL (    1040 calls)
     vloc_psi     :      1.95s CPU      3.24s WALL (    1040 calls)
     add_vuspsi   :      0.03s CPU      0.04s WALL (    1040 calls)
     h_psi_meta   :      5.92s CPU      9.72s WALL (    1040 calls)

     General routines
     calbec       :      0.01s CPU      0.06s WALL (    1040 calls)
     fft          :      0.03s CPU      0.05s WALL (     129 calls)
     ffts         :      0.06s CPU      0.11s WALL (     309 calls)
     fftw         :      8.21s CPU     13.28s WALL (   41648 calls)
     interpolate  :      0.00s CPU      0.00s WALL (      11 calls)
 
     Parallel routines
 
     PWSCF        :     10.61s CPU     17.34s WALL

 
   This run was terminated on:  14:24: 3   7Jul2023            

=------------------------------------------------------------------------------=
   JOB DONE.
=------------------------------------------------------------------------------=
