
     Program PWSCF v.7.0 starts on 10Apr2023 at  9:43:45 

     This program is part of the open-source Quantum ESPRESSO suite
     for quantum simulation of materials; please cite
         "P. Giannozzi et al., J. Phys.:Condens. Matter 21 395502 (2009);
         "P. Giannozzi et al., J. Phys.:Condens. Matter 29 465901 (2017);
         "P. Giannozzi et al., J. Chem. Phys. 152 154105 (2020);
          URL http://www.quantum-espresso.org", 
     in publications or presentations arising from this work. More details at
     http://www.quantum-espresso.org/quote

     Parallel version (MPI), running on     1 processors

     MPI processes distributed on     1 nodes
     19104 MiB available memory on the printing compute node when the environment starts
 
     Waiting for input...
     Reading input from standard input
Warning: card &CELL ignored
Warning: card / ignored

     Current dimensions of program PWSCF are:
     Max number of different atomic species (ntypx) = 10
     Max number of k-points (npk) =  40000
     Max angular momentum in pseudopotentials (lmaxx) =  4

     WARNING: the MGGA functional with ID    5 has been 
     read together with other dft terms, but it should 
     stand alone in order to work properly. The other 
     terms will be ignored.

     WARNING: the MGGA functional with ID    5 has been 
     read together with other dft terms, but it should 
     stand alone in order to work properly. The other 
     terms will be ignored.

     Subspace diagonalization in iterative solution of the eigenvalue problem:
     a serial algorithm will be used

 
     G-vector sticks info
     --------------------
     sticks:   dense  smooth     PW     G-vecs:    dense   smooth      PW
     Sum         511     511    163                 7727     7727    1411
 
     Using Slab Decomposition
 


     bravais-lattice index     =            2
     lattice parameter (alat)  =       8.6474  a.u.
     unit-cell volume          =     161.6571 (a.u.)^3
     number of atoms/cell      =            2
     number of atomic types    =            2
     number of electrons       =         8.00
     number of Kohn-Sham states=            4
     kinetic-energy cutoff     =      50.0000  Ry
     charge density cutoff     =     200.0000  Ry
     scf convergence threshold =      1.0E-06
     mixing beta               =       0.0100
     number of iterations used =            8  local-TF  mixing
     Exchange-correlation= SLA  PW   SCAN SCAN
                           (   0   0   0   0   0 263 267)

     celldm(1)=   8.647387  celldm(2)=   0.000000  celldm(3)=   0.000000
     celldm(4)=   0.000000  celldm(5)=   0.000000  celldm(6)=   0.000000

     crystal axes: (cart. coord. in units of alat)
               a(1) = (  -0.500000   0.000000   0.500000 )  
               a(2) = (   0.000000   0.500000   0.500000 )  
               a(3) = (  -0.500000   0.500000   0.000000 )  

     reciprocal axes: (cart. coord. in units 2 pi/alat)
               b(1) = ( -1.000000 -1.000000  1.000000 )  
               b(2) = (  1.000000  1.000000  1.000000 )  
               b(3) = ( -1.000000  1.000000 -1.000000 )  


     PseudoPot. # 1 for Li read from file:
     ~/Documents/TA/PWDFT.jl/pseudopotentials/scan_upf/Li.SCAN.UPF2
     MD5 check sum: Not computed, couldn't open file
     Pseudo is Norm-conserving, Zval =  1.0
     Generated by new atomic code, or converted to UPF format
     Using radial grid of 1321 points,  1 beta functions with: 
                l(1) =   0

     PseudoPot. # 2 for F  read from file:
     ~/Documents/TA/PWDFT.jl/pseudopotentials/scan_upf/F.SCAN.UPF2
     MD5 check sum: Not computed, couldn't open file
     Pseudo is Norm-conserving, Zval =  7.0
     Generated by new atomic code, or converted to UPF format
     Using radial grid of 1431 points,  1 beta functions with: 
                l(1) =   0

     atomic species   valence    mass     pseudopotential
        Li             1.00     6.94100     Li( 1.00)
        F              7.00    18.99800     F ( 1.00)

     48 Sym. Ops., with inversion, found



   Cartesian axes

     site n.     atom                  positions (alat units)
         1           Li  tau(   1) = (   0.0000000   0.0000000   0.0000000  )
         2           F   tau(   2) = (   0.5000000   0.5000000   0.5000000  )

     number of k points=    47
                       cart. coord. in units 2pi/alat
        k(    1) = (   0.0000000   0.0000000   0.0000000), wk =   0.0020000
        k(    2) = (  -0.1000000   0.1000000  -0.1000000), wk =   0.0160000
        k(    3) = (  -0.2000000   0.2000000  -0.2000000), wk =   0.0160000
        k(    4) = (  -0.3000000   0.3000000  -0.3000000), wk =   0.0160000
        k(    5) = (  -0.4000000   0.4000000  -0.4000000), wk =   0.0160000
        k(    6) = (   0.5000000  -0.5000000   0.5000000), wk =   0.0080000
        k(    7) = (   0.0000000   0.2000000   0.0000000), wk =   0.0120000
        k(    8) = (  -0.1000000   0.3000000  -0.1000000), wk =   0.0480000
        k(    9) = (  -0.2000000   0.4000000  -0.2000000), wk =   0.0480000
        k(   10) = (  -0.3000000   0.5000000  -0.3000000), wk =   0.0480000
        k(   11) = (   0.6000000  -0.4000000   0.6000000), wk =   0.0480000
        k(   12) = (   0.5000000  -0.3000000   0.5000000), wk =   0.0480000
        k(   13) = (   0.4000000  -0.2000000   0.4000000), wk =   0.0480000
        k(   14) = (   0.3000000  -0.1000000   0.3000000), wk =   0.0480000
        k(   15) = (   0.2000000   0.0000000   0.2000000), wk =   0.0240000
        k(   16) = (   0.0000000   0.4000000   0.0000000), wk =   0.0120000
        k(   17) = (  -0.1000000   0.5000000  -0.1000000), wk =   0.0480000
        k(   18) = (  -0.2000000   0.6000000  -0.2000000), wk =   0.0480000
        k(   19) = (   0.7000000  -0.3000000   0.7000000), wk =   0.0480000
        k(   20) = (   0.6000000  -0.2000000   0.6000000), wk =   0.0480000
        k(   21) = (   0.5000000  -0.1000000   0.5000000), wk =   0.0480000
        k(   22) = (   0.4000000   0.0000000   0.4000000), wk =   0.0240000
        k(   23) = (   0.0000000   0.6000000   0.0000000), wk =   0.0120000
        k(   24) = (  -0.1000000   0.7000000  -0.1000000), wk =   0.0480000
        k(   25) = (   0.8000000  -0.2000000   0.8000000), wk =   0.0480000
        k(   26) = (   0.7000000  -0.1000000   0.7000000), wk =   0.0480000
        k(   27) = (   0.6000000  -0.0000000   0.6000000), wk =   0.0240000
        k(   28) = (   0.0000000   0.8000000   0.0000000), wk =   0.0120000
        k(   29) = (   0.9000000  -0.1000000   0.9000000), wk =   0.0480000
        k(   30) = (   0.8000000   0.0000000   0.8000000), wk =   0.0240000
        k(   31) = (   0.0000000  -1.0000000   0.0000000), wk =   0.0060000
        k(   32) = (  -0.2000000   0.4000000   0.0000000), wk =   0.0480000
        k(   33) = (  -0.3000000   0.5000000  -0.1000000), wk =   0.0960000
        k(   34) = (   0.6000000  -0.4000000   0.8000000), wk =   0.0960000
        k(   35) = (   0.5000000  -0.3000000   0.7000000), wk =   0.0480000
        k(   36) = (  -0.2000000   0.6000000   0.0000000), wk =   0.0480000
        k(   37) = (   0.7000000  -0.3000000   0.9000000), wk =   0.0960000
        k(   38) = (   0.6000000  -0.2000000   0.8000000), wk =   0.0960000
        k(   39) = (   0.5000000  -0.1000000   0.7000000), wk =   0.0960000
        k(   40) = (   0.4000000   0.0000000   0.6000000), wk =   0.0480000
        k(   41) = (   0.8000000  -0.2000000   1.0000000), wk =   0.0480000
        k(   42) = (   0.7000000  -0.1000000   0.9000000), wk =   0.0960000
        k(   43) = (   0.6000000   0.0000000   0.8000000), wk =   0.0480000
        k(   44) = (  -0.2000000  -1.0000000   0.0000000), wk =   0.0240000
        k(   45) = (   0.6000000  -0.2000000   1.0000000), wk =   0.0480000
        k(   46) = (   0.5000000  -0.1000000   0.9000000), wk =   0.0480000
        k(   47) = (  -0.4000000  -1.0000000   0.0000000), wk =   0.0240000

     Dense  grid:     7727 G-vectors     FFT dimensions: (  27,  27,  27)

     Estimated max dynamical RAM per process >      14.12 MB

     WARNING: libxc functional with ID  263 depends
      on external parameters: check the user_guide of
      QE if you need to modify them or to check their
      default values.

     Initial potential from superposition of free atoms

     starting charge       7.9953, renormalised to       8.0000
     Starting wfcs are    8 randomized atomic wfcs

     total cpu time spent up to now is        1.8 secs

     Self-consistent Calculation

     iteration #  1     ecut=    50.00 Ry     beta= 0.01
     Davidson diagonalization with overlap
     ethr =  1.00E-02,  avg # of iterations =  2.0

     total cpu time spent up to now is        4.5 secs

     total energy              =     -48.53469062 Ry
     estimated scf accuracy    <      17.62016763 Ry

     iteration #  2     ecut=    50.00 Ry     beta= 0.01
     Davidson diagonalization with overlap
     ethr =  1.00E-02,  avg # of iterations =  1.0

     total cpu time spent up to now is        6.6 secs

     total energy              =     -48.59756322 Ry
     estimated scf accuracy    <      17.35553745 Ry

     iteration #  3     ecut=    50.00 Ry     beta= 0.01
     Davidson diagonalization with overlap
     ethr =  1.00E-02,  avg # of iterations =  1.0

     total cpu time spent up to now is        8.7 secs

     total energy              =     -48.60004948 Ry
     estimated scf accuracy    <       0.51923448 Ry

     iteration #  4     ecut=    50.00 Ry     beta= 0.01
     Davidson diagonalization with overlap
     ethr =  6.49E-03,  avg # of iterations =  1.0

     total cpu time spent up to now is       10.9 secs

     total energy              =     -48.60042990 Ry
     estimated scf accuracy    <       0.01604184 Ry

     iteration #  5     ecut=    50.00 Ry     beta= 0.01
     Davidson diagonalization with overlap
     ethr =  2.01E-04,  avg # of iterations =  1.0

     total cpu time spent up to now is       12.9 secs

     total energy              =     -48.60125125 Ry
     estimated scf accuracy    <       0.02170407 Ry

     iteration #  6     ecut=    50.00 Ry     beta= 0.01
     Davidson diagonalization with overlap
     ethr =  2.01E-04,  avg # of iterations =  1.0

     total cpu time spent up to now is       14.8 secs

     total energy              =     -48.60286318 Ry
     estimated scf accuracy    <       0.01936991 Ry

     iteration #  7     ecut=    50.00 Ry     beta= 0.01
     Davidson diagonalization with overlap
     ethr =  2.01E-04,  avg # of iterations =  1.0

     total cpu time spent up to now is       16.8 secs

     total energy              =     -48.60336460 Ry
     estimated scf accuracy    <       0.00935309 Ry

     iteration #  8     ecut=    50.00 Ry     beta= 0.01
     Davidson diagonalization with overlap
     ethr =  1.17E-04,  avg # of iterations =  1.0

     total cpu time spent up to now is       18.7 secs

     total energy              =     -48.60335773 Ry
     estimated scf accuracy    <       0.01206152 Ry

     iteration #  9     ecut=    50.00 Ry     beta= 0.01
     Davidson diagonalization with overlap
     ethr =  1.17E-04,  avg # of iterations =  1.0

     total cpu time spent up to now is       21.0 secs

     total energy              =     -48.60337641 Ry
     estimated scf accuracy    <       0.01010469 Ry

     iteration # 10     ecut=    50.00 Ry     beta= 0.01
     Davidson diagonalization with overlap
     ethr =  1.17E-04,  avg # of iterations =  1.0

     total cpu time spent up to now is       23.3 secs

     total energy              =     -48.60341421 Ry
     estimated scf accuracy    <       0.01107220 Ry

     iteration # 11     ecut=    50.00 Ry     beta= 0.01
     Davidson diagonalization with overlap
     ethr =  1.17E-04,  avg # of iterations =  1.0

     total cpu time spent up to now is       25.0 secs

     total energy              =     -48.60303129 Ry
     estimated scf accuracy    <       0.01083836 Ry

     iteration # 12     ecut=    50.00 Ry     beta= 0.01
     Davidson diagonalization with overlap
     ethr =  1.17E-04,  avg # of iterations =  1.0

     total cpu time spent up to now is       26.5 secs

     total energy              =     -48.60321711 Ry
     estimated scf accuracy    <       0.00021233 Ry

     iteration # 13     ecut=    50.00 Ry     beta= 0.01
     Davidson diagonalization with overlap
     ethr =  2.65E-06,  avg # of iterations =  1.0

     total cpu time spent up to now is       27.6 secs

     total energy              =     -48.60322324 Ry
     estimated scf accuracy    <       0.00012112 Ry

     iteration # 14     ecut=    50.00 Ry     beta= 0.01
     Davidson diagonalization with overlap
     ethr =  1.51E-06,  avg # of iterations =  1.0

     total cpu time spent up to now is       28.6 secs

     total energy              =     -48.60322346 Ry
     estimated scf accuracy    <       0.00012284 Ry

     iteration # 15     ecut=    50.00 Ry     beta= 0.01
     Davidson diagonalization with overlap
     ethr =  1.51E-06,  avg # of iterations =  1.0

     total cpu time spent up to now is       30.2 secs

     total energy              =     -48.60322443 Ry
     estimated scf accuracy    <       0.00008226 Ry

     iteration # 16     ecut=    50.00 Ry     beta= 0.01
     Davidson diagonalization with overlap
     ethr =  1.03E-06,  avg # of iterations =  1.0

     total cpu time spent up to now is       31.6 secs

     total energy              =     -48.60322309 Ry
     estimated scf accuracy    <       0.00006831 Ry

     iteration # 17     ecut=    50.00 Ry     beta= 0.01
     Davidson diagonalization with overlap
     ethr =  8.54E-07,  avg # of iterations =  1.0

     total cpu time spent up to now is       32.1 secs

     total energy              =     -48.60322356 Ry
     estimated scf accuracy    <       0.00000112 Ry

     iteration # 18     ecut=    50.00 Ry     beta= 0.01
     Davidson diagonalization with overlap
     ethr =  1.40E-08,  avg # of iterations =  1.0

     total cpu time spent up to now is       32.6 secs

     total energy              =     -48.60322383 Ry
     estimated scf accuracy    <       0.00000305 Ry

     iteration # 19     ecut=    50.00 Ry     beta= 0.01
     Davidson diagonalization with overlap
     ethr =  1.40E-08,  avg # of iterations =  1.0

     total cpu time spent up to now is       33.2 secs

     total energy              =     -48.60322378 Ry
     estimated scf accuracy    <       0.00002027 Ry

     iteration # 20     ecut=    50.00 Ry     beta= 0.01
     Davidson diagonalization with overlap
     ethr =  1.40E-08,  avg # of iterations =  1.0

     total cpu time spent up to now is       33.7 secs

     total energy              =     -48.60322367 Ry
     estimated scf accuracy    <       0.00002038 Ry

     iteration # 21     ecut=    50.00 Ry     beta= 0.01
     Davidson diagonalization with overlap
     ethr =  1.40E-08,  avg # of iterations =  1.0

     total cpu time spent up to now is       34.2 secs

     total energy              =     -48.60322325 Ry
     estimated scf accuracy    <       0.00001276 Ry

     iteration # 22     ecut=    50.00 Ry     beta= 0.01
     Davidson diagonalization with overlap
     ethr =  1.40E-08,  avg # of iterations =  2.0

     total cpu time spent up to now is       34.9 secs

     End of self-consistent calculation

          k = 0.0000 0.0000 0.0000 (   941 PWs)   bands (ev):

   -23.5197  -2.2006  -2.2006  -2.2006

          k =-0.1000 0.1000-0.1000 (   950 PWs)   bands (ev):

   -23.5021  -2.4232  -2.2342  -2.2342

          k =-0.2000 0.2000-0.2000 (   956 PWs)   bands (ev):

   -23.4550  -2.9170  -2.2620  -2.2620

          k =-0.3000 0.3000-0.3000 (   962 PWs)   bands (ev):

   -23.3959  -3.4183  -2.3127  -2.3127

          k =-0.4000 0.4000-0.4000 (   951 PWs)   bands (ev):

   -23.3466  -3.7050  -2.3258  -2.3258

          k = 0.5000-0.5000 0.5000 (   960 PWs)   bands (ev):

   -23.3284  -3.8659  -2.3580  -2.3580

          k = 0.0000 0.2000 0.0000 (   953 PWs)   bands (ev):

   -23.4961  -2.4129  -2.2903  -2.2903

          k =-0.1000 0.3000-0.1000 (   954 PWs)   bands (ev):

   -23.4582  -2.7839  -2.3492  -2.2828

          k =-0.2000 0.4000-0.2000 (   964 PWs)   bands (ev):

   -23.4030  -3.2577  -2.4289  -2.3623

          k =-0.3000 0.5000-0.3000 (   966 PWs)   bands (ev):

   -23.3504  -3.6474  -2.4400  -2.4323

          k = 0.6000-0.4000 0.6000 (   968 PWs)   bands (ev):

   -23.3216  -3.8350  -2.5181  -2.4231

          k = 0.5000-0.3000 0.5000 (   963 PWs)   bands (ev):

   -23.3277  -3.7806  -2.5353  -2.3628

          k = 0.4000-0.2000 0.4000 (   958 PWs)   bands (ev):

   -23.3665  -3.5098  -2.5247  -2.2748

          k = 0.3000-0.1000 0.3000 (   957 PWs)   bands (ev):

   -23.4227  -3.0824  -2.4708  -2.2351

          k = 0.2000 0.0000 0.2000 (   955 PWs)   bands (ev):

   -23.4744  -2.6790  -2.3470  -2.2158

          k = 0.0000 0.4000 0.0000 (   966 PWs)   bands (ev):

   -23.4323  -2.9060  -2.4647  -2.4647

          k =-0.1000 0.5000-0.1000 (   976 PWs)   bands (ev):

   -23.3859  -3.2747  -2.5607  -2.5589

          k =-0.2000 0.6000-0.2000 (   964 PWs)   bands (ev):

   -23.3356  -3.5411  -2.6426  -2.5701

          k = 0.7000-0.3000 0.7000 (   974 PWs)   bands (ev):

   -23.3031  -3.7330  -2.8198  -2.5754

          k = 0.6000-0.2000 0.6000 (   963 PWs)   bands (ev):

   -23.2990  -3.6869  -2.9026  -2.4730

          k = 0.5000-0.1000 0.5000 (   964 PWs)   bands (ev):

   -23.3264  -3.5330  -2.8961  -2.3766

          k = 0.4000 0.0000 0.4000 (   967 PWs)   bands (ev):

   -23.3741  -3.3179  -2.7622  -2.2928

          k = 0.0000 0.6000 0.0000 (   966 PWs)   bands (ev):

   -23.3494  -3.4412  -2.6271  -2.6271

          k =-0.1000 0.7000-0.1000 (   972 PWs)   bands (ev):

   -23.3092  -3.6667  -2.7533  -2.7271

          k = 0.8000-0.2000 0.8000 (   963 PWs)   bands (ev):

   -23.2790  -3.7287  -2.9390  -2.6853

          k = 0.7000-0.1000 0.7000 (   965 PWs)   bands (ev):

   -23.2721  -3.6154  -3.2022  -2.6097

          k = 0.6000-0.0000 0.6000 (   967 PWs)   bands (ev):

   -23.2903  -3.4335  -3.3038  -2.4984

          k = 0.0000 0.8000 0.0000 (   962 PWs)   bands (ev):

   -23.2797  -3.8423  -2.7607  -2.7607

          k = 0.9000-0.1000 0.9000 (   967 PWs)   bands (ev):

   -23.2602  -3.9211  -2.8870  -2.7957

          k = 0.8000 0.0000 0.8000 (   959 PWs)   bands (ev):

   -23.2567  -3.7842  -3.0585  -2.7179

          k = 0.0000-1.0000 0.0000 (   982 PWs)   bands (ev):

   -23.2537  -4.0229  -2.8914  -2.8914

          k =-0.2000 0.4000 0.0000 (   960 PWs)   bands (ev):

   -23.4162  -3.0623  -2.5443  -2.3102

          k =-0.3000 0.5000-0.1000 (   962 PWs)   bands (ev):

   -23.3633  -3.4113  -2.6679  -2.3626

          k = 0.6000-0.4000 0.8000 (   962 PWs)   bands (ev):

   -23.3200  -3.6638  -2.7466  -2.4199

          k = 0.5000-0.3000 0.7000 (   964 PWs)   bands (ev):

   -23.3035  -3.7567  -2.7741  -2.4698

          k =-0.2000 0.6000 0.0000 (   971 PWs)   bands (ev):

   -23.3416  -3.4929  -2.7458  -2.5537

          k = 0.7000-0.3000 0.9000 (   968 PWs)   bands (ev):

   -23.3014  -3.6372  -2.9239  -2.5917

          k = 0.6000-0.2000 0.8000 (   968 PWs)   bands (ev):

   -23.2808  -3.6497  -3.0973  -2.6013

          k = 0.5000-0.1000 0.7000 (   965 PWs)   bands (ev):

   -23.2875  -3.5702  -3.1488  -2.5263

          k = 0.4000 0.0000 0.6000 (   960 PWs)   bands (ev):

   -23.3190  -3.4884  -2.9769  -2.4120

          k = 0.8000-0.2000 1.0000 (   975 PWs)   bands (ev):

   -23.2788  -3.7997  -2.9153  -2.7647

          k = 0.7000-0.1000 0.9000 (   968 PWs)   bands (ev):

   -23.2617  -3.7502  -3.0991  -2.7356

          k = 0.6000 0.0000 0.8000 (   968 PWs)   bands (ev):

   -23.2652  -3.5452  -3.3310  -2.6587

          k =-0.2000-1.0000 0.0000 (   970 PWs)   bands (ev):

   -23.2539  -3.9003  -2.9677  -2.8276

          k = 0.6000-0.2000 1.0000 (   974 PWs)   bands (ev):

   -23.2737  -3.6248  -3.2010  -2.6755

          k = 0.5000-0.1000 0.9000 (   970 PWs)   bands (ev):

   -23.2627  -3.5107  -3.3825  -2.6895

          k =-0.4000-1.0000 0.0000 (   964 PWs)   bands (ev):

   -23.2550  -3.6360  -3.2424  -2.7444

     highest occupied level (ev):    -2.2006

!    total energy              =     -48.60322346 Ry
     estimated scf accuracy    <       0.00000085 Ry

     The total energy is the sum of the following terms:
     one-electron contribution =     -29.75389558 Ry
     hartree contribution      =      19.17770144 Ry
     xc contribution           =      -9.75266486 Ry
     ewald contribution        =     -28.27436446 Ry

     convergence has been achieved in  22 iterations
     Writing meta-gga kinetic term

     Writing all to output data dir ./input_pw/LiF/14/pwscf.save/
     Writing meta-gga kinetic term
 
     init_run     :      0.84s CPU      1.69s WALL (       1 calls)
     electrons    :     20.35s CPU     33.14s WALL (       1 calls)

     Called by init_run:
     wfcinit      :      0.75s CPU      1.44s WALL (       1 calls)
     potinit      :      0.02s CPU      0.06s WALL (       1 calls)
     hinit0       :      0.07s CPU      0.16s WALL (       1 calls)

     Called by electrons:
     c_bands      :     15.74s CPU     25.59s WALL (      22 calls)
     sum_band     :      4.05s CPU      6.66s WALL (      22 calls)
     v_of_rho     :      0.26s CPU      0.47s WALL (      23 calls)
     mix_rho      :      0.31s CPU      0.45s WALL (      22 calls)

     Called by c_bands:
     init_us_2    :      0.09s CPU      0.17s WALL (    2115 calls)
     init_us_2:cp :      0.09s CPU      0.16s WALL (    2115 calls)
     cegterg      :     15.65s CPU     25.42s WALL (    1034 calls)

     Called by *egterg:
     cdiaghg      :      0.08s CPU      0.11s WALL (    2162 calls)
     h_psi        :     16.07s CPU     26.36s WALL (    2209 calls)
     g_psi        :      0.01s CPU      0.01s WALL (    1128 calls)

     Called by h_psi:
     h_psi:calbec :      0.03s CPU      0.03s WALL (    2209 calls)
     vloc_psi     :      3.96s CPU      6.46s WALL (    2209 calls)
     add_vuspsi   :      0.04s CPU      0.08s WALL (    2209 calls)
     h_psi_meta   :     12.01s CPU     19.76s WALL (    2209 calls)

     General routines
     calbec       :      0.02s CPU      0.02s WALL (    2209 calls)
     fft          :      0.06s CPU      0.16s WALL (     273 calls)
     ffts         :      0.15s CPU      0.22s WALL (     703 calls)
     fftw         :     18.03s CPU     29.74s WALL (   88120 calls)
     interpolate  :      0.00s CPU      0.00s WALL (      23 calls)
 
     Parallel routines
 
     PWSCF        :     21.24s CPU     34.91s WALL

 
   This run was terminated on:   9:44:20  10Apr2023            

=------------------------------------------------------------------------------=
   JOB DONE.
=------------------------------------------------------------------------------=
