
     Program PWSCF v.7.0 starts on  4Apr2023 at  8:56:51 

     This program is part of the open-source Quantum ESPRESSO suite
     for quantum simulation of materials; please cite
         "P. Giannozzi et al., J. Phys.:Condens. Matter 21 395502 (2009);
         "P. Giannozzi et al., J. Phys.:Condens. Matter 29 465901 (2017);
         "P. Giannozzi et al., J. Chem. Phys. 152 154105 (2020);
          URL http://www.quantum-espresso.org", 
     in publications or presentations arising from this work. More details at
     http://www.quantum-espresso.org/quote

     Parallel version (MPI), running on     1 processors

     MPI processes distributed on     1 nodes
     19623 MiB available memory on the printing compute node when the environment starts
 
     Waiting for input...
     Reading input from standard input
Warning: card &CELL ignored
Warning: card / ignored

     Current dimensions of program PWSCF are:
     Max number of different atomic species (ntypx) = 10
     Max number of k-points (npk) =  40000
     Max angular momentum in pseudopotentials (lmaxx) =  4
     file Al.SCAN.UPF2: wavefunction(s)  0D renormalized

     WARNING: the MGGA functional with ID    5 has been 
     read together with other dft terms, but it should 
     stand alone in order to work properly. The other 
     terms will be ignored.

     Subspace diagonalization in iterative solution of the eigenvalue problem:
     a serial algorithm will be used

 
     G-vector sticks info
     --------------------
     sticks:   dense  smooth     PW     G-vecs:    dense   smooth      PW
     Sum         823     823    253                15593    15593    2685
 
     Using Slab Decomposition
 


     bravais-lattice index     =            2
     lattice parameter (alat)  =       9.9778  a.u.
     unit-cell volume          =     248.3353 (a.u.)^3
     number of atoms/cell      =            1
     number of atomic types    =            1
     number of electrons       =         3.00
     number of Kohn-Sham states=            6
     kinetic-energy cutoff     =      60.0000  Ry
     charge density cutoff     =     240.0000  Ry
     scf convergence threshold =      1.0E-06
     mixing beta               =       0.0100
     number of iterations used =            8  local-TF  mixing
     Exchange-correlation= SLA  PW   SCAN SCAN
                           (   0   0   0   0   0 263 267)

     celldm(1)=   9.977754  celldm(2)=   0.000000  celldm(3)=   0.000000
     celldm(4)=   0.000000  celldm(5)=   0.000000  celldm(6)=   0.000000

     crystal axes: (cart. coord. in units of alat)
               a(1) = (  -0.500000   0.000000   0.500000 )  
               a(2) = (   0.000000   0.500000   0.500000 )  
               a(3) = (  -0.500000   0.500000   0.000000 )  

     reciprocal axes: (cart. coord. in units 2 pi/alat)
               b(1) = ( -1.000000 -1.000000  1.000000 )  
               b(2) = (  1.000000  1.000000  1.000000 )  
               b(3) = ( -1.000000  1.000000 -1.000000 )  


     PseudoPot. # 1 for Al read from file:
     ~/Documents/TA/PWDFT.jl/pseudopotentials/scan_upf/Al.SCAN.UPF2
     MD5 check sum: Not computed, couldn't open file
     Pseudo is Norm-conserving, Zval =  3.0
     Generated by new atomic code, or converted to UPF format
     Using radial grid of 1467 points,  2 beta functions with: 
                l(1) =   0
                l(2) =   1

     atomic species   valence    mass     pseudopotential
        Al             3.00    26.98154     Al( 1.00)

     48 Sym. Ops., with inversion, found



   Cartesian axes

     site n.     atom                  positions (alat units)
         1           Al  tau(   1) = (   0.0000000   0.0000000   0.0000000  )

     number of k points=    47  Gaussian smearing, width (Ry)=  0.1000
                       cart. coord. in units 2pi/alat
        k(    1) = (   0.0000000   0.0000000   0.0000000), wk =   0.0020000
        k(    2) = (  -0.1000000   0.1000000  -0.1000000), wk =   0.0160000
        k(    3) = (  -0.2000000   0.2000000  -0.2000000), wk =   0.0160000
        k(    4) = (  -0.3000000   0.3000000  -0.3000000), wk =   0.0160000
        k(    5) = (  -0.4000000   0.4000000  -0.4000000), wk =   0.0160000
        k(    6) = (   0.5000000  -0.5000000   0.5000000), wk =   0.0080000
        k(    7) = (   0.0000000   0.2000000   0.0000000), wk =   0.0120000
        k(    8) = (  -0.1000000   0.3000000  -0.1000000), wk =   0.0480000
        k(    9) = (  -0.2000000   0.4000000  -0.2000000), wk =   0.0480000
        k(   10) = (  -0.3000000   0.5000000  -0.3000000), wk =   0.0480000
        k(   11) = (   0.6000000  -0.4000000   0.6000000), wk =   0.0480000
        k(   12) = (   0.5000000  -0.3000000   0.5000000), wk =   0.0480000
        k(   13) = (   0.4000000  -0.2000000   0.4000000), wk =   0.0480000
        k(   14) = (   0.3000000  -0.1000000   0.3000000), wk =   0.0480000
        k(   15) = (   0.2000000   0.0000000   0.2000000), wk =   0.0240000
        k(   16) = (   0.0000000   0.4000000   0.0000000), wk =   0.0120000
        k(   17) = (  -0.1000000   0.5000000  -0.1000000), wk =   0.0480000
        k(   18) = (  -0.2000000   0.6000000  -0.2000000), wk =   0.0480000
        k(   19) = (   0.7000000  -0.3000000   0.7000000), wk =   0.0480000
        k(   20) = (   0.6000000  -0.2000000   0.6000000), wk =   0.0480000
        k(   21) = (   0.5000000  -0.1000000   0.5000000), wk =   0.0480000
        k(   22) = (   0.4000000   0.0000000   0.4000000), wk =   0.0240000
        k(   23) = (   0.0000000   0.6000000   0.0000000), wk =   0.0120000
        k(   24) = (  -0.1000000   0.7000000  -0.1000000), wk =   0.0480000
        k(   25) = (   0.8000000  -0.2000000   0.8000000), wk =   0.0480000
        k(   26) = (   0.7000000  -0.1000000   0.7000000), wk =   0.0480000
        k(   27) = (   0.6000000  -0.0000000   0.6000000), wk =   0.0240000
        k(   28) = (   0.0000000   0.8000000   0.0000000), wk =   0.0120000
        k(   29) = (   0.9000000  -0.1000000   0.9000000), wk =   0.0480000
        k(   30) = (   0.8000000   0.0000000   0.8000000), wk =   0.0240000
        k(   31) = (   0.0000000  -1.0000000   0.0000000), wk =   0.0060000
        k(   32) = (  -0.2000000   0.4000000   0.0000000), wk =   0.0480000
        k(   33) = (  -0.3000000   0.5000000  -0.1000000), wk =   0.0960000
        k(   34) = (   0.6000000  -0.4000000   0.8000000), wk =   0.0960000
        k(   35) = (   0.5000000  -0.3000000   0.7000000), wk =   0.0480000
        k(   36) = (  -0.2000000   0.6000000   0.0000000), wk =   0.0480000
        k(   37) = (   0.7000000  -0.3000000   0.9000000), wk =   0.0960000
        k(   38) = (   0.6000000  -0.2000000   0.8000000), wk =   0.0960000
        k(   39) = (   0.5000000  -0.1000000   0.7000000), wk =   0.0960000
        k(   40) = (   0.4000000   0.0000000   0.6000000), wk =   0.0480000
        k(   41) = (   0.8000000  -0.2000000   1.0000000), wk =   0.0480000
        k(   42) = (   0.7000000  -0.1000000   0.9000000), wk =   0.0960000
        k(   43) = (   0.6000000   0.0000000   0.8000000), wk =   0.0480000
        k(   44) = (  -0.2000000  -1.0000000   0.0000000), wk =   0.0240000
        k(   45) = (   0.6000000  -0.2000000   1.0000000), wk =   0.0480000
        k(   46) = (   0.5000000  -0.1000000   0.9000000), wk =   0.0480000
        k(   47) = (  -0.4000000  -1.0000000   0.0000000), wk =   0.0240000

     Dense  grid:    15593 G-vectors     FFT dimensions: (  36,  36,  36)

     Estimated max dynamical RAM per process >      31.80 MB

     WARNING: libxc functional with ID  263 depends
      on external parameters: check the user_guide of
      QE if you need to modify them or to check their
      default values.

     Initial potential from superposition of free atoms

     starting charge       2.9979, renormalised to       3.0000
     Starting wfcs are    9 randomized atomic wfcs

     total cpu time spent up to now is        4.9 secs

     Self-consistent Calculation

     iteration #  1     ecut=    60.00 Ry     beta= 0.01
     Davidson diagonalization with overlap
     ethr =  1.00E-02,  avg # of iterations =  2.9

     Threshold (ethr) on eigenvalues was too large:
     Diagonalizing with lowered threshold

     Davidson diagonalization with overlap
     ethr =  1.44E-04,  avg # of iterations =  2.2

     total cpu time spent up to now is       23.7 secs

     total energy              =      -4.06191610 Ry
     estimated scf accuracy    <       0.00422728 Ry

     iteration #  2     ecut=    60.00 Ry     beta= 0.01
     Davidson diagonalization with overlap
     ethr =  1.41E-04,  avg # of iterations =  1.0

     total cpu time spent up to now is       31.3 secs

     total energy              =      -4.06765075 Ry
     estimated scf accuracy    <       0.00413130 Ry

     iteration #  3     ecut=    60.00 Ry     beta= 0.01
     Davidson diagonalization with overlap
     ethr =  1.38E-04,  avg # of iterations =  2.0

     total cpu time spent up to now is       40.5 secs

     total energy              =      -4.06842220 Ry
     estimated scf accuracy    <       0.00046535 Ry

     iteration #  4     ecut=    60.00 Ry     beta= 0.01
     Davidson diagonalization with overlap
     ethr =  1.55E-05,  avg # of iterations =  2.2

     total cpu time spent up to now is       50.9 secs

     total energy              =      -4.06859171 Ry
     estimated scf accuracy    <       0.00015168 Ry

     iteration #  5     ecut=    60.00 Ry     beta= 0.01
     Davidson diagonalization with overlap
     ethr =  5.06E-06,  avg # of iterations =  1.4

     total cpu time spent up to now is       58.6 secs

     total energy              =      -4.06877570 Ry
     estimated scf accuracy    <       0.00019463 Ry

     iteration #  6     ecut=    60.00 Ry     beta= 0.01
     Davidson diagonalization with overlap
     ethr =  5.06E-06,  avg # of iterations =  1.8

     total cpu time spent up to now is       67.0 secs

     total energy              =      -4.06896465 Ry
     estimated scf accuracy    <       0.00006267 Ry

     iteration #  7     ecut=    60.00 Ry     beta= 0.01
     Davidson diagonalization with overlap
     ethr =  2.09E-06,  avg # of iterations =  2.1

     total cpu time spent up to now is       77.1 secs

     total energy              =      -4.06902124 Ry
     estimated scf accuracy    <       0.00000256 Ry

     iteration #  8     ecut=    60.00 Ry     beta= 0.01
     Davidson diagonalization with overlap
     ethr =  8.54E-08,  avg # of iterations =  1.0

     total cpu time spent up to now is       84.3 secs

     total energy              =      -4.06900269 Ry
     estimated scf accuracy    <       0.00000253 Ry

     iteration #  9     ecut=    60.00 Ry     beta= 0.01
     Davidson diagonalization with overlap
     ethr =  8.43E-08,  avg # of iterations =  2.0

     total cpu time spent up to now is       92.5 secs

     End of self-consistent calculation

          k = 0.0000 0.0000 0.0000 (  1917 PWs)   bands (ev):

    -5.4607   8.7371   8.7371   8.7371  11.4861  11.4861

          k =-0.1000 0.1000-0.1000 (  1959 PWs)   bands (ev):

    -5.2956   7.3766   8.4986   8.4987  11.3941  11.8861

          k =-0.2000 0.2000-0.2000 (  1943 PWs)   bands (ev):

    -4.8035   5.0630   8.0790   8.0790  11.0014  12.2611

          k =-0.3000 0.3000-0.3000 (  1949 PWs)   bands (ev):

    -3.9985   2.8014   7.7500   7.7500  10.6704  11.6669

          k =-0.4000 0.4000-0.4000 (  1937 PWs)   bands (ev):

    -2.9376   0.8345   7.5676   7.5676  10.4936  11.0710

          k = 0.5000-0.5000 0.5000 (  1946 PWs)   bands (ev):

    -2.1244  -0.2846   7.5126   7.5126  10.4435  10.8500

          k = 0.0000 0.2000 0.0000 (  1949 PWs)   bands (ev):

    -5.2405   7.9102   7.9102   8.0264  10.4720  12.5847

          k =-0.1000 0.3000-0.1000 (  1949 PWs)   bands (ev):

    -4.8571   5.9232   7.3571   7.8658  10.4376  12.2110

          k =-0.2000 0.4000-0.2000 (  1948 PWs)   bands (ev):

    -4.1547   3.6472   7.0063   7.3566  10.3417  11.9120

          k =-0.3000 0.5000-0.3000 (  1955 PWs)   bands (ev):

    -3.1672   1.5744   6.8387   6.8999   9.9668  11.7759

          k = 0.6000-0.4000 0.6000 (  1958 PWs)   bands (ev):

    -2.1192   0.0226   6.4106   7.0347   9.9418  11.6321

          k = 0.5000-0.3000 0.5000 (  1947 PWs)   bands (ev):

    -2.4292   0.4348   6.1460   7.3773  10.3173  11.5597

          k = 0.4000-0.2000 0.4000 (  1948 PWs)   bands (ev):

    -3.5241   2.2337   6.1048   7.8607  11.0115  11.6271

          k = 0.3000-0.1000 0.3000 (  1944 PWs)   bands (ev):

    -4.4237   4.3984   6.3235   8.3746  11.6001  12.0852

          k = 0.2000 0.0000 0.2000 (  1953 PWs)   bands (ev):

    -5.0213   6.5323   6.9601   8.7029  11.5953  11.9245

          k = 0.0000 0.4000 0.0000 (  1980 PWs)   bands (ev):

    -4.5831   6.4679   6.7009   6.7009   9.0615  10.6248

          k =-0.1000 0.5000-0.1000 (  1956 PWs)   bands (ev):

    -3.9876   4.6191   6.1949   6.2691   9.0384  10.1522

          k =-0.2000 0.6000-0.2000 (  1960 PWs)   bands (ev):

    -3.0927   2.5712   5.3722   6.1052   8.7728  11.4788

          k = 0.7000-0.3000 0.7000 (  1946 PWs)   bands (ev):

    -2.0083   0.8244   4.6667   6.2176   8.7754  12.9220

          k = 0.6000-0.2000 0.6000 (  1966 PWs)   bands (ev):

    -1.7136   0.4418   4.1906   6.5943   9.1572  13.2704

          k = 0.5000-0.1000 0.5000 (  1943 PWs)   bands (ev):

    -2.7494   1.9743   3.9949   7.1955   9.8869  13.1585

          k = 0.4000 0.0000 0.4000 (  1947 PWs)   bands (ev):

    -3.7274   3.8256   4.2834   7.9066  10.9040  12.7268

          k = 0.0000 0.6000 0.0000 (  1960 PWs)   bands (ev):

    -3.5004   4.4382   5.7484   5.7484   7.9764   8.6420

          k =-0.1000 0.7000-0.1000 (  1945 PWs)   bands (ev):

    -2.7087   3.1628   4.5705   5.4990   7.9123   9.0670

          k = 0.8000-0.2000 0.8000 (  1952 PWs)   bands (ev):

    -1.6790   1.7547   3.2785   5.5354   7.8955  10.9328

          k = 0.7000-0.1000 0.7000 (  1936 PWs)   bands (ev):

    -0.9570   0.9239   2.4738   5.8544   8.2262  13.0807

          k = 0.6000-0.0000 0.6000 (  1949 PWs)   bands (ev):

    -1.7397   1.9420   2.1929   6.4328   8.9014  14.1325

          k = 0.0000 0.8000 0.0000 (  1968 PWs)   bands (ev):

    -2.0271   2.1860   5.1586   5.1586   7.3117   7.5944

          k = 0.9000-0.1000 0.9000 (  1963 PWs)   bands (ev):

    -1.1137   1.1996   3.9126   5.1056   7.3612   8.5878

          k = 0.8000 0.0000 0.8000 (  1930 PWs)   bands (ev):

    -0.4884   0.9080   2.3968   5.3420   7.6221  10.7395

          k = 0.0000-1.0000 0.0000 (  1964 PWs)   bands (ev):

    -0.6151   0.4763   4.9598   4.9598   7.0885   7.2749

          k =-0.2000 0.4000 0.0000 (  1951 PWs)   bands (ev):

    -4.3677   5.1466   5.6522   7.7018  10.4856  11.2619

          k =-0.3000 0.5000-0.1000 (  1945 PWs)   bands (ev):

    -3.5675   3.1585   5.1281   7.0610  10.4322  11.6652

          k = 0.6000-0.4000 0.8000 (  1943 PWs)   bands (ev):

    -2.5148   1.2338   5.0291   6.4314  10.2568  11.3813

          k = 0.5000-0.3000 0.7000 (  1958 PWs)   bands (ev):

    -1.7122   0.1332   5.0437   6.1604  10.2548  11.1077

          k =-0.2000 0.6000 0.0000 (  1950 PWs)   bands (ev):

    -3.2935   3.8575   4.6435   5.7979   9.4816   9.6833

          k = 0.7000-0.3000 0.9000 (  1944 PWs)   bands (ev):

    -2.3222   2.2445   3.9678   5.1453   9.4501  11.2300

          k = 0.6000-0.2000 0.8000 (  1944 PWs)   bands (ev):

    -1.3100   0.8191   3.4862   5.0755   9.6324  12.4497

          k = 0.5000-0.1000 0.7000 (  1946 PWs)   bands (ev):

    -1.6215   1.2440   3.1404   5.4937  10.1010  12.2802

          k = 0.4000 0.0000 0.6000 (  1954 PWs)   bands (ev):

    -2.6860   2.7838   3.2450   6.2292  10.7318  12.0561

          k = 0.8000-0.2000 1.0000 (  1961 PWs)   bands (ev):

    -1.8421   2.2093   4.0237   4.4442   8.8568   8.8708

          k = 0.7000-0.1000 0.9000 (  1938 PWs)   bands (ev):

    -0.8473   1.3677   2.6598   4.3465   8.9882  10.8767

          k = 0.6000 0.0000 0.8000 (  1937 PWs)   bands (ev):

    -0.7164   1.5520   1.7221   4.7597   9.4200  13.0211

          k =-0.2000-1.0000 0.0000 (  1948 PWs)   bands (ev):

    -0.5055   0.6923   3.8154   4.0750   8.6174   8.6460

          k = 0.6000-0.2000 1.0000 (  1944 PWs)   bands (ev):

    -1.3297   1.9859   2.6107   4.1124  10.9172  11.4856

          k = 0.5000-0.1000 0.9000 (  1938 PWs)   bands (ev):

    -0.6199   1.3138   2.3863   3.7149  11.0735  12.2789

          k =-0.4000-1.0000 0.0000 (  1934 PWs)   bands (ev):

    -0.2943   1.3372   2.3979   3.1652  10.8540  11.2896

     the Fermi energy is     1.7162 ev

!    total energy              =      -4.06900320 Ry
     estimated scf accuracy    <       0.00000062 Ry
     smearing contrib. (-TS)   =      -0.04432080 Ry
     internal energy E=F+TS    =      -4.02468240 Ry

     The total energy is F=E-TS. E is the sum of the following terms:
     one-electron contribution =       1.33805496 Ry
     hartree contribution      =       0.06895694 Ry
     xc contribution           =      -1.29611841 Ry
     ewald contribution        =      -4.13557590 Ry

     convergence has been achieved in   9 iterations
     Writing meta-gga kinetic term

     Writing all to output data dir ./input_pw/Al/3/pwscf.save/
     Writing meta-gga kinetic term
 
     init_run     :      2.27s CPU      4.85s WALL (       1 calls)
     electrons    :     44.14s CPU     87.59s WALL (       1 calls)

     Called by init_run:
     wfcinit      :      2.15s CPU      4.56s WALL (       1 calls)
     potinit      :      0.03s CPU      0.09s WALL (       1 calls)
     hinit0       :      0.07s CPU      0.18s WALL (       1 calls)

     Called by electrons:
     c_bands      :     35.63s CPU     70.86s WALL (      10 calls)
     sum_band     :      8.01s CPU     15.67s WALL (      10 calls)
     v_of_rho     :      0.32s CPU      0.66s WALL (      10 calls)
     mix_rho      :      0.19s CPU      0.44s WALL (      10 calls)

     Called by c_bands:
     init_us_2    :      0.23s CPU      0.52s WALL (     987 calls)
     init_us_2:cp :      0.22s CPU      0.51s WALL (     987 calls)
     cegterg      :     35.38s CPU     70.37s WALL (     470 calls)

     Called by *egterg:
     cdiaghg      :      0.13s CPU      0.21s WALL (    1294 calls)
     h_psi        :     36.74s CPU     73.55s WALL (    1388 calls)
     g_psi        :      0.03s CPU      0.05s WALL (     871 calls)

     Called by h_psi:
     h_psi:calbec :      0.12s CPU      0.29s WALL (    1388 calls)
     vloc_psi     :      9.15s CPU     18.66s WALL (    1388 calls)
     add_vuspsi   :      0.09s CPU      0.17s WALL (    1388 calls)
     h_psi_meta   :     27.32s CPU     54.34s WALL (    1388 calls)

     General routines
     calbec       :      0.12s CPU      0.27s WALL (    1388 calls)
     fft          :      0.06s CPU      0.12s WALL (     119 calls)
     ffts         :      0.07s CPU      0.15s WALL (     124 calls)
     fftw         :     36.95s CPU     73.74s WALL (   70312 calls)
     interpolate  :      0.00s CPU      0.00s WALL (      10 calls)
 
     Parallel routines
 
     PWSCF        :     46.46s CPU   1m32.57s WALL

 
   This run was terminated on:   8:58:24   4Apr2023            

=------------------------------------------------------------------------------=
   JOB DONE.
=------------------------------------------------------------------------------=
