
     Program PWSCF v.7.0 starts on 21Mar2023 at 13:11:36 

     This program is part of the open-source Quantum ESPRESSO suite
     for quantum simulation of materials; please cite
         "P. Giannozzi et al., J. Phys.:Condens. Matter 21 395502 (2009);
         "P. Giannozzi et al., J. Phys.:Condens. Matter 29 465901 (2017);
         "P. Giannozzi et al., J. Chem. Phys. 152 154105 (2020);
          URL http://www.quantum-espresso.org", 
     in publications or presentations arising from this work. More details at
     http://www.quantum-espresso.org/quote

     Parallel version (MPI), running on     1 processors

     MPI processes distributed on     1 nodes
     24073 MiB available memory on the printing compute node when the environment starts
 
     Waiting for input...
     Reading input from standard input
Warning: card &CELL ignored
Warning: card / ignored

     Current dimensions of program PWSCF are:
     Max number of different atomic species (ntypx) = 10
     Max number of k-points (npk) =  40000
     Max angular momentum in pseudopotentials (lmaxx) =  4
     file Al.SCAN.UPF2: wavefunction(s)  0D renormalized

     WARNING: the MGGA functional with ID    5 has been 
     read together with other dft terms, but it should 
     stand alone in order to work properly. The other 
     terms will be ignored.

     Subspace diagonalization in iterative solution of the eigenvalue problem:
     a serial algorithm will be used

 
     G-vector sticks info
     --------------------
     sticks:   dense  smooth     PW     G-vecs:    dense   smooth      PW
     Sum        1345    1345    385                32647    32647    5065
 
     Using Slab Decomposition
 


     bravais-lattice index     =            2
     lattice parameter (alat)  =      12.7708  a.u.
     unit-cell volume          =     520.7043 (a.u.)^3
     number of atoms/cell      =            1
     number of atomic types    =            1
     number of electrons       =         3.00
     number of Kohn-Sham states=            6
     kinetic-energy cutoff     =      60.0000  Ry
     charge density cutoff     =     240.0000  Ry
     scf convergence threshold =      1.0E-06
     mixing beta               =       0.0100
     number of iterations used =            8  local-TF  mixing
     Exchange-correlation= SLA  PW   SCAN SCAN
                           (   0   0   0   0   0 263 267)

     celldm(1)=  12.770769  celldm(2)=   0.000000  celldm(3)=   0.000000
     celldm(4)=   0.000000  celldm(5)=   0.000000  celldm(6)=   0.000000

     crystal axes: (cart. coord. in units of alat)
               a(1) = (  -0.500000   0.000000   0.500000 )  
               a(2) = (   0.000000   0.500000   0.500000 )  
               a(3) = (  -0.500000   0.500000   0.000000 )  

     reciprocal axes: (cart. coord. in units 2 pi/alat)
               b(1) = ( -1.000000 -1.000000  1.000000 )  
               b(2) = (  1.000000  1.000000  1.000000 )  
               b(3) = ( -1.000000  1.000000 -1.000000 )  


     PseudoPot. # 1 for Al read from file:
     ~/Documents/TA/PWDFT.jl/pseudopotentials/scan_upf/Al.SCAN.UPF2
     MD5 check sum: Not computed, couldn't open file
     Pseudo is Norm-conserving, Zval =  3.0
     Generated by new atomic code, or converted to UPF format
     Using radial grid of 1467 points,  2 beta functions with: 
                l(1) =   0
                l(2) =   1

     atomic species   valence    mass     pseudopotential
        Al             3.00    26.98154     Al( 1.00)

     48 Sym. Ops., with inversion, found



   Cartesian axes

     site n.     atom                  positions (alat units)
         1           Al  tau(   1) = (   0.0000000   0.0000000   0.0000000  )

     number of k points=    47  Gaussian smearing, width (Ry)=  0.1000
                       cart. coord. in units 2pi/alat
        k(    1) = (   0.0000000   0.0000000   0.0000000), wk =   0.0020000
        k(    2) = (  -0.1000000   0.1000000  -0.1000000), wk =   0.0160000
        k(    3) = (  -0.2000000   0.2000000  -0.2000000), wk =   0.0160000
        k(    4) = (  -0.3000000   0.3000000  -0.3000000), wk =   0.0160000
        k(    5) = (  -0.4000000   0.4000000  -0.4000000), wk =   0.0160000
        k(    6) = (   0.5000000  -0.5000000   0.5000000), wk =   0.0080000
        k(    7) = (   0.0000000   0.2000000   0.0000000), wk =   0.0120000
        k(    8) = (  -0.1000000   0.3000000  -0.1000000), wk =   0.0480000
        k(    9) = (  -0.2000000   0.4000000  -0.2000000), wk =   0.0480000
        k(   10) = (  -0.3000000   0.5000000  -0.3000000), wk =   0.0480000
        k(   11) = (   0.6000000  -0.4000000   0.6000000), wk =   0.0480000
        k(   12) = (   0.5000000  -0.3000000   0.5000000), wk =   0.0480000
        k(   13) = (   0.4000000  -0.2000000   0.4000000), wk =   0.0480000
        k(   14) = (   0.3000000  -0.1000000   0.3000000), wk =   0.0480000
        k(   15) = (   0.2000000   0.0000000   0.2000000), wk =   0.0240000
        k(   16) = (   0.0000000   0.4000000   0.0000000), wk =   0.0120000
        k(   17) = (  -0.1000000   0.5000000  -0.1000000), wk =   0.0480000
        k(   18) = (  -0.2000000   0.6000000  -0.2000000), wk =   0.0480000
        k(   19) = (   0.7000000  -0.3000000   0.7000000), wk =   0.0480000
        k(   20) = (   0.6000000  -0.2000000   0.6000000), wk =   0.0480000
        k(   21) = (   0.5000000  -0.1000000   0.5000000), wk =   0.0480000
        k(   22) = (   0.4000000   0.0000000   0.4000000), wk =   0.0240000
        k(   23) = (   0.0000000   0.6000000   0.0000000), wk =   0.0120000
        k(   24) = (  -0.1000000   0.7000000  -0.1000000), wk =   0.0480000
        k(   25) = (   0.8000000  -0.2000000   0.8000000), wk =   0.0480000
        k(   26) = (   0.7000000  -0.1000000   0.7000000), wk =   0.0480000
        k(   27) = (   0.6000000  -0.0000000   0.6000000), wk =   0.0240000
        k(   28) = (   0.0000000   0.8000000   0.0000000), wk =   0.0120000
        k(   29) = (   0.9000000  -0.1000000   0.9000000), wk =   0.0480000
        k(   30) = (   0.8000000   0.0000000   0.8000000), wk =   0.0240000
        k(   31) = (   0.0000000  -1.0000000   0.0000000), wk =   0.0060000
        k(   32) = (  -0.2000000   0.4000000   0.0000000), wk =   0.0480000
        k(   33) = (  -0.3000000   0.5000000  -0.1000000), wk =   0.0960000
        k(   34) = (   0.6000000  -0.4000000   0.8000000), wk =   0.0960000
        k(   35) = (   0.5000000  -0.3000000   0.7000000), wk =   0.0480000
        k(   36) = (  -0.2000000   0.6000000   0.0000000), wk =   0.0480000
        k(   37) = (   0.7000000  -0.3000000   0.9000000), wk =   0.0960000
        k(   38) = (   0.6000000  -0.2000000   0.8000000), wk =   0.0960000
        k(   39) = (   0.5000000  -0.1000000   0.7000000), wk =   0.0960000
        k(   40) = (   0.4000000   0.0000000   0.6000000), wk =   0.0480000
        k(   41) = (   0.8000000  -0.2000000   1.0000000), wk =   0.0480000
        k(   42) = (   0.7000000  -0.1000000   0.9000000), wk =   0.0960000
        k(   43) = (   0.6000000   0.0000000   0.8000000), wk =   0.0480000
        k(   44) = (  -0.2000000  -1.0000000   0.0000000), wk =   0.0240000
        k(   45) = (   0.6000000  -0.2000000   1.0000000), wk =   0.0480000
        k(   46) = (   0.5000000  -0.1000000   0.9000000), wk =   0.0480000
        k(   47) = (  -0.4000000  -1.0000000   0.0000000), wk =   0.0240000

     Dense  grid:    32647 G-vectors     FFT dimensions: (  45,  45,  45)

     Estimated max dynamical RAM per process >      65.73 MB

     WARNING: libxc functional with ID  263 depends
      on external parameters: check the user_guide of
      QE if you need to modify them or to check their
      default values.

     Initial potential from superposition of free atoms

     starting charge       2.9979, renormalised to       3.0000
     Starting wfcs are    9 randomized atomic wfcs

     total cpu time spent up to now is       15.2 secs

     Self-consistent Calculation

     iteration #  1     ecut=    60.00 Ry     beta= 0.01
     Davidson diagonalization with overlap
     ethr =  1.00E-02,  avg # of iterations =  2.7

     Threshold (ethr) on eigenvalues was too large:
     Diagonalizing with lowered threshold

     Davidson diagonalization with overlap
     ethr =  1.16E-04,  avg # of iterations =  3.0

     total cpu time spent up to now is       78.0 secs

     total energy              =      -3.98471040 Ry
     estimated scf accuracy    <       0.00344348 Ry

     iteration #  2     ecut=    60.00 Ry     beta= 0.01
     Davidson diagonalization with overlap
     ethr =  1.15E-04,  avg # of iterations =  1.0

     total cpu time spent up to now is      103.5 secs

     total energy              =      -3.99291689 Ry
     estimated scf accuracy    <       0.00337912 Ry

     iteration #  3     ecut=    60.00 Ry     beta= 0.01
     Davidson diagonalization with overlap
     ethr =  1.13E-04,  avg # of iterations =  2.0

     total cpu time spent up to now is      136.4 secs

     total energy              =      -3.99411808 Ry
     estimated scf accuracy    <       0.00007013 Ry

     iteration #  4     ecut=    60.00 Ry     beta= 0.01
     Davidson diagonalization with overlap
     ethr =  2.34E-06,  avg # of iterations =  3.8

     total cpu time spent up to now is      175.1 secs

     total energy              =      -3.99408969 Ry
     estimated scf accuracy    <       0.00004175 Ry

     iteration #  5     ecut=    60.00 Ry     beta= 0.01
     Davidson diagonalization with overlap
     ethr =  1.39E-06,  avg # of iterations =  2.0

     total cpu time spent up to now is      207.3 secs

     total energy              =      -3.99407652 Ry
     estimated scf accuracy    <       0.00004446 Ry

     iteration #  6     ecut=    60.00 Ry     beta= 0.01
     Davidson diagonalization with overlap
     ethr =  1.39E-06,  avg # of iterations =  2.0

     total cpu time spent up to now is      239.0 secs

     total energy              =      -3.99407029 Ry
     estimated scf accuracy    <       0.00002092 Ry

     iteration #  7     ecut=    60.00 Ry     beta= 0.01
     Davidson diagonalization with overlap
     ethr =  6.97E-07,  avg # of iterations =  2.0

     total cpu time spent up to now is      271.4 secs

     End of self-consistent calculation

          k = 0.0000 0.0000 0.0000 (  4015 PWs)   bands (ev):

    -6.0455   2.1359   2.1359   2.1359   4.7727   6.4142

          k =-0.1000 0.1000-0.1000 (  4074 PWs)   bands (ev):

    -5.9731   1.6101   2.0841   2.0841   5.1096   6.2388

          k =-0.2000 0.2000-0.2000 (  4065 PWs)   bands (ev):

    -5.7654   0.5999   1.9619   1.9619   5.1109   6.6830

          k =-0.3000 0.3000-0.3000 (  4080 PWs)   bands (ev):

    -5.4590  -0.4021   1.8319   1.8319   4.8032   6.4290

          k =-0.4000 0.4000-0.4000 (  4098 PWs)   bands (ev):

    -5.1454  -1.1650   1.7396   1.7396   4.5918   6.1473

          k = 0.5000-0.5000 0.5000 (  4092 PWs)   bands (ev):

    -4.9997  -1.4647   1.7069   1.7069   4.5207   6.0419

          k = 0.0000 0.2000 0.0000 (  4083 PWs)   bands (ev):

    -5.9489   1.6624   1.9508   1.9508   5.2878   5.8774

          k =-0.1000 0.3000-0.1000 (  4071 PWs)   bands (ev):

    -5.7859   0.8945   1.7761   1.8553   5.4156   5.8845

          k =-0.2000 0.4000-0.2000 (  4066 PWs)   bands (ev):

    -5.5103  -0.0694   1.6340   1.6856   5.1222   6.1451

          k =-0.3000 0.5000-0.3000 (  4087 PWs)   bands (ev):

    -5.1906  -0.8970   1.4865   1.5670   4.9247   5.7854

          k = 0.6000-0.4000 0.6000 (  4074 PWs)   bands (ev):

    -4.9730  -1.3572   1.3293   1.5884   4.8639   5.6324

          k = 0.5000-0.3000 0.5000 (  4095 PWs)   bands (ev):

    -5.0227  -1.2569   1.2550   1.6899   4.9333   5.7072

          k = 0.4000-0.2000 0.4000 (  4090 PWs)   bands (ev):

    -5.2962  -0.6469   1.2865   1.8444   5.1141   6.0096

          k = 0.3000-0.1000 0.3000 (  4089 PWs)   bands (ev):

    -5.6128   0.2391   1.4379   2.0046   5.3965   6.3685

          k = 0.2000 0.0000 0.2000 (  4063 PWs)   bands (ev):

    -5.8553   1.1120   1.7355   2.1041   5.4985   5.9614

          k = 0.0000 0.4000 0.0000 (  4076 PWs)   bands (ev):

    -5.6712   0.7841   1.5503   1.5503   5.0824   5.3863

          k =-0.1000 0.5000-0.1000 (  4069 PWs)   bands (ev):

    -5.4395   0.1423   1.3132   1.3730   4.8446   5.1717

          k =-0.2000 0.6000-0.2000 (  4096 PWs)   bands (ev):

    -5.1431  -0.5725   0.9692   1.2916   4.5978   5.6242

          k = 0.7000-0.3000 0.7000 (  4082 PWs)   bands (ev):

    -4.8958  -1.0730   0.6495   1.3218   4.5510   6.0036

          k = 0.6000-0.2000 0.6000 (  4096 PWs)   bands (ev):

    -4.8571  -1.1360   0.4530   1.4563   4.7321   6.0858

          k = 0.5000-0.1000 0.5000 (  4090 PWs)   bands (ev):

    -5.0583  -0.7423   0.4465   1.6633   5.1290   6.1445

          k = 0.4000 0.0000 0.4000 (  4071 PWs)   bands (ev):

    -5.3548  -0.1832   0.7599   1.8786   5.6838   6.1519

          k = 0.0000 0.6000 0.0000 (  4076 PWs)   bands (ev):

    -5.2588  -0.0968   1.1568   1.1568   4.3315   4.4583

          k =-0.1000 0.7000-0.1000 (  4080 PWs)   bands (ev):

    -5.0103  -0.5322   0.8068   1.0420   4.0387   4.5725

          k = 0.8000-0.2000 0.8000 (  4091 PWs)   bands (ev):

    -4.7828  -0.8364   0.2479   1.0503   3.9937   5.3305

          k = 0.7000-0.1000 0.7000 (  4100 PWs)   bands (ev):

    -4.7014  -0.8423  -0.2134   1.1798   4.1696   6.2961

          k = 0.6000-0.0000 0.6000 (  4091 PWs)   bands (ev):

    -4.8212  -0.7091  -0.2254   1.4046   4.5617   6.9643

          k = 0.0000 0.8000 0.0000 (  4084 PWs)   bands (ev):

    -4.8292  -0.8141   0.8891   0.8891   3.5697   4.0734

          k = 0.9000-0.1000 0.9000 (  4096 PWs)   bands (ev):

    -4.6727  -0.9911   0.5186   0.8619   3.5650   4.3144

          k = 0.8000 0.0000 0.8000 (  4097 PWs)   bands (ev):

    -4.6229  -0.8875  -0.0868   0.9648   3.7809   5.2264

          k = 0.0000-1.0000 0.0000 (  4088 PWs)   bands (ev):

    -4.6250  -1.1166   0.7955   0.7955   3.3084   3.9440

          k =-0.2000 0.4000 0.0000 (  4079 PWs)   bands (ev):

    -5.5879   0.3820   1.2845   1.8057   5.4908   5.7221

          k =-0.3000 0.5000-0.1000 (  4086 PWs)   bands (ev):

    -5.2989  -0.3401   0.9430   1.6452   5.3294   5.7805

          k = 0.6000-0.4000 0.8000 (  4091 PWs)   bands (ev):

    -5.0083  -0.9821   0.7964   1.4680   5.2022   5.5038

          k = 0.5000-0.3000 0.7000 (  4082 PWs)   bands (ev):

    -4.8759  -1.2434   0.7589   1.3929   5.2062   5.3392

          k =-0.2000 0.6000 0.0000 (  4088 PWs)   bands (ev):

    -5.1961  -0.2742   0.8541   1.2504   4.7236   4.9633

          k = 0.7000-0.3000 0.9000 (  4097 PWs)   bands (ev):

    -4.9268  -0.7066   0.4504   1.0634   4.6227   5.5270

          k = 0.6000-0.2000 0.8000 (  4081 PWs)   bands (ev):

    -4.7570  -0.9551   0.1510   1.0322   4.6809   6.0313

          k = 0.5000-0.1000 0.7000 (  4088 PWs)   bands (ev):

    -4.8032  -0.8608   0.0364   1.1765   4.9141   6.0826

          k = 0.4000 0.0000 0.6000 (  4093 PWs)   bands (ev):

    -5.0292  -0.5786   0.2816   1.4244   5.2690   6.0928

          k = 0.8000-0.2000 1.0000 (  4077 PWs)   bands (ev):

    -4.7983  -0.7859   0.5658   0.7706   4.0386   4.6190

          k = 0.7000-0.1000 0.9000 (  4099 PWs)   bands (ev):

    -4.6534  -0.8274   0.0167   0.7189   4.2299   5.3467

          k = 0.6000 0.0000 0.8000 (  4093 PWs)   bands (ev):

    -4.6576  -0.5529  -0.5129   0.8873   4.5034   6.3016

          k =-0.2000-1.0000 0.0000 (  4080 PWs)   bands (ev):

    -4.6148  -1.0017   0.4658   0.5870   3.8127   4.5012

          k = 0.6000-0.2000 1.0000 (  4093 PWs)   bands (ev):

    -4.7259  -0.7082  -0.0316   0.7130   4.9432   5.8663

          k = 0.5000-0.1000 0.9000 (  4096 PWs)   bands (ev):

    -4.6411  -0.6464  -0.2690   0.5574   5.0177   6.2467

          k =-0.4000-1.0000 0.0000 (  4106 PWs)   bands (ev):

    -4.5981  -0.6650  -0.1393   0.3246   4.8157   5.7769

     the Fermi energy is    -0.9012 ev

!    total energy              =      -3.99409247 Ry
     estimated scf accuracy    <       0.00000070 Ry
     smearing contrib. (-TS)   =      -0.07295148 Ry
     internal energy E=F+TS    =      -3.92114099 Ry

     The total energy is F=E-TS. E is the sum of the following terms:
     one-electron contribution =       0.19635387 Ry
     hartree contribution      =       0.30078194 Ry
     xc contribution           =      -1.18716690 Ry
     ewald contribution        =      -3.23110990 Ry

     convergence has been achieved in   7 iterations
     Writing meta-gga kinetic term

     Writing all to output data dir ./input_pw/Al/3/pwscf.save/
     Writing meta-gga kinetic term
 
     init_run     :      7.27s CPU     15.08s WALL (       1 calls)
     electrons    :    129.58s CPU    256.23s WALL (       1 calls)

     Called by init_run:
     wfcinit      :      7.08s CPU     14.34s WALL (       1 calls)
     potinit      :      0.08s CPU      0.24s WALL (       1 calls)
     hinit0       :      0.08s CPU      0.34s WALL (       1 calls)

     Called by electrons:
     c_bands      :    105.63s CPU    209.80s WALL (       8 calls)
     sum_band     :     22.73s CPU     44.12s WALL (       8 calls)
     v_of_rho     :      0.65s CPU      1.29s WALL (       8 calls)
     mix_rho      :      0.60s CPU      1.15s WALL (       8 calls)

     Called by c_bands:
     init_us_2    :      0.44s CPU      0.88s WALL (     799 calls)
     init_us_2:cp :      0.44s CPU      0.86s WALL (     799 calls)
     cegterg      :    105.13s CPU    208.90s WALL (     376 calls)

     Called by *egterg:
     cdiaghg      :      0.17s CPU      0.40s WALL (    1198 calls)
     h_psi        :    110.21s CPU    219.10s WALL (    1292 calls)
     g_psi        :      0.07s CPU      0.11s WALL (     869 calls)

     Called by h_psi:
     h_psi:calbec :      0.35s CPU      0.73s WALL (    1292 calls)
     vloc_psi     :     27.19s CPU     54.36s WALL (    1292 calls)
     add_vuspsi   :      0.22s CPU      0.41s WALL (    1292 calls)
     h_psi_meta   :     82.32s CPU    163.33s WALL (    1292 calls)

     General routines
     calbec       :      0.34s CPU      0.73s WALL (    1292 calls)
     fft          :      0.16s CPU      0.39s WALL (      95 calls)
     ffts         :      0.21s CPU      0.39s WALL (     120 calls)
     fftw         :    101.09s CPU    201.83s WALL (   61912 calls)
     interpolate  :      0.00s CPU      0.00s WALL (       8 calls)
 
     Parallel routines
 
     PWSCF        :   2m16.92s CPU   4m31.55s WALL

 
   This run was terminated on:  13:16: 7  21Mar2023            

=------------------------------------------------------------------------------=
   JOB DONE.
=------------------------------------------------------------------------------=
