
     Program PWSCF v.7.0 starts on 21Mar2023 at 11:18: 3 

     This program is part of the open-source Quantum ESPRESSO suite
     for quantum simulation of materials; please cite
         "P. Giannozzi et al., J. Phys.:Condens. Matter 21 395502 (2009);
         "P. Giannozzi et al., J. Phys.:Condens. Matter 29 465901 (2017);
         "P. Giannozzi et al., J. Chem. Phys. 152 154105 (2020);
          URL http://www.quantum-espresso.org", 
     in publications or presentations arising from this work. More details at
     http://www.quantum-espresso.org/quote

     Parallel version (MPI), running on     1 processors

     MPI processes distributed on     1 nodes
     24531 MiB available memory on the printing compute node when the environment starts
 
     Waiting for input...
     Reading input from standard input
Warning: card &CELL ignored
Warning: card / ignored

     Current dimensions of program PWSCF are:
     Max number of different atomic species (ntypx) = 10
     Max number of k-points (npk) =  40000
     Max angular momentum in pseudopotentials (lmaxx) =  4
     file Al.SCAN.UPF2: wavefunction(s)  0D renormalized

     WARNING: the MGGA functional with ID    5 has been 
     read together with other dft terms, but it should 
     stand alone in order to work properly. The other 
     terms will be ignored.

     Subspace diagonalization in iterative solution of the eigenvalue problem:
     a serial algorithm will be used

 
     G-vector sticks info
     --------------------
     sticks:   dense  smooth     PW     G-vecs:    dense   smooth      PW
     Sum         379     379    121                 4909     4909     941
 
     Using Slab Decomposition
 


     bravais-lattice index     =            2
     lattice parameter (alat)  =       6.7787  a.u.
     unit-cell volume          =      77.8722 (a.u.)^3
     number of atoms/cell      =            1
     number of atomic types    =            1
     number of electrons       =         3.00
     number of Kohn-Sham states=            6
     kinetic-energy cutoff     =      60.0000  Ry
     charge density cutoff     =     240.0000  Ry
     scf convergence threshold =      1.0E-06
     mixing beta               =       0.0100
     number of iterations used =            8  local-TF  mixing
     Exchange-correlation= SLA  PW   SCAN SCAN
                           (   0   0   0   0   0 263 267)

     celldm(1)=   6.778718  celldm(2)=   0.000000  celldm(3)=   0.000000
     celldm(4)=   0.000000  celldm(5)=   0.000000  celldm(6)=   0.000000

     crystal axes: (cart. coord. in units of alat)
               a(1) = (  -0.500000   0.000000   0.500000 )  
               a(2) = (   0.000000   0.500000   0.500000 )  
               a(3) = (  -0.500000   0.500000   0.000000 )  

     reciprocal axes: (cart. coord. in units 2 pi/alat)
               b(1) = ( -1.000000 -1.000000  1.000000 )  
               b(2) = (  1.000000  1.000000  1.000000 )  
               b(3) = ( -1.000000  1.000000 -1.000000 )  


     PseudoPot. # 1 for Al read from file:
     ~/Documents/TA/PWDFT.jl/pseudopotentials/scan_upf/Al.SCAN.UPF2
     MD5 check sum: Not computed, couldn't open file
     Pseudo is Norm-conserving, Zval =  3.0
     Generated by new atomic code, or converted to UPF format
     Using radial grid of 1467 points,  2 beta functions with: 
                l(1) =   0
                l(2) =   1

     atomic species   valence    mass     pseudopotential
        Al             3.00    26.98154     Al( 1.00)

     48 Sym. Ops., with inversion, found



   Cartesian axes

     site n.     atom                  positions (alat units)
         1           Al  tau(   1) = (   0.0000000   0.0000000   0.0000000  )

     number of k points=    47  Gaussian smearing, width (Ry)=  0.1000
                       cart. coord. in units 2pi/alat
        k(    1) = (   0.0000000   0.0000000   0.0000000), wk =   0.0020000
        k(    2) = (  -0.1000000   0.1000000  -0.1000000), wk =   0.0160000
        k(    3) = (  -0.2000000   0.2000000  -0.2000000), wk =   0.0160000
        k(    4) = (  -0.3000000   0.3000000  -0.3000000), wk =   0.0160000
        k(    5) = (  -0.4000000   0.4000000  -0.4000000), wk =   0.0160000
        k(    6) = (   0.5000000  -0.5000000   0.5000000), wk =   0.0080000
        k(    7) = (   0.0000000   0.2000000   0.0000000), wk =   0.0120000
        k(    8) = (  -0.1000000   0.3000000  -0.1000000), wk =   0.0480000
        k(    9) = (  -0.2000000   0.4000000  -0.2000000), wk =   0.0480000
        k(   10) = (  -0.3000000   0.5000000  -0.3000000), wk =   0.0480000
        k(   11) = (   0.6000000  -0.4000000   0.6000000), wk =   0.0480000
        k(   12) = (   0.5000000  -0.3000000   0.5000000), wk =   0.0480000
        k(   13) = (   0.4000000  -0.2000000   0.4000000), wk =   0.0480000
        k(   14) = (   0.3000000  -0.1000000   0.3000000), wk =   0.0480000
        k(   15) = (   0.2000000   0.0000000   0.2000000), wk =   0.0240000
        k(   16) = (   0.0000000   0.4000000   0.0000000), wk =   0.0120000
        k(   17) = (  -0.1000000   0.5000000  -0.1000000), wk =   0.0480000
        k(   18) = (  -0.2000000   0.6000000  -0.2000000), wk =   0.0480000
        k(   19) = (   0.7000000  -0.3000000   0.7000000), wk =   0.0480000
        k(   20) = (   0.6000000  -0.2000000   0.6000000), wk =   0.0480000
        k(   21) = (   0.5000000  -0.1000000   0.5000000), wk =   0.0480000
        k(   22) = (   0.4000000   0.0000000   0.4000000), wk =   0.0240000
        k(   23) = (   0.0000000   0.6000000   0.0000000), wk =   0.0120000
        k(   24) = (  -0.1000000   0.7000000  -0.1000000), wk =   0.0480000
        k(   25) = (   0.8000000  -0.2000000   0.8000000), wk =   0.0480000
        k(   26) = (   0.7000000  -0.1000000   0.7000000), wk =   0.0480000
        k(   27) = (   0.6000000  -0.0000000   0.6000000), wk =   0.0240000
        k(   28) = (   0.0000000   0.8000000   0.0000000), wk =   0.0120000
        k(   29) = (   0.9000000  -0.1000000   0.9000000), wk =   0.0480000
        k(   30) = (   0.8000000   0.0000000   0.8000000), wk =   0.0240000
        k(   31) = (   0.0000000  -1.0000000   0.0000000), wk =   0.0060000
        k(   32) = (  -0.2000000   0.4000000   0.0000000), wk =   0.0480000
        k(   33) = (  -0.3000000   0.5000000  -0.1000000), wk =   0.0960000
        k(   34) = (   0.6000000  -0.4000000   0.8000000), wk =   0.0960000
        k(   35) = (   0.5000000  -0.3000000   0.7000000), wk =   0.0480000
        k(   36) = (  -0.2000000   0.6000000   0.0000000), wk =   0.0480000
        k(   37) = (   0.7000000  -0.3000000   0.9000000), wk =   0.0960000
        k(   38) = (   0.6000000  -0.2000000   0.8000000), wk =   0.0960000
        k(   39) = (   0.5000000  -0.1000000   0.7000000), wk =   0.0960000
        k(   40) = (   0.4000000   0.0000000   0.6000000), wk =   0.0480000
        k(   41) = (   0.8000000  -0.2000000   1.0000000), wk =   0.0480000
        k(   42) = (   0.7000000  -0.1000000   0.9000000), wk =   0.0960000
        k(   43) = (   0.6000000   0.0000000   0.8000000), wk =   0.0480000
        k(   44) = (  -0.2000000  -1.0000000   0.0000000), wk =   0.0240000
        k(   45) = (   0.6000000  -0.2000000   1.0000000), wk =   0.0480000
        k(   46) = (   0.5000000  -0.1000000   0.9000000), wk =   0.0480000
        k(   47) = (  -0.4000000  -1.0000000   0.0000000), wk =   0.0240000

     Dense  grid:     4909 G-vectors     FFT dimensions: (  24,  24,  24)

     Estimated max dynamical RAM per process >       9.97 MB

     WARNING: libxc functional with ID  263 depends
      on external parameters: check the user_guide of
      QE if you need to modify them or to check their
      default values.

     Initial potential from superposition of free atoms

     starting charge       2.9979, renormalised to       3.0000
     Starting wfcs are    9 randomized atomic wfcs

     total cpu time spent up to now is        2.3 secs

     Self-consistent Calculation

     iteration #  1     ecut=    60.00 Ry     beta= 0.01
     Davidson diagonalization with overlap
     ethr =  1.00E-02,  avg # of iterations =  5.8

     Threshold (ethr) on eigenvalues was too large:
     Diagonalizing with lowered threshold

     Davidson diagonalization with overlap
     ethr =  2.80E-04,  avg # of iterations =  1.4

     total cpu time spent up to now is       11.0 secs

     total energy              =      -4.10491250 Ry
     estimated scf accuracy    <       0.00841154 Ry

     iteration #  2     ecut=    60.00 Ry     beta= 0.01
     Davidson diagonalization with overlap
     ethr =  2.80E-04,  avg # of iterations =  1.0

     total cpu time spent up to now is       14.0 secs

     total energy              =      -4.10367891 Ry
     estimated scf accuracy    <       0.00831589 Ry

     iteration #  3     ecut=    60.00 Ry     beta= 0.01
     Davidson diagonalization with overlap
     ethr =  2.77E-04,  avg # of iterations =  1.6

     total cpu time spent up to now is       16.9 secs

     total energy              =      -4.10458062 Ry
     estimated scf accuracy    <       0.00066390 Ry

     iteration #  4     ecut=    60.00 Ry     beta= 0.01
     Davidson diagonalization with overlap
     ethr =  2.21E-05,  avg # of iterations =  2.7

     total cpu time spent up to now is       20.1 secs

     total energy              =      -4.10455387 Ry
     estimated scf accuracy    <       0.00032255 Ry

     iteration #  5     ecut=    60.00 Ry     beta= 0.01
     Davidson diagonalization with overlap
     ethr =  1.08E-05,  avg # of iterations =  1.2

     total cpu time spent up to now is       22.6 secs

     total energy              =      -4.10500236 Ry
     estimated scf accuracy    <       0.00035462 Ry

     iteration #  6     ecut=    60.00 Ry     beta= 0.01
     Davidson diagonalization with overlap
     ethr =  1.08E-05,  avg # of iterations =  2.0

     total cpu time spent up to now is       26.1 secs

     total energy              =      -4.10507895 Ry
     estimated scf accuracy    <       0.00003530 Ry

     iteration #  7     ecut=    60.00 Ry     beta= 0.01
     Davidson diagonalization with overlap
     ethr =  1.18E-06,  avg # of iterations =  1.4

     total cpu time spent up to now is       28.6 secs

     total energy              =      -4.10507913 Ry
     estimated scf accuracy    <       0.00001193 Ry

     iteration #  8     ecut=    60.00 Ry     beta= 0.01
     Davidson diagonalization with overlap
     ethr =  3.98E-07,  avg # of iterations =  1.0

     total cpu time spent up to now is       30.9 secs

     total energy              =      -4.10506297 Ry
     estimated scf accuracy    <       0.00001114 Ry

     iteration #  9     ecut=    60.00 Ry     beta= 0.01
     Davidson diagonalization with overlap
     ethr =  3.71E-07,  avg # of iterations =  2.0

     total cpu time spent up to now is       33.8 secs

     End of self-consistent calculation

          k = 0.0000 0.0000 0.0000 (   609 PWs)   bands (ev):

    -2.2857  27.3339  27.3339  27.3339  32.3876  32.3876

          k =-0.1000 0.1000-0.1000 (   606 PWs)   bands (ev):

    -1.9256  23.7587  27.0004  27.0004  31.8472  33.2451

          k =-0.2000 0.2000-0.2000 (   592 PWs)   bands (ev):

    -0.8534  18.8356  26.4314  26.4314  30.9790  32.5504

          k =-0.3000 0.3000-0.3000 (   607 PWs)   bands (ev):

     0.9051  14.2252  26.0472  26.0472  30.4279  30.5056

          k =-0.4000 0.4000-0.4000 (   604 PWs)   bands (ev):

     3.2984  10.1102  25.9274  25.9274  29.1033  29.1033

          k = 0.5000-0.5000 0.5000 (   610 PWs)   bands (ev):

     5.7186   7.1158  25.9373  25.9373  28.5797  28.5797

          k = 0.0000 0.2000 0.0000 (   605 PWs)   bands (ev):

    -1.8058  24.7811  25.6459  25.6460  30.6468  32.8788

          k =-0.1000 0.3000-0.1000 (   600 PWs)   bands (ev):

    -0.9718  20.5627  24.6317  25.7448  29.1541  31.9052

          k =-0.2000 0.4000-0.2000 (   602 PWs)   bands (ev):

     0.5565  15.9281  24.0664  25.0232  27.6344  33.6998

          k =-0.3000 0.5000-0.3000 (   606 PWs)   bands (ev):

     2.7389  11.6782  23.8653  23.9865  26.9723  32.0212

          k = 0.6000-0.4000 0.6000 (   610 PWs)   bands (ev):

     5.4251   8.0457  22.7882  24.4161  27.2235  30.6990

          k = 0.5000-0.3000 0.5000 (   609 PWs)   bands (ev):

     4.5083   9.1489  22.1110  25.3756  28.1807  29.8563

          k = 0.4000-0.2000 0.4000 (   608 PWs)   bands (ev):

     1.9426  13.0245  21.9547  26.8569  29.4588  29.7203

          k = 0.3000-0.1000 0.3000 (   607 PWs)   bands (ev):

    -0.0282  17.3627  22.4003  28.4646  29.6970  31.6984

          k = 0.2000 0.0000 0.2000 (   604 PWs)   bands (ev):

    -1.3283  21.5297  23.8830  28.2792  31.7661  33.0903

          k = 0.0000 0.4000 0.0000 (   604 PWs)   bands (ev):

    -0.3807  21.6008  23.3353  23.3353  25.2783  29.7932

          k =-0.1000 0.5000-0.1000 (   609 PWs)   bands (ev):

     0.9057  17.9821  22.1970  22.5605  24.3066  29.9039

          k =-0.2000 0.6000-0.2000 (   617 PWs)   bands (ev):

     2.8540  13.7644  20.2538  22.3111  24.5493  32.3562

          k = 0.7000-0.3000 0.7000 (   612 PWs)   bands (ev):

     5.3850   9.9591  18.7543  22.5952  24.9795  34.2926

          k = 0.6000-0.2000 0.6000 (   615 PWs)   bands (ev):

     6.2944   8.8443  17.8129  23.4277  25.9439  33.2021

          k = 0.5000-0.1000 0.5000 (   614 PWs)   bands (ev):

     3.6412  12.2881  17.5761  24.8253  27.4805  32.3773

          k = 0.4000 0.0000 0.4000 (   602 PWs)   bands (ev):

     1.4836  15.6018  18.7041  26.7873  29.5094  31.0996

          k = 0.0000 0.6000 0.0000 (   612 PWs)   bands (ev):

     1.9438  19.2231  19.3982  21.5900  21.5900  27.8071

          k =-0.1000 0.7000-0.1000 (   615 PWs)   bands (ev):

     3.6413  16.0002  17.1408  21.1558  22.3000  28.3982

          k = 0.8000-0.2000 0.8000 (   616 PWs)   bands (ev):

     5.9338  12.3161  15.3078  21.2578  23.0472  31.3012

          k = 0.7000-0.1000 0.7000 (   612 PWs)   bands (ev):

     8.2861   9.3757  14.1807  21.9015  24.0123  35.2884

          k = 0.6000-0.0000 0.6000 (   614 PWs)   bands (ev):

     5.9468  11.3690  14.4865  23.0941  25.4942  35.7281

          k = 0.0000 0.8000 0.0000 (   620 PWs)   bands (ev):

     5.0695  14.1098  17.7788  20.5371  20.5371  26.5281

          k = 0.9000-0.1000 0.9000 (   614 PWs)   bands (ev):

     7.0345  11.9615  15.5044  20.4542  21.4060  27.5986

          k = 0.8000 0.0000 0.8000 (   614 PWs)   bands (ev):

     8.8493  10.6741  12.9028  20.9080  22.5578  30.9359

          k = 0.0000-1.0000 0.0000 (   620 PWs)   bands (ev):

     8.0135  10.4469  17.2955  20.1867  20.1867  26.0838

          k =-0.2000 0.4000 0.0000 (   609 PWs)   bands (ev):

     0.0892  18.5535  21.3220  26.3850  27.0958  31.6045

          k =-0.3000 0.5000-0.1000 (   608 PWs)   bands (ev):

     1.8286  14.8142  19.9244  24.1718  28.0559  32.5131

          k = 0.6000-0.4000 0.8000 (   606 PWs)   bands (ev):

     4.1933  10.8852  19.6384  22.5863  28.5917  30.7558

          k = 0.5000-0.3000 0.7000 (   606 PWs)   bands (ev):

     6.5772   7.9593  19.6623  21.9534  29.2185  29.6570

          k =-0.2000 0.6000 0.0000 (   612 PWs)   bands (ev):

     2.4005  16.3888  18.6255  21.2518  25.2709  29.8950

          k = 0.7000-0.3000 0.9000 (   612 PWs)   bands (ev):

     4.5295  13.0571  17.0853  19.9008  26.5523  32.0773

          k = 0.6000-0.2000 0.8000 (   612 PWs)   bands (ev):

     7.1398   9.6336  16.1778  19.7259  27.4876  33.3246

          k = 0.5000-0.1000 0.7000 (   611 PWs)   bands (ev):

     6.2560  10.5912  15.6894  20.5525  28.7357  32.1767

          k = 0.4000 0.0000 0.6000 (   612 PWs)   bands (ev):

     3.7542  13.4742  16.4825  22.1099  30.4491  30.6431

          k = 0.8000-0.2000 1.0000 (   617 PWs)   bands (ev):

     5.5057  14.3207  15.0797  19.0907  24.1080  28.7678

          k = 0.7000-0.1000 0.9000 (   619 PWs)   bands (ev):

     7.8664  11.7594  13.3456  18.4691  25.7571  31.3688

          k = 0.6000 0.0000 0.8000 (   616 PWs)   bands (ev):

     8.8151  10.1049  13.0751  19.1137  27.0956  35.3575

          k =-0.2000-1.0000 0.0000 (   612 PWs)   bands (ev):

     8.4309  10.7861  14.6420  18.5771  23.7168  28.3776

          k = 0.6000-0.2000 1.0000 (   613 PWs)   bands (ev):

     6.7922  12.1954  14.2441  17.8945  29.5806  32.8877

          k = 0.5000-0.1000 0.9000 (   618 PWs)   bands (ev):

     9.1350  10.0310  13.6148  17.1738  31.4885  31.5142

          k =-0.4000-1.0000 0.0000 (   610 PWs)   bands (ev):

     9.6838  11.5194  11.7690  16.5682  29.1978  32.6724

     the Fermi energy is    12.0440 ev

!    total energy              =      -4.10507389 Ry
     estimated scf accuracy    <       0.00000027 Ry
     smearing contrib. (-TS)   =      -0.02062175 Ry
     internal energy E=F+TS    =      -4.08445214 Ry

     The total energy is F=E-TS. E is the sum of the following terms:
     one-electron contribution =       3.77201220 Ry
     hartree contribution      =       0.01760382 Ry
     xc contribution           =      -1.78681666 Ry
     ewald contribution        =      -6.08725150 Ry

     convergence has been achieved in   9 iterations
     Writing meta-gga kinetic term

     Writing all to output data dir ./input_pw/Al/3/pwscf.save/
     Writing meta-gga kinetic term
 
     init_run     :      0.65s CPU      2.19s WALL (       1 calls)
     electrons    :     11.44s CPU     31.48s WALL (       1 calls)

     Called by init_run:
     wfcinit      :      0.57s CPU      1.85s WALL (       1 calls)
     potinit      :      0.01s CPU      0.09s WALL (       1 calls)
     hinit0       :      0.07s CPU      0.21s WALL (       1 calls)

     Called by electrons:
     c_bands      :      9.32s CPU     25.72s WALL (      10 calls)
     sum_band     :      2.01s CPU      5.45s WALL (      10 calls)
     v_of_rho     :      0.08s CPU      0.26s WALL (      10 calls)
     mix_rho      :      0.04s CPU      0.14s WALL (      10 calls)

     Called by c_bands:
     init_us_2    :      0.07s CPU      0.24s WALL (     987 calls)
     init_us_2:cp :      0.07s CPU      0.24s WALL (     987 calls)
     cegterg      :      9.24s CPU     25.48s WALL (     470 calls)

     Called by *egterg:
     cdiaghg      :      0.09s CPU      0.13s WALL (    1368 calls)
     h_psi        :      9.52s CPU     26.85s WALL (    1462 calls)
     g_psi        :      0.01s CPU      0.01s WALL (     945 calls)

     Called by h_psi:
     h_psi:calbec :      0.03s CPU      0.07s WALL (    1462 calls)
     vloc_psi     :      2.35s CPU      6.86s WALL (    1462 calls)
     add_vuspsi   :      0.03s CPU      0.08s WALL (    1462 calls)
     h_psi_meta   :      7.09s CPU     19.80s WALL (    1462 calls)

     General routines
     calbec       :      0.02s CPU      0.07s WALL (    1462 calls)
     fft          :      0.02s CPU      0.11s WALL (     119 calls)
     ffts         :      0.02s CPU      0.10s WALL (     130 calls)
     fftw         :     10.21s CPU     28.44s WALL (   69440 calls)
     interpolate  :      0.00s CPU      0.00s WALL (      10 calls)
 
     Parallel routines
 
     PWSCF        :     12.11s CPU     33.83s WALL

 
   This run was terminated on:  11:18:37  21Mar2023            

=------------------------------------------------------------------------------=
   JOB DONE.
=------------------------------------------------------------------------------=
