
     Program PWSCF v.7.0 starts on 29Mar2023 at 11:31: 6 

     This program is part of the open-source Quantum ESPRESSO suite
     for quantum simulation of materials; please cite
         "P. Giannozzi et al., J. Phys.:Condens. Matter 21 395502 (2009);
         "P. Giannozzi et al., J. Phys.:Condens. Matter 29 465901 (2017);
         "P. Giannozzi et al., J. Chem. Phys. 152 154105 (2020);
          URL http://www.quantum-espresso.org", 
     in publications or presentations arising from this work. More details at
     http://www.quantum-espresso.org/quote

     Parallel version (MPI), running on     1 processors

     MPI processes distributed on     1 nodes
     23163 MiB available memory on the printing compute node when the environment starts
 
     Waiting for input...
     Reading input from standard input
Warning: card &CELL ignored
Warning: card / ignored

     Current dimensions of program PWSCF are:
     Max number of different atomic species (ntypx) = 10
     Max number of k-points (npk) =  40000
     Max angular momentum in pseudopotentials (lmaxx) =  4
     file Si.SCAN.UPF2: wavefunction(s)  0D renormalized

     WARNING: the MGGA functional with ID    5 has been 
     read together with other dft terms, but it should 
     stand alone in order to work properly. The other 
     terms will be ignored.

     Subspace diagonalization in iterative solution of the eigenvalue problem:
     a serial algorithm will be used

 
     G-vector sticks info
     --------------------
     sticks:   dense  smooth     PW     G-vecs:    dense   smooth      PW
     Sum         925     925    283                18499    18499    3119
 
     Using Slab Decomposition
 


     bravais-lattice index     =            2
     lattice parameter (alat)  =      11.5751  a.u.
     unit-cell volume          =     387.7166 (a.u.)^3
     number of atoms/cell      =            2
     number of atomic types    =            1
     number of electrons       =         8.00
     number of Kohn-Sham states=            4
     kinetic-energy cutoff     =      50.0000  Ry
     charge density cutoff     =     200.0000  Ry
     scf convergence threshold =      1.0E-06
     mixing beta               =       0.0100
     number of iterations used =            8  local-TF  mixing
     Exchange-correlation= SLA  PW   SCAN SCAN
                           (   0   0   0   0   0 263 267)

     celldm(1)=  11.575102  celldm(2)=   0.000000  celldm(3)=   0.000000
     celldm(4)=   0.000000  celldm(5)=   0.000000  celldm(6)=   0.000000

     crystal axes: (cart. coord. in units of alat)
               a(1) = (  -0.500000   0.000000   0.500000 )  
               a(2) = (   0.000000   0.500000   0.500000 )  
               a(3) = (  -0.500000   0.500000   0.000000 )  

     reciprocal axes: (cart. coord. in units 2 pi/alat)
               b(1) = ( -1.000000 -1.000000  1.000000 )  
               b(2) = (  1.000000  1.000000  1.000000 )  
               b(3) = ( -1.000000  1.000000 -1.000000 )  


     PseudoPot. # 1 for Si read from file:
     ~/Documents/TA/PWDFT.jl/pseudopotentials/scan_upf/Si.SCAN.UPF2
     MD5 check sum: Not computed, couldn't open file
     Pseudo is Norm-conserving, Zval =  4.0
     Generated by new atomic code, or converted to UPF format
     Using radial grid of 1475 points,  2 beta functions with: 
                l(1) =   0
                l(2) =   1

     atomic species   valence    mass     pseudopotential
        Si             4.00    28.08550     Si( 1.00)

     48 Sym. Ops., with inversion, found (24 have fractional translation)



   Cartesian axes

     site n.     atom                  positions (alat units)
         1           Si  tau(   1) = (   0.0000000   0.0000000   0.0000000  )
         2           Si  tau(   2) = (   0.2500000   0.2500000   0.2500000  )

     number of k points=    47
                       cart. coord. in units 2pi/alat
        k(    1) = (   0.0000000   0.0000000   0.0000000), wk =   0.0020000
        k(    2) = (  -0.1000000   0.1000000  -0.1000000), wk =   0.0160000
        k(    3) = (  -0.2000000   0.2000000  -0.2000000), wk =   0.0160000
        k(    4) = (  -0.3000000   0.3000000  -0.3000000), wk =   0.0160000
        k(    5) = (  -0.4000000   0.4000000  -0.4000000), wk =   0.0160000
        k(    6) = (   0.5000000  -0.5000000   0.5000000), wk =   0.0080000
        k(    7) = (   0.0000000   0.2000000   0.0000000), wk =   0.0120000
        k(    8) = (  -0.1000000   0.3000000  -0.1000000), wk =   0.0480000
        k(    9) = (  -0.2000000   0.4000000  -0.2000000), wk =   0.0480000
        k(   10) = (  -0.3000000   0.5000000  -0.3000000), wk =   0.0480000
        k(   11) = (   0.6000000  -0.4000000   0.6000000), wk =   0.0480000
        k(   12) = (   0.5000000  -0.3000000   0.5000000), wk =   0.0480000
        k(   13) = (   0.4000000  -0.2000000   0.4000000), wk =   0.0480000
        k(   14) = (   0.3000000  -0.1000000   0.3000000), wk =   0.0480000
        k(   15) = (   0.2000000   0.0000000   0.2000000), wk =   0.0240000
        k(   16) = (   0.0000000   0.4000000   0.0000000), wk =   0.0120000
        k(   17) = (  -0.1000000   0.5000000  -0.1000000), wk =   0.0480000
        k(   18) = (  -0.2000000   0.6000000  -0.2000000), wk =   0.0480000
        k(   19) = (   0.7000000  -0.3000000   0.7000000), wk =   0.0480000
        k(   20) = (   0.6000000  -0.2000000   0.6000000), wk =   0.0480000
        k(   21) = (   0.5000000  -0.1000000   0.5000000), wk =   0.0480000
        k(   22) = (   0.4000000   0.0000000   0.4000000), wk =   0.0240000
        k(   23) = (   0.0000000   0.6000000   0.0000000), wk =   0.0120000
        k(   24) = (  -0.1000000   0.7000000  -0.1000000), wk =   0.0480000
        k(   25) = (   0.8000000  -0.2000000   0.8000000), wk =   0.0480000
        k(   26) = (   0.7000000  -0.1000000   0.7000000), wk =   0.0480000
        k(   27) = (   0.6000000  -0.0000000   0.6000000), wk =   0.0240000
        k(   28) = (   0.0000000   0.8000000   0.0000000), wk =   0.0120000
        k(   29) = (   0.9000000  -0.1000000   0.9000000), wk =   0.0480000
        k(   30) = (   0.8000000   0.0000000   0.8000000), wk =   0.0240000
        k(   31) = (   0.0000000  -1.0000000   0.0000000), wk =   0.0060000
        k(   32) = (  -0.2000000   0.4000000   0.0000000), wk =   0.0480000
        k(   33) = (  -0.3000000   0.5000000  -0.1000000), wk =   0.0960000
        k(   34) = (   0.6000000  -0.4000000   0.8000000), wk =   0.0960000
        k(   35) = (   0.5000000  -0.3000000   0.7000000), wk =   0.0480000
        k(   36) = (  -0.2000000   0.6000000   0.0000000), wk =   0.0480000
        k(   37) = (   0.7000000  -0.3000000   0.9000000), wk =   0.0960000
        k(   38) = (   0.6000000  -0.2000000   0.8000000), wk =   0.0960000
        k(   39) = (   0.5000000  -0.1000000   0.7000000), wk =   0.0960000
        k(   40) = (   0.4000000   0.0000000   0.6000000), wk =   0.0480000
        k(   41) = (   0.8000000  -0.2000000   1.0000000), wk =   0.0480000
        k(   42) = (   0.7000000  -0.1000000   0.9000000), wk =   0.0960000
        k(   43) = (   0.6000000   0.0000000   0.8000000), wk =   0.0480000
        k(   44) = (  -0.2000000  -1.0000000   0.0000000), wk =   0.0240000
        k(   45) = (   0.6000000  -0.2000000   1.0000000), wk =   0.0480000
        k(   46) = (   0.5000000  -0.1000000   0.9000000), wk =   0.0480000
        k(   47) = (  -0.4000000  -1.0000000   0.0000000), wk =   0.0240000

     Dense  grid:    18499 G-vectors     FFT dimensions: (  40,  40,  40)

     Estimated max dynamical RAM per process >      35.45 MB

     WARNING: libxc functional with ID  263 depends
      on external parameters: check the user_guide of
      QE if you need to modify them or to check their
      default values.

     Initial potential from superposition of free atoms

     starting charge       7.9990, renormalised to       8.0000
     Starting wfcs are   18 randomized atomic wfcs

     total cpu time spent up to now is       12.0 secs

     Self-consistent Calculation

     iteration #  1     ecut=    50.00 Ry     beta= 0.01
     Davidson diagonalization with overlap
     ethr =  1.00E-02,  avg # of iterations =  1.3

     Threshold (ethr) on eigenvalues was too large:
     Diagonalizing with lowered threshold

     Davidson diagonalization with overlap
     ethr =  4.57E-04,  avg # of iterations =  2.0

     total cpu time spent up to now is       27.4 secs

     total energy              =     -15.61066170 Ry
     estimated scf accuracy    <       0.03885127 Ry

     iteration #  2     ecut=    50.00 Ry     beta= 0.01
     Davidson diagonalization with overlap
     ethr =  4.86E-04,  avg # of iterations =  1.0

     total cpu time spent up to now is       33.9 secs

     total energy              =     -15.60737234 Ry
     estimated scf accuracy    <       0.03890426 Ry

     iteration #  3     ecut=    50.00 Ry     beta= 0.01
     Davidson diagonalization with overlap
     ethr =  4.86E-04,  avg # of iterations =  1.0

     total cpu time spent up to now is       39.7 secs

     total energy              =     -15.65311151 Ry
     estimated scf accuracy    <       0.04529645 Ry

     iteration #  4     ecut=    50.00 Ry     beta= 0.01
     Davidson diagonalization with overlap
     ethr =  4.86E-04,  avg # of iterations =  1.0

     total cpu time spent up to now is       45.0 secs

     total energy              =     -15.65451588 Ry
     estimated scf accuracy    <       0.00455021 Ry

     iteration #  5     ecut=    50.00 Ry     beta= 0.01
     Davidson diagonalization with overlap
     ethr =  5.69E-05,  avg # of iterations =  2.0

     total cpu time spent up to now is       49.3 secs

     total energy              =     -15.65528601 Ry
     estimated scf accuracy    <       0.00320268 Ry

     iteration #  6     ecut=    50.00 Ry     beta= 0.01
     Davidson diagonalization with overlap
     ethr =  4.00E-05,  avg # of iterations =  1.0

     total cpu time spent up to now is       52.7 secs

     total energy              =     -15.65520872 Ry
     estimated scf accuracy    <       0.00487267 Ry

     iteration #  7     ecut=    50.00 Ry     beta= 0.01
     Davidson diagonalization with overlap
     ethr =  4.00E-05,  avg # of iterations =  2.0

     total cpu time spent up to now is       56.7 secs

     total energy              =     -15.65559777 Ry
     estimated scf accuracy    <       0.00039326 Ry

     iteration #  8     ecut=    50.00 Ry     beta= 0.01
     Davidson diagonalization with overlap
     ethr =  4.92E-06,  avg # of iterations =  2.3

     total cpu time spent up to now is       61.6 secs

     total energy              =     -15.65570921 Ry
     estimated scf accuracy    <       0.00004867 Ry

     iteration #  9     ecut=    50.00 Ry     beta= 0.01
     Davidson diagonalization with overlap
     ethr =  6.08E-07,  avg # of iterations =  1.7

     total cpu time spent up to now is       65.5 secs

     total energy              =     -15.65575563 Ry
     estimated scf accuracy    <       0.00004615 Ry

     iteration # 10     ecut=    50.00 Ry     beta= 0.01
     Davidson diagonalization with overlap
     ethr =  5.77E-07,  avg # of iterations =  1.4

     total cpu time spent up to now is       69.4 secs

     total energy              =     -15.65578057 Ry
     estimated scf accuracy    <       0.00002516 Ry

     iteration # 11     ecut=    50.00 Ry     beta= 0.01
     Davidson diagonalization with overlap
     ethr =  3.14E-07,  avg # of iterations =  2.4

     total cpu time spent up to now is       72.5 secs

     total energy              =     -15.65578945 Ry
     estimated scf accuracy    <       0.00000124 Ry

     iteration # 12     ecut=    50.00 Ry     beta= 0.01
     Davidson diagonalization with overlap
     ethr =  1.55E-08,  avg # of iterations =  2.9

     total cpu time spent up to now is       74.5 secs

     End of self-consistent calculation

          k = 0.0000 0.0000 0.0000 (  2277 PWs)   bands (ev):

    -7.3831   2.8431   2.8431   2.8431

          k =-0.1000 0.1000-0.1000 (  2307 PWs)   bands (ev):

    -7.2833   1.4727   2.7079   2.7079

          k =-0.2000 0.2000-0.2000 (  2289 PWs)   bands (ev):

    -6.9911  -0.0472   2.4255   2.4255

          k =-0.3000 0.3000-0.3000 (  2319 PWs)   bands (ev):

    -6.5358  -1.4308   2.1583   2.1583

          k =-0.4000 0.4000-0.4000 (  2334 PWs)   bands (ev):

    -6.0133  -2.5268   1.9812   1.9812

          k = 0.5000-0.5000 0.5000 (  2332 PWs)   bands (ev):

    -5.7296  -3.0041   1.9201   1.9201

          k = 0.0000 0.2000 0.0000 (  2313 PWs)   bands (ev):

    -7.2497   1.3953   2.4694   2.4694

          k =-0.1000 0.3000-0.1000 (  2303 PWs)   bands (ev):

    -7.0200   0.2488   2.1517   2.1868

          k =-0.2000 0.4000-0.2000 (  2315 PWs)   bands (ev):

    -6.6137  -1.0732   1.8282   1.8959

          k =-0.3000 0.5000-0.3000 (  2319 PWs)   bands (ev):

    -6.0936  -2.2383   1.5016   1.7609

          k = 0.6000-0.4000 0.6000 (  2324 PWs)   bands (ev):

    -5.6747  -2.9597   1.2867   1.7632

          k = 0.5000-0.3000 0.5000 (  2316 PWs)   bands (ev):

    -5.7788  -2.7932   1.2164   1.8975

          k = 0.4000-0.2000 0.4000 (  2321 PWs)   bands (ev):

    -6.2743  -1.8769   1.3093   2.1409

          k = 0.3000-0.1000 0.3000 (  2306 PWs)   bands (ev):

    -6.7684  -0.6483   1.5843   2.4422

          k = 0.2000 0.0000 0.2000 (  2309 PWs)   bands (ev):

    -7.1188   0.6058   2.0842   2.6891

          k = 0.0000 0.4000 0.0000 (  2285 PWs)   bands (ev):

    -6.8528  -0.1395   1.8097   1.8097

          k =-0.1000 0.5000-0.1000 (  2314 PWs)   bands (ev):

    -6.5013  -1.0725   1.4041   1.5400

          k =-0.2000 0.6000-0.2000 (  2319 PWs)   bands (ev):

    -6.0053  -2.1035   0.9100   1.4033

          k = 0.7000-0.3000 0.7000 (  2319 PWs)   bands (ev):

    -5.5044  -2.9217   0.5190   1.4187

          k = 0.6000-0.2000 0.6000 (  2308 PWs)   bands (ev):

    -5.4133  -3.0516   0.3201   1.5812

          k = 0.5000-0.1000 0.5000 (  2316 PWs)   bands (ev):

    -5.8512  -2.3828   0.3717   1.8623

          k = 0.4000 0.0000 0.4000 (  2303 PWs)   bands (ev):

    -6.3696  -1.4605   0.7655   2.1952

          k = 0.0000 0.6000 0.0000 (  2305 PWs)   bands (ev):

    -6.2036  -1.6070   1.2447   1.2447

          k =-0.1000 0.7000-0.1000 (  2327 PWs)   bands (ev):

    -5.7445  -2.3847   0.8243   1.0818

          k = 0.8000-0.2000 0.8000 (  2324 PWs)   bands (ev):

    -5.2076  -3.1283   0.2667   1.0764

          k = 0.7000-0.1000 0.7000 (  2307 PWs)   bands (ev):

    -4.9485  -3.4372  -0.1058   1.2280

          k = 0.6000-0.0000 0.6000 (  2315 PWs)   bands (ev):

    -5.3278  -2.9900  -0.1144   1.5116

          k = 0.0000 0.8000 0.0000 (  2313 PWs)   bands (ev):

    -5.3215  -2.9838   0.8834   0.8834

          k = 0.9000-0.1000 0.9000 (  2312 PWs)   bands (ev):

    -4.7796  -3.6349   0.5256   0.8421

          k = 0.8000 0.0000 0.8000 (  2324 PWs)   bands (ev):

    -4.4865  -3.9227   0.0417   0.9632

          k = 0.0000-1.0000 0.0000 (  2298 PWs)   bands (ev):

    -4.2357  -4.2357   0.7600   0.7600

          k =-0.2000 0.4000 0.0000 (  2301 PWs)   bands (ev):

    -6.7303  -0.5987   1.4191   2.1043

          k =-0.3000 0.5000-0.1000 (  2319 PWs)   bands (ev):

    -6.2771  -1.6570   0.9266   1.8481

          k = 0.6000-0.4000 0.8000 (  2317 PWs)   bands (ev):

    -5.7504  -2.6220   0.6753   1.6136

          k = 0.5000-0.3000 0.7000 (  2316 PWs)   bands (ev):

    -5.4569  -3.0718   0.5996   1.5234

          k =-0.2000 0.6000 0.0000 (  2315 PWs)   bands (ev):

    -6.0979  -1.8363   0.8751   1.3535

          k = 0.7000-0.3000 0.9000 (  2312 PWs)   bands (ev):

    -5.5743  -2.6640   0.4149   1.1426

          k = 0.6000-0.2000 0.8000 (  2323 PWs)   bands (ev):

    -5.1388  -3.2502   0.1069   1.1045

          k = 0.5000-0.1000 0.7000 (  2313 PWs)   bands (ev):

    -5.2775  -3.0719   0.0282   1.2651

          k = 0.4000 0.0000 0.6000 (  2319 PWs)   bands (ev):

    -5.7930  -2.3710   0.2750   1.5612

          k = 0.8000-0.2000 1.0000 (  2325 PWs)   bands (ev):

    -5.2465  -3.0584   0.5682   0.8055

          k = 0.7000-0.1000 0.9000 (  2312 PWs)   bands (ev):

    -4.7240  -3.6515   0.1313   0.7425

          k = 0.6000 0.0000 0.8000 (  2307 PWs)   bands (ev):

    -4.7676  -3.5948  -0.1391   0.9303

          k =-0.2000-1.0000 0.0000 (  2324 PWs)   bands (ev):

    -4.2153  -4.2153   0.5398   0.5398

          k = 0.6000-0.2000 1.0000 (  2312 PWs)   bands (ev):

    -5.0425  -3.2783   0.0816   0.7776

          k = 0.5000-0.1000 0.9000 (  2304 PWs)   bands (ev):

    -4.6866  -3.6655  -0.0168   0.6107

          k =-0.4000-1.0000 0.0000 (  2310 PWs)   bands (ev):

    -4.1812  -4.1812   0.2461   0.2461

     highest occupied level (ev):     2.8431

!    total energy              =     -15.65578892 Ry
     estimated scf accuracy    <       0.00000095 Ry

     The total energy is the sum of the following terms:
     one-electron contribution =       2.28172213 Ry
     hartree contribution      =       1.42786683 Ry
     xc contribution           =      -4.47328076 Ry
     ewald contribution        =     -14.89209712 Ry

     convergence has been achieved in  12 iterations
     Writing meta-gga kinetic term

     Writing all to output data dir ./input_pw/Si/12/pwscf.save/
     Writing meta-gga kinetic term
 
     init_run     :      5.33s CPU     11.95s WALL (       1 calls)
     electrons    :     43.30s CPU     62.54s WALL (       1 calls)

     Called by init_run:
     wfcinit      :      5.20s CPU     11.60s WALL (       1 calls)
     potinit      :      0.05s CPU      0.15s WALL (       1 calls)
     hinit0       :      0.06s CPU      0.14s WALL (       1 calls)

     Called by electrons:
     c_bands      :     34.59s CPU     50.44s WALL (      13 calls)
     sum_band     :      7.87s CPU     10.99s WALL (      13 calls)
     v_of_rho     :      0.52s CPU      0.73s WALL (      13 calls)
     mix_rho      :      0.35s CPU      0.47s WALL (      13 calls)

     Called by c_bands:
     init_us_2    :      0.34s CPU      0.49s WALL (    1269 calls)
     init_us_2:cp :      0.33s CPU      0.49s WALL (    1269 calls)
     cegterg      :     34.18s CPU     49.81s WALL (     611 calls)

     Called by *egterg:
     cdiaghg      :      0.10s CPU      0.13s WALL (    1596 calls)
     h_psi        :     38.70s CPU     60.32s WALL (    1690 calls)
     g_psi        :      0.02s CPU      0.04s WALL (    1032 calls)

     Called by h_psi:
     h_psi:calbec :      0.14s CPU      0.18s WALL (    1690 calls)
     vloc_psi     :      9.58s CPU     14.69s WALL (    1690 calls)
     add_vuspsi   :      0.11s CPU      0.23s WALL (    1690 calls)
     h_psi_meta   :     28.82s CPU     45.17s WALL (    1690 calls)

     General routines
     calbec       :      0.13s CPU      0.17s WALL (    1690 calls)
     fft          :      0.10s CPU      0.12s WALL (     155 calls)
     ffts         :      0.15s CPU      0.23s WALL (     223 calls)
     fftw         :     39.31s CPU     60.47s WALL (   63152 calls)
     interpolate  :      0.00s CPU      0.02s WALL (      13 calls)
 
     Parallel routines
 
     PWSCF        :     48.66s CPU   1m14.55s WALL

 
   This run was terminated on:  11:32:21  29Mar2023            

=------------------------------------------------------------------------------=
   JOB DONE.
=------------------------------------------------------------------------------=
