
     Program PWSCF v.7.0 starts on 21Feb2023 at 12:49:40 

     This program is part of the open-source Quantum ESPRESSO suite
     for quantum simulation of materials; please cite
         "P. Giannozzi et al., J. Phys.:Condens. Matter 21 395502 (2009);
         "P. Giannozzi et al., J. Phys.:Condens. Matter 29 465901 (2017);
         "P. Giannozzi et al., J. Chem. Phys. 152 154105 (2020);
          URL http://www.quantum-espresso.org", 
     in publications or presentations arising from this work. More details at
     http://www.quantum-espresso.org/quote

     Parallel version (MPI), running on     1 processors

     MPI processes distributed on     1 nodes
     3278 MiB available memory on the printing compute node when the environment starts
 
     Waiting for input...
     Reading input from standard input
Warning: card &CELL ignored
Warning: card / ignored

     Current dimensions of program PWSCF are:
     Max number of different atomic species (ntypx) = 10
     Max number of k-points (npk) =  40000
     Max angular momentum in pseudopotentials (lmaxx) =  4
     file Si.SCAN.UPF2: wavefunction(s)  0D renormalized

     WARNING: the MGGA functional with ID    5 has been 
     read together with other dft terms, but it should 
     stand alone in order to work properly. The other 
     terms will be ignored.

     Subspace diagonalization in iterative solution of the eigenvalue problem:
     a serial algorithm will be used

 
     G-vector sticks info
     --------------------
     sticks:   dense  smooth     PW     G-vecs:    dense   smooth      PW
     Sum         913     913    271                18149    18149    2975
 
     Using Slab Decomposition
 


     bravais-lattice index     =            2
     lattice parameter (alat)  =      11.4779  a.u.
     unit-cell volume          =     378.0309 (a.u.)^3
     number of atoms/cell      =            2
     number of atomic types    =            1
     number of electrons       =         8.00
     number of Kohn-Sham states=            4
     kinetic-energy cutoff     =      50.0000  Ry
     charge density cutoff     =     200.0000  Ry
     scf convergence threshold =      1.0E-06
     mixing beta               =       0.0100
     number of iterations used =            8  local-TF  mixing
     Exchange-correlation= SLA  PW   SCAN SCAN
                           (   0   0   0   0   0 263 267)

     celldm(1)=  11.477900  celldm(2)=   0.000000  celldm(3)=   0.000000
     celldm(4)=   0.000000  celldm(5)=   0.000000  celldm(6)=   0.000000

     crystal axes: (cart. coord. in units of alat)
               a(1) = (  -0.500000   0.000000   0.500000 )  
               a(2) = (   0.000000   0.500000   0.500000 )  
               a(3) = (  -0.500000   0.500000   0.000000 )  

     reciprocal axes: (cart. coord. in units 2 pi/alat)
               b(1) = ( -1.000000 -1.000000  1.000000 )  
               b(2) = (  1.000000  1.000000  1.000000 )  
               b(3) = ( -1.000000  1.000000 -1.000000 )  


     PseudoPot. # 1 for Si read from file:
     ~/Documents/TA/PWDFT.jl/pseudopotentials/scan_upf/Si.SCAN.UPF2
     MD5 check sum: Not computed, couldn't open file
     Pseudo is Norm-conserving, Zval =  4.0
     Generated by new atomic code, or converted to UPF format
     Using radial grid of 1475 points,  2 beta functions with: 
                l(1) =   0
                l(2) =   1

     atomic species   valence    mass     pseudopotential
        Si             4.00    28.08550     Si( 1.00)

     48 Sym. Ops., with inversion, found (24 have fractional translation)



   Cartesian axes

     site n.     atom                  positions (alat units)
         1           Si  tau(   1) = (   0.0000000   0.0000000   0.0000000  )
         2           Si  tau(   2) = (   0.2500000   0.2500000   0.2500000  )

     number of k points=    47
                       cart. coord. in units 2pi/alat
        k(    1) = (   0.0000000   0.0000000   0.0000000), wk =   0.0020000
        k(    2) = (  -0.1000000   0.1000000  -0.1000000), wk =   0.0160000
        k(    3) = (  -0.2000000   0.2000000  -0.2000000), wk =   0.0160000
        k(    4) = (  -0.3000000   0.3000000  -0.3000000), wk =   0.0160000
        k(    5) = (  -0.4000000   0.4000000  -0.4000000), wk =   0.0160000
        k(    6) = (   0.5000000  -0.5000000   0.5000000), wk =   0.0080000
        k(    7) = (   0.0000000   0.2000000   0.0000000), wk =   0.0120000
        k(    8) = (  -0.1000000   0.3000000  -0.1000000), wk =   0.0480000
        k(    9) = (  -0.2000000   0.4000000  -0.2000000), wk =   0.0480000
        k(   10) = (  -0.3000000   0.5000000  -0.3000000), wk =   0.0480000
        k(   11) = (   0.6000000  -0.4000000   0.6000000), wk =   0.0480000
        k(   12) = (   0.5000000  -0.3000000   0.5000000), wk =   0.0480000
        k(   13) = (   0.4000000  -0.2000000   0.4000000), wk =   0.0480000
        k(   14) = (   0.3000000  -0.1000000   0.3000000), wk =   0.0480000
        k(   15) = (   0.2000000   0.0000000   0.2000000), wk =   0.0240000
        k(   16) = (   0.0000000   0.4000000   0.0000000), wk =   0.0120000
        k(   17) = (  -0.1000000   0.5000000  -0.1000000), wk =   0.0480000
        k(   18) = (  -0.2000000   0.6000000  -0.2000000), wk =   0.0480000
        k(   19) = (   0.7000000  -0.3000000   0.7000000), wk =   0.0480000
        k(   20) = (   0.6000000  -0.2000000   0.6000000), wk =   0.0480000
        k(   21) = (   0.5000000  -0.1000000   0.5000000), wk =   0.0480000
        k(   22) = (   0.4000000   0.0000000   0.4000000), wk =   0.0240000
        k(   23) = (   0.0000000   0.6000000   0.0000000), wk =   0.0120000
        k(   24) = (  -0.1000000   0.7000000  -0.1000000), wk =   0.0480000
        k(   25) = (   0.8000000  -0.2000000   0.8000000), wk =   0.0480000
        k(   26) = (   0.7000000  -0.1000000   0.7000000), wk =   0.0480000
        k(   27) = (   0.6000000  -0.0000000   0.6000000), wk =   0.0240000
        k(   28) = (   0.0000000   0.8000000   0.0000000), wk =   0.0120000
        k(   29) = (   0.9000000  -0.1000000   0.9000000), wk =   0.0480000
        k(   30) = (   0.8000000   0.0000000   0.8000000), wk =   0.0240000
        k(   31) = (   0.0000000  -1.0000000   0.0000000), wk =   0.0060000
        k(   32) = (  -0.2000000   0.4000000   0.0000000), wk =   0.0480000
        k(   33) = (  -0.3000000   0.5000000  -0.1000000), wk =   0.0960000
        k(   34) = (   0.6000000  -0.4000000   0.8000000), wk =   0.0960000
        k(   35) = (   0.5000000  -0.3000000   0.7000000), wk =   0.0480000
        k(   36) = (  -0.2000000   0.6000000   0.0000000), wk =   0.0480000
        k(   37) = (   0.7000000  -0.3000000   0.9000000), wk =   0.0960000
        k(   38) = (   0.6000000  -0.2000000   0.8000000), wk =   0.0960000
        k(   39) = (   0.5000000  -0.1000000   0.7000000), wk =   0.0960000
        k(   40) = (   0.4000000   0.0000000   0.6000000), wk =   0.0480000
        k(   41) = (   0.8000000  -0.2000000   1.0000000), wk =   0.0480000
        k(   42) = (   0.7000000  -0.1000000   0.9000000), wk =   0.0960000
        k(   43) = (   0.6000000   0.0000000   0.8000000), wk =   0.0480000
        k(   44) = (  -0.2000000  -1.0000000   0.0000000), wk =   0.0240000
        k(   45) = (   0.6000000  -0.2000000   1.0000000), wk =   0.0480000
        k(   46) = (   0.5000000  -0.1000000   0.9000000), wk =   0.0480000
        k(   47) = (  -0.4000000  -1.0000000   0.0000000), wk =   0.0240000

     Dense  grid:    18149 G-vectors     FFT dimensions: (  40,  40,  40)

     Estimated max dynamical RAM per process >      34.87 MB

     WARNING: libxc functional with ID  263 depends
      on external parameters: check the user_guide of
      QE if you need to modify them or to check their
      default values.

     Initial potential from superposition of free atoms

     starting charge       7.9990, renormalised to       8.0000
     Starting wfcs are   18 randomized atomic wfcs

     total cpu time spent up to now is       11.2 secs

     Self-consistent Calculation

     iteration #  1     ecut=    50.00 Ry     beta= 0.01
     Davidson diagonalization with overlap
     ethr =  1.00E-02,  avg # of iterations =  1.4

     Threshold (ethr) on eigenvalues was too large:
     Diagonalizing with lowered threshold

     Davidson diagonalization with overlap
     ethr =  4.73E-04,  avg # of iterations =  1.9

     total cpu time spent up to now is       25.4 secs

     total energy              =     -15.61739470 Ry
     estimated scf accuracy    <       0.04012980 Ry

     iteration #  2     ecut=    50.00 Ry     beta= 0.01
     Davidson diagonalization with overlap
     ethr =  5.02E-04,  avg # of iterations =  1.0

     total cpu time spent up to now is       31.6 secs

     total energy              =     -15.61587237 Ry
     estimated scf accuracy    <       0.04015653 Ry

     iteration #  3     ecut=    50.00 Ry     beta= 0.01
     Davidson diagonalization with overlap
     ethr =  5.02E-04,  avg # of iterations =  1.0

     total cpu time spent up to now is       37.6 secs

     total energy              =     -15.66345843 Ry
     estimated scf accuracy    <       0.04323988 Ry

     iteration #  4     ecut=    50.00 Ry     beta= 0.01
     Davidson diagonalization with overlap
     ethr =  5.02E-04,  avg # of iterations =  1.0

     total cpu time spent up to now is       41.4 secs

     total energy              =     -15.66514686 Ry
     estimated scf accuracy    <       0.00344436 Ry

     iteration #  5     ecut=    50.00 Ry     beta= 0.01
     Davidson diagonalization with overlap
     ethr =  4.31E-05,  avg # of iterations =  2.1

     total cpu time spent up to now is       45.7 secs

     total energy              =     -15.66575153 Ry
     estimated scf accuracy    <       0.00349609 Ry

     iteration #  6     ecut=    50.00 Ry     beta= 0.01
     Davidson diagonalization with overlap
     ethr =  4.31E-05,  avg # of iterations =  1.0

     total cpu time spent up to now is       49.5 secs

     total energy              =     -15.66548366 Ry
     estimated scf accuracy    <       0.00503538 Ry

     iteration #  7     ecut=    50.00 Ry     beta= 0.01
     Davidson diagonalization with overlap
     ethr =  4.31E-05,  avg # of iterations =  2.0

     total cpu time spent up to now is       54.0 secs

     total energy              =     -15.66618213 Ry
     estimated scf accuracy    <       0.00005592 Ry

     iteration #  8     ecut=    50.00 Ry     beta= 0.01
     Davidson diagonalization with overlap
     ethr =  6.99E-07,  avg # of iterations =  3.0

     total cpu time spent up to now is       58.6 secs

     total energy              =     -15.66620287 Ry
     estimated scf accuracy    <       0.00006885 Ry

     iteration #  9     ecut=    50.00 Ry     beta= 0.01
     Davidson diagonalization with overlap
     ethr =  6.99E-07,  avg # of iterations =  1.0

     total cpu time spent up to now is       62.3 secs

     total energy              =     -15.66624810 Ry
     estimated scf accuracy    <       0.00006842 Ry

     iteration # 10     ecut=    50.00 Ry     beta= 0.01
     Davidson diagonalization with overlap
     ethr =  6.99E-07,  avg # of iterations =  2.0

     total cpu time spent up to now is       66.4 secs

     total energy              =     -15.66626793 Ry
     estimated scf accuracy    <       0.00000842 Ry

     iteration # 11     ecut=    50.00 Ry     beta= 0.01
     Davidson diagonalization with overlap
     ethr =  1.05E-07,  avg # of iterations =  2.6

     total cpu time spent up to now is       69.2 secs

     total energy              =     -15.66627078 Ry
     estimated scf accuracy    <       0.00000148 Ry

     iteration # 12     ecut=    50.00 Ry     beta= 0.01
     Davidson diagonalization with overlap
     ethr =  1.85E-08,  avg # of iterations =  1.4

     total cpu time spent up to now is       70.8 secs

     total energy              =     -15.66626944 Ry
     estimated scf accuracy    <       0.00000145 Ry

     iteration # 13     ecut=    50.00 Ry     beta= 0.01
     Davidson diagonalization with overlap
     ethr =  1.81E-08,  avg # of iterations =  1.9

     total cpu time spent up to now is       72.5 secs

     End of self-consistent calculation

          k = 0.0000 0.0000 0.0000 (  2229 PWs)   bands (ev):

    -7.3161   3.0319   3.0319   3.0319

          k =-0.1000 0.1000-0.1000 (  2232 PWs)   bands (ev):

    -7.2139   1.7173   2.8932   2.8932

          k =-0.2000 0.2000-0.2000 (  2253 PWs)   bands (ev):

    -6.9145   0.1621   2.6046   2.6046

          k =-0.3000 0.3000-0.3000 (  2247 PWs)   bands (ev):

    -6.4474  -1.2561   2.3322   2.3322

          k =-0.4000 0.4000-0.4000 (  2247 PWs)   bands (ev):

    -5.9092  -2.3817   2.1519   2.1519

          k = 0.5000-0.5000 0.5000 (  2276 PWs)   bands (ev):

    -5.6152  -2.8740   2.0898   2.0898

          k = 0.0000 0.2000 0.0000 (  2237 PWs)   bands (ev):

    -7.1795   1.6565   2.6473   2.6473

          k =-0.1000 0.3000-0.1000 (  2239 PWs)   bands (ev):

    -6.9442   0.4779   2.3219   2.3643

          k =-0.2000 0.4000-0.2000 (  2255 PWs)   bands (ev):

    -6.5276  -0.8813   2.0016   2.0612

          k =-0.3000 0.5000-0.3000 (  2258 PWs)   bands (ev):

    -5.9929  -2.0789   1.6696   1.9244

          k = 0.6000-0.4000 0.6000 (  2264 PWs)   bands (ev):

    -5.5598  -2.8227   1.4498   1.9279

          k = 0.5000-0.3000 0.5000 (  2261 PWs)   bands (ev):

    -5.6677  -2.6507   1.3759   2.0661

          k = 0.4000-0.2000 0.4000 (  2257 PWs)   bands (ev):

    -6.1789  -1.7073   1.4670   2.3154

          k = 0.3000-0.1000 0.3000 (  2247 PWs)   bands (ev):

    -6.6863  -0.4450   1.7429   2.6236

          k = 0.2000 0.0000 0.2000 (  2241 PWs)   bands (ev):

    -7.0454   0.8401   2.2512   2.8757

          k = 0.0000 0.4000 0.0000 (  2245 PWs)   bands (ev):

    -6.7732   0.0958   1.9712   1.9712

          k =-0.1000 0.5000-0.1000 (  2259 PWs)   bands (ev):

    -6.4130  -0.8618   1.5582   1.6956

          k =-0.2000 0.6000-0.2000 (  2263 PWs)   bands (ev):

    -5.9038  -1.9228   1.0549   1.5567

          k = 0.7000-0.3000 0.7000 (  2264 PWs)   bands (ev):

    -5.3873  -2.7668   0.6555   1.5735

          k = 0.6000-0.2000 0.6000 (  2257 PWs)   bands (ev):

    -5.2926  -2.9015   0.4502   1.7406

          k = 0.5000-0.1000 0.5000 (  2251 PWs)   bands (ev):

    -5.7446  -2.2115   0.4984   2.0292

          k = 0.4000 0.0000 0.4000 (  2269 PWs)   bands (ev):

    -6.2773  -1.2660   0.8986   2.3707

          k = 0.0000 0.6000 0.0000 (  2273 PWs)   bands (ev):

    -6.1084  -1.4025   1.3935   1.3935

          k =-0.1000 0.7000-0.1000 (  2256 PWs)   bands (ev):

    -5.6377  -2.1987   0.9612   1.2272

          k = 0.8000-0.2000 0.8000 (  2256 PWs)   bands (ev):

    -5.0856  -2.9619   0.3869   1.2222

          k = 0.7000-0.1000 0.7000 (  2279 PWs)   bands (ev):

    -4.8168  -3.2815   0.0027   1.3780

          k = 0.6000-0.0000 0.6000 (  2261 PWs)   bands (ev):

    -5.2069  -2.8241  -0.0066   1.6691

          k = 0.0000 0.8000 0.0000 (  2265 PWs)   bands (ev):

    -5.2049  -2.8108   1.0242   1.0242

          k = 0.9000-0.1000 0.9000 (  2267 PWs)   bands (ev):

    -4.6491  -3.4770   0.6541   0.9822

          k = 0.8000 0.0000 0.8000 (  2253 PWs)   bands (ev):

    -4.3448  -3.7739   0.1529   1.1065

          k = 0.0000-1.0000 0.0000 (  2272 PWs)   bands (ev):

    -4.0926  -4.0926   0.8983   0.8983

          k =-0.2000 0.4000 0.0000 (  2251 PWs)   bands (ev):

    -6.6475  -0.3831   1.5693   2.2784

          k =-0.3000 0.5000-0.1000 (  2255 PWs)   bands (ev):

    -6.1826  -1.4688   1.0686   2.0149

          k = 0.6000-0.4000 0.8000 (  2267 PWs)   bands (ev):

    -5.6403  -2.4626   0.8170   1.7732

          k = 0.5000-0.3000 0.7000 (  2266 PWs)   bands (ev):

    -5.3366  -2.9276   0.7418   1.6801

          k =-0.2000 0.6000 0.0000 (  2259 PWs)   bands (ev):

    -5.9995  -1.6405   1.0124   1.5054

          k = 0.7000-0.3000 0.9000 (  2257 PWs)   bands (ev):

    -5.4617  -2.4890   0.5411   1.2877

          k = 0.6000-0.2000 0.8000 (  2260 PWs)   bands (ev):

    -5.0121  -3.0933   0.2257   1.2484

          k = 0.5000-0.1000 0.7000 (  2258 PWs)   bands (ev):

    -5.1549  -2.9098   0.1431   1.4139

          k = 0.4000 0.0000 0.6000 (  2253 PWs)   bands (ev):

    -5.6856  -2.1914   0.3949   1.7189

          k = 0.8000-0.2000 1.0000 (  2257 PWs)   bands (ev):

    -5.1270  -2.8869   0.6980   0.9413

          k = 0.7000-0.1000 0.9000 (  2251 PWs)   bands (ev):

    -4.5895  -3.4942   0.2457   0.8765

          k = 0.6000 0.0000 0.8000 (  2261 PWs)   bands (ev):

    -4.6319  -3.4385  -0.0336   1.0696

          k =-0.2000-1.0000 0.0000 (  2254 PWs)   bands (ev):

    -4.0706  -4.0706   0.6686   0.6686

          k = 0.6000-0.2000 1.0000 (  2258 PWs)   bands (ev):

    -4.9155  -3.1129   0.1952   0.9105

          k = 0.5000-0.1000 0.9000 (  2256 PWs)   bands (ev):

    -4.5493  -3.5091   0.0932   0.7383

          k =-0.4000-1.0000 0.0000 (  2258 PWs)   bands (ev):

    -4.0336  -4.0336   0.3630   0.3630

     highest occupied level (ev):     3.0319

!    total energy              =     -15.66626964 Ry
     estimated scf accuracy    <       0.00000048 Ry

     The total energy is the sum of the following terms:
     one-electron contribution =       2.44455760 Ry
     hartree contribution      =       1.40369405 Ry
     xc contribution           =      -4.49630909 Ry
     ewald contribution        =     -15.01821220 Ry

     convergence has been achieved in  13 iterations
     Writing meta-gga kinetic term

     Writing all to output data dir ./input_pw/Si/12/pwscf.save/
     Writing meta-gga kinetic term
 
     init_run     :      5.34s CPU     11.07s WALL (       1 calls)
     electrons    :     44.68s CPU     61.37s WALL (       1 calls)

     Called by init_run:
     wfcinit      :      5.21s CPU     10.66s WALL (       1 calls)
     potinit      :      0.05s CPU      0.20s WALL (       1 calls)
     hinit0       :      0.07s CPU      0.18s WALL (       1 calls)

     Called by electrons:
     c_bands      :     35.93s CPU     49.19s WALL (      14 calls)
     sum_band     :      7.92s CPU     11.10s WALL (      14 calls)
     v_of_rho     :      0.53s CPU      0.79s WALL (      14 calls)
     mix_rho      :      0.34s CPU      0.45s WALL (      14 calls)

     Called by c_bands:
     init_us_2    :      0.34s CPU      0.45s WALL (    1363 calls)
     init_us_2:cp :      0.33s CPU      0.43s WALL (    1363 calls)
     cegterg      :     35.53s CPU     48.67s WALL (     658 calls)

     Called by *egterg:
     cdiaghg      :      0.10s CPU      0.12s WALL (    1707 calls)
     h_psi        :     40.04s CPU     58.36s WALL (    1801 calls)
     g_psi        :      0.02s CPU      0.02s WALL (    1096 calls)

     Called by h_psi:
     h_psi:calbec :      0.13s CPU      0.21s WALL (    1801 calls)
     vloc_psi     :      9.90s CPU     14.32s WALL (    1801 calls)
     add_vuspsi   :      0.11s CPU      0.17s WALL (    1801 calls)
     h_psi_meta   :     29.85s CPU     43.60s WALL (    1801 calls)

     General routines
     calbec       :      0.13s CPU      0.19s WALL (    1801 calls)
     fft          :      0.10s CPU      0.23s WALL (     167 calls)
     ffts         :      0.14s CPU      0.21s WALL (     238 calls)
     fftw         :     40.93s CPU     59.49s WALL (   68704 calls)
     interpolate  :      0.00s CPU      0.00s WALL (      14 calls)
 
     Parallel routines
 
     PWSCF        :     50.07s CPU   1m12.55s WALL

 
   This run was terminated on:  12:50:53  21Feb2023            

=------------------------------------------------------------------------------=
   JOB DONE.
=------------------------------------------------------------------------------=
