
     Program PWSCF v.7.0 starts on  7Jul2023 at 14:24:17 

     This program is part of the open-source Quantum ESPRESSO suite
     for quantum simulation of materials; please cite
         "P. Giannozzi et al., J. Phys.:Condens. Matter 21 395502 (2009);
         "P. Giannozzi et al., J. Phys.:Condens. Matter 29 465901 (2017);
         "P. Giannozzi et al., J. Chem. Phys. 152 154105 (2020);
          URL http://www.quantum-espresso.org", 
     in publications or presentations arising from this work. More details at
     http://www.quantum-espresso.org/quote

     Parallel version (MPI), running on     1 processors

     MPI processes distributed on     1 nodes
     27142 MiB available memory on the printing compute node when the environment starts
 
     Waiting for input...
     Reading input from standard input
Warning: card &CELL ignored
Warning: card / ignored

     Current dimensions of program PWSCF are:
     Max number of different atomic species (ntypx) = 10
     Max number of k-points (npk) =  40000
     Max angular momentum in pseudopotentials (lmaxx) =  4
     file Cl.SCAN.UPF2: wavefunction(s)  0D renormalized

     WARNING: the MGGA functional with ID    5 has been 
     read together with other dft terms, but it should 
     stand alone in order to work properly. The other 
     terms will be ignored.

     WARNING: the MGGA functional with ID    5 has been 
     read together with other dft terms, but it should 
     stand alone in order to work properly. The other 
     terms will be ignored.

     Subspace diagonalization in iterative solution of the eigenvalue problem:
     a serial algorithm will be used

 
     G-vector sticks info
     --------------------
     sticks:   dense  smooth     PW     G-vecs:    dense   smooth      PW
     Sum         547     547    163                 8291     8291    1459
 
     Using Slab Decomposition
 


     bravais-lattice index     =            2
     lattice parameter (alat)  =       8.8396  a.u.
     unit-cell volume          =     172.6773 (a.u.)^3
     number of atoms/cell      =            2
     number of atomic types    =            2
     number of electrons       =         8.00
     number of Kohn-Sham states=            4
     kinetic-energy cutoff     =      50.0000  Ry
     charge density cutoff     =     200.0000  Ry
     scf convergence threshold =      2.0E-05
     mixing beta               =       0.2000
     number of iterations used =            8  local-TF  mixing
     Exchange-correlation= SLA  PW   SCAN SCAN
                           (   0   0   0   0   0 263 267)

     celldm(1)=   8.839582  celldm(2)=   0.000000  celldm(3)=   0.000000
     celldm(4)=   0.000000  celldm(5)=   0.000000  celldm(6)=   0.000000

     crystal axes: (cart. coord. in units of alat)
               a(1) = (  -0.500000   0.000000   0.500000 )  
               a(2) = (   0.000000   0.500000   0.500000 )  
               a(3) = (  -0.500000   0.500000   0.000000 )  

     reciprocal axes: (cart. coord. in units 2 pi/alat)
               b(1) = ( -1.000000 -1.000000  1.000000 )  
               b(2) = (  1.000000  1.000000  1.000000 )  
               b(3) = ( -1.000000  1.000000 -1.000000 )  


     PseudoPot. # 1 for Li read from file:
     ~/Documents/TA/PWDFT.jl/pseudopotentials/scan_upf/Li.SCAN.UPF2
     MD5 check sum: Not computed, couldn't open file
     Pseudo is Norm-conserving, Zval =  1.0
     Generated by new atomic code, or converted to UPF format
     Using radial grid of 1321 points,  1 beta functions with: 
                l(1) =   0

     PseudoPot. # 2 for Cl read from file:
     ~/Documents/TA/PWDFT.jl/pseudopotentials/scan_upf/Cl.SCAN.UPF2
     MD5 check sum: Not computed, couldn't open file
     Pseudo is Norm-conserving, Zval =  7.0
     Generated by new atomic code, or converted to UPF format
     Using radial grid of 1493 points,  2 beta functions with: 
                l(1) =   0
                l(2) =   1

     atomic species   valence    mass     pseudopotential
        Li             1.00     6.94100     Li( 1.00)
        Cl             7.00    35.45300     Cl( 1.00)

     48 Sym. Ops., with inversion, found



   Cartesian axes

     site n.     atom                  positions (alat units)
         1           Li  tau(   1) = (   0.0000000   0.0000000   0.0000000  )
         2           Cl  tau(   2) = (   0.5000000   0.5000000   0.5000000  )

     number of k points=    47
                       cart. coord. in units 2pi/alat
        k(    1) = (   0.0000000   0.0000000   0.0000000), wk =   0.0020000
        k(    2) = (  -0.1000000   0.1000000  -0.1000000), wk =   0.0160000
        k(    3) = (  -0.2000000   0.2000000  -0.2000000), wk =   0.0160000
        k(    4) = (  -0.3000000   0.3000000  -0.3000000), wk =   0.0160000
        k(    5) = (  -0.4000000   0.4000000  -0.4000000), wk =   0.0160000
        k(    6) = (   0.5000000  -0.5000000   0.5000000), wk =   0.0080000
        k(    7) = (   0.0000000   0.2000000   0.0000000), wk =   0.0120000
        k(    8) = (  -0.1000000   0.3000000  -0.1000000), wk =   0.0480000
        k(    9) = (  -0.2000000   0.4000000  -0.2000000), wk =   0.0480000
        k(   10) = (  -0.3000000   0.5000000  -0.3000000), wk =   0.0480000
        k(   11) = (   0.6000000  -0.4000000   0.6000000), wk =   0.0480000
        k(   12) = (   0.5000000  -0.3000000   0.5000000), wk =   0.0480000
        k(   13) = (   0.4000000  -0.2000000   0.4000000), wk =   0.0480000
        k(   14) = (   0.3000000  -0.1000000   0.3000000), wk =   0.0480000
        k(   15) = (   0.2000000   0.0000000   0.2000000), wk =   0.0240000
        k(   16) = (   0.0000000   0.4000000   0.0000000), wk =   0.0120000
        k(   17) = (  -0.1000000   0.5000000  -0.1000000), wk =   0.0480000
        k(   18) = (  -0.2000000   0.6000000  -0.2000000), wk =   0.0480000
        k(   19) = (   0.7000000  -0.3000000   0.7000000), wk =   0.0480000
        k(   20) = (   0.6000000  -0.2000000   0.6000000), wk =   0.0480000
        k(   21) = (   0.5000000  -0.1000000   0.5000000), wk =   0.0480000
        k(   22) = (   0.4000000   0.0000000   0.4000000), wk =   0.0240000
        k(   23) = (   0.0000000   0.6000000   0.0000000), wk =   0.0120000
        k(   24) = (  -0.1000000   0.7000000  -0.1000000), wk =   0.0480000
        k(   25) = (   0.8000000  -0.2000000   0.8000000), wk =   0.0480000
        k(   26) = (   0.7000000  -0.1000000   0.7000000), wk =   0.0480000
        k(   27) = (   0.6000000  -0.0000000   0.6000000), wk =   0.0240000
        k(   28) = (   0.0000000   0.8000000   0.0000000), wk =   0.0120000
        k(   29) = (   0.9000000  -0.1000000   0.9000000), wk =   0.0480000
        k(   30) = (   0.8000000   0.0000000   0.8000000), wk =   0.0240000
        k(   31) = (   0.0000000  -1.0000000   0.0000000), wk =   0.0060000
        k(   32) = (  -0.2000000   0.4000000   0.0000000), wk =   0.0480000
        k(   33) = (  -0.3000000   0.5000000  -0.1000000), wk =   0.0960000
        k(   34) = (   0.6000000  -0.4000000   0.8000000), wk =   0.0960000
        k(   35) = (   0.5000000  -0.3000000   0.7000000), wk =   0.0480000
        k(   36) = (  -0.2000000   0.6000000   0.0000000), wk =   0.0480000
        k(   37) = (   0.7000000  -0.3000000   0.9000000), wk =   0.0960000
        k(   38) = (   0.6000000  -0.2000000   0.8000000), wk =   0.0960000
        k(   39) = (   0.5000000  -0.1000000   0.7000000), wk =   0.0960000
        k(   40) = (   0.4000000   0.0000000   0.6000000), wk =   0.0480000
        k(   41) = (   0.8000000  -0.2000000   1.0000000), wk =   0.0480000
        k(   42) = (   0.7000000  -0.1000000   0.9000000), wk =   0.0960000
        k(   43) = (   0.6000000   0.0000000   0.8000000), wk =   0.0480000
        k(   44) = (  -0.2000000  -1.0000000   0.0000000), wk =   0.0240000
        k(   45) = (   0.6000000  -0.2000000   1.0000000), wk =   0.0480000
        k(   46) = (   0.5000000  -0.1000000   0.9000000), wk =   0.0480000
        k(   47) = (  -0.4000000  -1.0000000   0.0000000), wk =   0.0240000

     Dense  grid:     8291 G-vectors     FFT dimensions: (  30,  30,  30)

     Estimated max dynamical RAM per process >      16.03 MB

     WARNING: libxc functional with ID  263 depends
      on external parameters: check the user_guide of
      QE if you need to modify them or to check their
      default values.

     Initial potential from superposition of free atoms

     starting charge       7.9953, renormalised to       8.0000
     Starting wfcs are   13 randomized atomic wfcs

     total cpu time spent up to now is        3.3 secs

     Self-consistent Calculation

     iteration #  1     ecut=    50.00 Ry     beta= 0.20
     Davidson diagonalization with overlap
     ethr =  1.00E-02,  avg # of iterations =  1.0

     total cpu time spent up to now is        6.0 secs

     total energy              =     -30.66103942 Ry
     estimated scf accuracy    <       0.35942518 Ry

     iteration #  2     ecut=    50.00 Ry     beta= 0.20
     Davidson diagonalization with overlap
     ethr =  4.49E-03,  avg # of iterations =  1.0

     total cpu time spent up to now is        8.6 secs

     total energy              =     -30.70413886 Ry
     estimated scf accuracy    <       0.23144365 Ry

     iteration #  3     ecut=    50.00 Ry     beta= 0.20
     Davidson diagonalization with overlap
     ethr =  2.89E-03,  avg # of iterations =  1.0

     total cpu time spent up to now is       11.3 secs

     total energy              =     -30.70762981 Ry
     estimated scf accuracy    <       0.00154779 Ry

     iteration #  4     ecut=    50.00 Ry     beta= 0.20
     Davidson diagonalization with overlap
     ethr =  1.93E-05,  avg # of iterations =  2.0

     total cpu time spent up to now is       14.8 secs

     total energy              =     -30.70799485 Ry
     estimated scf accuracy    <       0.00103134 Ry

     iteration #  5     ecut=    50.00 Ry     beta= 0.20
     Davidson diagonalization with overlap
     ethr =  1.29E-05,  avg # of iterations =  1.0

     total cpu time spent up to now is       17.4 secs

     total energy              =     -30.70806482 Ry
     estimated scf accuracy    <       0.00024170 Ry

     iteration #  6     ecut=    50.00 Ry     beta= 0.20
     Davidson diagonalization with overlap
     ethr =  3.02E-06,  avg # of iterations =  2.0

     total cpu time spent up to now is       20.2 secs

     total energy              =     -30.70811710 Ry
     estimated scf accuracy    <       0.00003071 Ry

     iteration #  7     ecut=    50.00 Ry     beta= 0.20
     Davidson diagonalization with overlap
     ethr =  3.84E-07,  avg # of iterations =  1.7

     total cpu time spent up to now is       22.3 secs

     End of self-consistent calculation

          k = 0.0000 0.0000 0.0000 (   965 PWs)   bands (ev):

   -11.4167   3.7543   3.7543   3.7543

          k =-0.1000 0.1000-0.1000 (  1007 PWs)   bands (ev):

   -11.3264   3.2549   3.7094   3.7094

          k =-0.2000 0.2000-0.2000 (  1007 PWs)   bands (ev):

   -11.0737   2.0965   3.5979   3.5979

          k =-0.3000 0.3000-0.3000 (  1023 PWs)   bands (ev):

   -10.7281   0.8356   3.4715   3.4715

          k =-0.4000 0.4000-0.4000 (  1038 PWs)   bands (ev):

   -10.4134  -0.1146   3.3773   3.3773

          k = 0.5000-0.5000 0.5000 (  1056 PWs)   bands (ev):

   -10.2829  -0.4696   3.3431   3.3431

          k = 0.0000 0.2000 0.0000 (  1006 PWs)   bands (ev):

   -11.2952   3.3577   3.5486   3.5486

          k =-0.1000 0.3000-0.1000 (  1016 PWs)   bands (ev):

   -11.0941   2.4505   3.3498   3.4887

          k =-0.2000 0.4000-0.2000 (  1024 PWs)   bands (ev):

   -10.7740   1.2345   3.1926   3.3308

          k =-0.3000 0.5000-0.3000 (  1028 PWs)   bands (ev):

   -10.4391   0.1925   3.1049   3.1310

          k = 0.6000-0.4000 0.6000 (  1029 PWs)   bands (ev):

   -10.2376  -0.3556   2.9033   3.1816

          k = 0.5000-0.3000 0.5000 (  1030 PWs)   bands (ev):

   -10.2829  -0.2317   2.7960   3.3257

          k = 0.4000-0.2000 0.4000 (  1040 PWs)   bands (ev):

   -10.5478   0.5204   2.8215   3.5154

          k = 0.3000-0.1000 0.3000 (  1019 PWs)   bands (ev):

   -10.8924   1.6479   2.9906   3.6834

          k = 0.2000 0.0000 0.2000 (  1005 PWs)   bands (ev):

   -11.1803   2.7202   3.3195   3.7611

          k = 0.0000 0.4000 0.0000 (  1010 PWs)   bands (ev):

   -10.9477   2.2960   3.0543   3.0543

          k =-0.1000 0.5000-0.1000 (  1021 PWs)   bands (ev):

   -10.6719   1.3976   2.8054   2.8240

          k =-0.2000 0.6000-0.2000 (  1032 PWs)   bands (ev):

   -10.3510   0.4731   2.4305   2.7302

          k = 0.7000-0.3000 0.7000 (  1031 PWs)   bands (ev):

   -10.1152  -0.1001   2.0270   2.7978

          k = 0.6000-0.2000 0.6000 (  1032 PWs)   bands (ev):

   -10.0877  -0.1160   1.7518   3.0081

          k = 0.5000-0.1000 0.5000 (  1036 PWs)   bands (ev):

   -10.2840   0.4133   1.7234   3.2978

          k = 0.4000 0.0000 0.4000 (  1023 PWs)   bands (ev):

   -10.5970   1.1325   2.1318   3.5623

          k = 0.0000 0.6000 0.0000 (  1030 PWs)   bands (ev):

   -10.4483   0.9255   2.5129   2.5129

          k =-0.1000 0.7000-0.1000 (  1039 PWs)   bands (ev):

   -10.1719   0.2669   2.1478   2.3527

          k = 0.8000-0.2000 0.8000 (  1031 PWs)   bands (ev):

    -9.9510  -0.1021   1.5655   2.3830

          k = 0.7000-0.1000 0.7000 (  1035 PWs)   bands (ev):

    -9.8935   0.0205   0.9826   2.5968

          k = 0.6000-0.0000 0.6000 (  1029 PWs)   bands (ev):

   -10.0284   0.5348   0.7152   2.9391

          k = 0.0000 0.8000 0.0000 (  1030 PWs)   bands (ev):

    -9.9610  -0.2483   2.1182   2.1182

          k = 0.9000-0.1000 0.9000 (  1031 PWs)   bands (ev):

    -9.8057  -0.5125   1.7929   2.0833

          k = 0.8000 0.0000 0.8000 (  1037 PWs)   bands (ev):

    -9.7802  -0.3392   1.2384   2.2560

          k = 0.0000-1.0000 0.0000 (  1034 PWs)   bands (ev):

    -9.7469  -0.7193   1.9758   1.9758

          k =-0.2000 0.4000 0.0000 (  1024 PWs)   bands (ev):

   -10.8556   1.8003   2.7756   3.4314

          k =-0.3000 0.5000-0.1000 (  1032 PWs)   bands (ev):

   -10.5311   0.8660   2.3606   3.2730

          k = 0.6000-0.4000 0.8000 (  1041 PWs)   bands (ev):

   -10.2380   0.0660   2.1754   3.0752

          k = 0.5000-0.3000 0.7000 (  1036 PWs)   bands (ev):

   -10.1169  -0.2432   2.1266   2.9860

          k =-0.2000 0.6000 0.0000 (  1036 PWs)   bands (ev):

   -10.3925   0.7758   2.1882   2.7482

          k = 0.7000-0.3000 0.9000 (  1035 PWs)   bands (ev):

   -10.1128   0.2210   1.6834   2.5990

          k = 0.6000-0.2000 0.8000 (  1037 PWs)   bands (ev):

    -9.9574  -0.0131   1.2966   2.5900

          k = 0.5000-0.1000 0.7000 (  1034 PWs)   bands (ev):

   -10.0089   0.1929   1.1241   2.7729

          k = 0.4000 0.0000 0.6000 (  1036 PWs)   bands (ev):

   -10.2380   0.5757   1.4582   3.0550

          k = 0.8000-0.2000 1.0000 (  1032 PWs)   bands (ev):

    -9.9471  -0.1427   1.7644   2.2093

          k = 0.7000-0.1000 0.9000 (  1035 PWs)   bands (ev):

    -9.8158  -0.1894   1.2109   2.2099

          k = 0.6000 0.0000 0.8000 (  1036 PWs)   bands (ev):

    -9.8417   0.1992   0.6731   2.4280

          k =-0.2000-1.0000 0.0000 (  1030 PWs)   bands (ev):

    -9.7539  -0.5281   1.6123   2.0210

          k = 0.6000-0.2000 1.0000 (  1031 PWs)   bands (ev):

    -9.9052   0.1756   0.9822   2.3793

          k = 0.5000-0.1000 0.9000 (  1036 PWs)   bands (ev):

    -9.8220   0.2680   0.6218   2.2687

          k =-0.4000-1.0000 0.0000 (  1042 PWs)   bands (ev):

    -9.7658   0.0173   0.8132   2.0946

     highest occupied level (ev):     3.7611

!    total energy              =     -30.70812166 Ry
     estimated scf accuracy    <       0.00000529 Ry

     The total energy is the sum of the following terms:
     one-electron contribution =      -1.15880023 Ry
     hartree contribution      =       4.59114420 Ry
     xc contribution           =      -6.48085819 Ry
     ewald contribution        =     -27.65960744 Ry

     convergence has been achieved in   7 iterations
     Writing meta-gga kinetic term

     Writing all to output data dir ./input_pw/LiCl/3/pwscf.save/
     Writing meta-gga kinetic term
 
     init_run     :      1.73s CPU      3.25s WALL (       1 calls)
     electrons    :     10.05s CPU     19.04s WALL (       1 calls)

     Called by init_run:
     wfcinit      :      1.61s CPU      2.99s WALL (       1 calls)
     potinit      :      0.02s CPU      0.09s WALL (       1 calls)
     hinit0       :      0.09s CPU      0.15s WALL (       1 calls)

     Called by electrons:
     c_bands      :      8.01s CPU     15.07s WALL (       7 calls)
     sum_band     :      1.85s CPU      3.55s WALL (       7 calls)
     v_of_rho     :      0.13s CPU      0.29s WALL (       8 calls)
     mix_rho      :      0.08s CPU      0.16s WALL (       7 calls)

     Called by c_bands:
     init_us_2    :      0.09s CPU      0.17s WALL (     705 calls)
     init_us_2:cp :      0.09s CPU      0.17s WALL (     705 calls)
     cegterg      :      7.92s CPU     14.94s WALL (     329 calls)

     Called by *egterg:
     cdiaghg      :      0.05s CPU      0.19s WALL (     788 calls)
     h_psi        :      9.32s CPU     17.43s WALL (     835 calls)
     g_psi        :      0.01s CPU      0.01s WALL (     459 calls)

     Called by h_psi:
     h_psi:calbec :      0.03s CPU      0.04s WALL (     835 calls)
     vloc_psi     :      2.29s CPU      3.96s WALL (     835 calls)
     add_vuspsi   :      0.03s CPU      0.04s WALL (     835 calls)
     h_psi_meta   :      6.96s CPU     13.36s WALL (     835 calls)

     General routines
     calbec       :      0.02s CPU      0.04s WALL (     835 calls)
     fft          :      0.03s CPU      0.04s WALL (      93 calls)
     ffts         :      0.04s CPU      0.05s WALL (     138 calls)
     fftw         :      9.85s CPU     18.58s WALL (   34544 calls)
     interpolate  :      0.00s CPU      0.00s WALL (       8 calls)
 
     Parallel routines
 
     PWSCF        :     11.84s CPU     22.38s WALL

 
   This run was terminated on:  14:24:40   7Jul2023            

=------------------------------------------------------------------------------=
   JOB DONE.
=------------------------------------------------------------------------------=
