
     Program PWSCF v.7.0 starts on 14Mar2023 at 14:28:43 

     This program is part of the open-source Quantum ESPRESSO suite
     for quantum simulation of materials; please cite
         "P. Giannozzi et al., J. Phys.:Condens. Matter 21 395502 (2009);
         "P. Giannozzi et al., J. Phys.:Condens. Matter 29 465901 (2017);
         "P. Giannozzi et al., J. Chem. Phys. 152 154105 (2020);
          URL http://www.quantum-espresso.org", 
     in publications or presentations arising from this work. More details at
     http://www.quantum-espresso.org/quote

     Parallel version (MPI), running on     1 processors

     MPI processes distributed on     1 nodes
     26872 MiB available memory on the printing compute node when the environment starts
 
     Waiting for input...
     Reading input from standard input
Warning: card &CELL ignored
Warning: card / ignored

     Current dimensions of program PWSCF are:
     Max number of different atomic species (ntypx) = 10
     Max number of k-points (npk) =  40000
     Max angular momentum in pseudopotentials (lmaxx) =  4
     file Cl.SCAN.UPF2: wavefunction(s)  0D renormalized

     WARNING: the MGGA functional with ID    5 has been 
     read together with other dft terms, but it should 
     stand alone in order to work properly. The other 
     terms will be ignored.

     WARNING: the MGGA functional with ID    5 has been 
     read together with other dft terms, but it should 
     stand alone in order to work properly. The other 
     terms will be ignored.

     Subspace diagonalization in iterative solution of the eigenvalue problem:
     a serial algorithm will be used

 
     G-vector sticks info
     --------------------
     sticks:   dense  smooth     PW     G-vecs:    dense   smooth      PW
     Sum         397     397    127                 5161     5161     965
 
     Using Slab Decomposition
 


     bravais-lattice index     =            2
     lattice parameter (alat)  =       7.5840  a.u.
     unit-cell volume          =     109.0523 (a.u.)^3
     number of atoms/cell      =            2
     number of atomic types    =            2
     number of electrons       =         8.00
     number of Kohn-Sham states=            4
     kinetic-energy cutoff     =      50.0000  Ry
     charge density cutoff     =     200.0000  Ry
     scf convergence threshold =      1.0E-06
     mixing beta               =       0.0100
     number of iterations used =            8  local-TF  mixing
     Exchange-correlation= SLA  PW   SCAN SCAN
                           (   0   0   0   0   0 263 267)

     celldm(1)=   7.584000  celldm(2)=   0.000000  celldm(3)=   0.000000
     celldm(4)=   0.000000  celldm(5)=   0.000000  celldm(6)=   0.000000

     crystal axes: (cart. coord. in units of alat)
               a(1) = (  -0.500000   0.000000   0.500000 )  
               a(2) = (   0.000000   0.500000   0.500000 )  
               a(3) = (  -0.500000   0.500000   0.000000 )  

     reciprocal axes: (cart. coord. in units 2 pi/alat)
               b(1) = ( -1.000000 -1.000000  1.000000 )  
               b(2) = (  1.000000  1.000000  1.000000 )  
               b(3) = ( -1.000000  1.000000 -1.000000 )  


     PseudoPot. # 1 for Li read from file:
     ~/Documents/TA/PWDFT.jl/pseudopotentials/scan_upf/Li.SCAN.UPF2
     MD5 check sum: Not computed, couldn't open file
     Pseudo is Norm-conserving, Zval =  1.0
     Generated by new atomic code, or converted to UPF format
     Using radial grid of 1321 points,  1 beta functions with: 
                l(1) =   0

     PseudoPot. # 2 for Cl read from file:
     ~/Documents/TA/PWDFT.jl/pseudopotentials/scan_upf/Cl.SCAN.UPF2
     MD5 check sum: Not computed, couldn't open file
     Pseudo is Norm-conserving, Zval =  7.0
     Generated by new atomic code, or converted to UPF format
     Using radial grid of 1493 points,  2 beta functions with: 
                l(1) =   0
                l(2) =   1

     atomic species   valence    mass     pseudopotential
        Li             1.00     6.94100     Li( 1.00)
        Cl             7.00    35.45300     Cl( 1.00)

     48 Sym. Ops., with inversion, found



   Cartesian axes

     site n.     atom                  positions (alat units)
         1           Li  tau(   1) = (   0.0000000   0.0000000   0.0000000  )
         2           Cl  tau(   2) = (   0.5000000   0.5000000   0.5000000  )

     number of k points=    47
                       cart. coord. in units 2pi/alat
        k(    1) = (   0.0000000   0.0000000   0.0000000), wk =   0.0020000
        k(    2) = (  -0.1000000   0.1000000  -0.1000000), wk =   0.0160000
        k(    3) = (  -0.2000000   0.2000000  -0.2000000), wk =   0.0160000
        k(    4) = (  -0.3000000   0.3000000  -0.3000000), wk =   0.0160000
        k(    5) = (  -0.4000000   0.4000000  -0.4000000), wk =   0.0160000
        k(    6) = (   0.5000000  -0.5000000   0.5000000), wk =   0.0080000
        k(    7) = (   0.0000000   0.2000000   0.0000000), wk =   0.0120000
        k(    8) = (  -0.1000000   0.3000000  -0.1000000), wk =   0.0480000
        k(    9) = (  -0.2000000   0.4000000  -0.2000000), wk =   0.0480000
        k(   10) = (  -0.3000000   0.5000000  -0.3000000), wk =   0.0480000
        k(   11) = (   0.6000000  -0.4000000   0.6000000), wk =   0.0480000
        k(   12) = (   0.5000000  -0.3000000   0.5000000), wk =   0.0480000
        k(   13) = (   0.4000000  -0.2000000   0.4000000), wk =   0.0480000
        k(   14) = (   0.3000000  -0.1000000   0.3000000), wk =   0.0480000
        k(   15) = (   0.2000000   0.0000000   0.2000000), wk =   0.0240000
        k(   16) = (   0.0000000   0.4000000   0.0000000), wk =   0.0120000
        k(   17) = (  -0.1000000   0.5000000  -0.1000000), wk =   0.0480000
        k(   18) = (  -0.2000000   0.6000000  -0.2000000), wk =   0.0480000
        k(   19) = (   0.7000000  -0.3000000   0.7000000), wk =   0.0480000
        k(   20) = (   0.6000000  -0.2000000   0.6000000), wk =   0.0480000
        k(   21) = (   0.5000000  -0.1000000   0.5000000), wk =   0.0480000
        k(   22) = (   0.4000000   0.0000000   0.4000000), wk =   0.0240000
        k(   23) = (   0.0000000   0.6000000   0.0000000), wk =   0.0120000
        k(   24) = (  -0.1000000   0.7000000  -0.1000000), wk =   0.0480000
        k(   25) = (   0.8000000  -0.2000000   0.8000000), wk =   0.0480000
        k(   26) = (   0.7000000  -0.1000000   0.7000000), wk =   0.0480000
        k(   27) = (   0.6000000  -0.0000000   0.6000000), wk =   0.0240000
        k(   28) = (   0.0000000   0.8000000   0.0000000), wk =   0.0120000
        k(   29) = (   0.9000000  -0.1000000   0.9000000), wk =   0.0480000
        k(   30) = (   0.8000000   0.0000000   0.8000000), wk =   0.0240000
        k(   31) = (   0.0000000  -1.0000000   0.0000000), wk =   0.0060000
        k(   32) = (  -0.2000000   0.4000000   0.0000000), wk =   0.0480000
        k(   33) = (  -0.3000000   0.5000000  -0.1000000), wk =   0.0960000
        k(   34) = (   0.6000000  -0.4000000   0.8000000), wk =   0.0960000
        k(   35) = (   0.5000000  -0.3000000   0.7000000), wk =   0.0480000
        k(   36) = (  -0.2000000   0.6000000   0.0000000), wk =   0.0480000
        k(   37) = (   0.7000000  -0.3000000   0.9000000), wk =   0.0960000
        k(   38) = (   0.6000000  -0.2000000   0.8000000), wk =   0.0960000
        k(   39) = (   0.5000000  -0.1000000   0.7000000), wk =   0.0960000
        k(   40) = (   0.4000000   0.0000000   0.6000000), wk =   0.0480000
        k(   41) = (   0.8000000  -0.2000000   1.0000000), wk =   0.0480000
        k(   42) = (   0.7000000  -0.1000000   0.9000000), wk =   0.0960000
        k(   43) = (   0.6000000   0.0000000   0.8000000), wk =   0.0480000
        k(   44) = (  -0.2000000  -1.0000000   0.0000000), wk =   0.0240000
        k(   45) = (   0.6000000  -0.2000000   1.0000000), wk =   0.0480000
        k(   46) = (   0.5000000  -0.1000000   0.9000000), wk =   0.0480000
        k(   47) = (  -0.4000000  -1.0000000   0.0000000), wk =   0.0240000

     Dense  grid:     5161 G-vectors     FFT dimensions: (  25,  25,  25)

     Estimated max dynamical RAM per process >       9.94 MB

     WARNING: libxc functional with ID  263 depends
      on external parameters: check the user_guide of
      QE if you need to modify them or to check their
      default values.

     Initial potential from superposition of free atoms

     starting charge       7.9953, renormalised to       8.0000
     Starting wfcs are   13 randomized atomic wfcs

     total cpu time spent up to now is        2.9 secs

     Self-consistent Calculation

     iteration #  1     ecut=    50.00 Ry     beta= 0.01
     Davidson diagonalization with overlap
     ethr =  1.00E-02,  avg # of iterations =  1.9

     total cpu time spent up to now is        5.0 secs

     total energy              =     -30.35529950 Ry
     estimated scf accuracy    <       0.38354027 Ry

     iteration #  2     ecut=    50.00 Ry     beta= 0.01
     Davidson diagonalization with overlap
     ethr =  4.79E-03,  avg # of iterations =  1.0

     total cpu time spent up to now is        6.9 secs

     total energy              =     -30.40816959 Ry
     estimated scf accuracy    <       0.36991180 Ry

     iteration #  3     ecut=    50.00 Ry     beta= 0.01
     Davidson diagonalization with overlap
     ethr =  4.62E-03,  avg # of iterations =  1.0

     total cpu time spent up to now is        8.8 secs

     total energy              =     -30.46234577 Ry
     estimated scf accuracy    <       0.21836765 Ry

     iteration #  4     ecut=    50.00 Ry     beta= 0.01
     Davidson diagonalization with overlap
     ethr =  2.73E-03,  avg # of iterations =  1.0

     total cpu time spent up to now is       10.7 secs

     total energy              =     -30.46454935 Ry
     estimated scf accuracy    <       0.00354632 Ry

     iteration #  5     ecut=    50.00 Ry     beta= 0.01
     Davidson diagonalization with overlap
     ethr =  4.43E-05,  avg # of iterations =  1.0

     total cpu time spent up to now is       12.4 secs

     total energy              =     -30.46468597 Ry
     estimated scf accuracy    <       0.00348520 Ry

     iteration #  6     ecut=    50.00 Ry     beta= 0.01
     Davidson diagonalization with overlap
     ethr =  4.36E-05,  avg # of iterations =  1.0

     total cpu time spent up to now is       14.1 secs

     total energy              =     -30.46466516 Ry
     estimated scf accuracy    <       0.00364556 Ry

     iteration #  7     ecut=    50.00 Ry     beta= 0.01
     Davidson diagonalization with overlap
     ethr =  4.36E-05,  avg # of iterations =  1.0

     total cpu time spent up to now is       15.8 secs

     total energy              =     -30.46361177 Ry
     estimated scf accuracy    <       0.00335430 Ry

     iteration #  8     ecut=    50.00 Ry     beta= 0.01
     Davidson diagonalization with overlap
     ethr =  4.19E-05,  avg # of iterations =  2.0

     total cpu time spent up to now is       18.2 secs

     total energy              =     -30.46415215 Ry
     estimated scf accuracy    <       0.00034981 Ry

     iteration #  9     ecut=    50.00 Ry     beta= 0.01
     Davidson diagonalization with overlap
     ethr =  4.37E-06,  avg # of iterations =  1.0

     total cpu time spent up to now is       20.1 secs

     total energy              =     -30.46415716 Ry
     estimated scf accuracy    <       0.00067335 Ry

     iteration # 10     ecut=    50.00 Ry     beta= 0.01
     Davidson diagonalization with overlap
     ethr =  4.37E-06,  avg # of iterations =  1.0

     total cpu time spent up to now is       21.9 secs

     total energy              =     -30.46410439 Ry
     estimated scf accuracy    <       0.00058290 Ry

     iteration # 11     ecut=    50.00 Ry     beta= 0.01
     Davidson diagonalization with overlap
     ethr =  4.37E-06,  avg # of iterations =  1.0

     total cpu time spent up to now is       23.6 secs

     total energy              =     -30.46412576 Ry
     estimated scf accuracy    <       0.00002458 Ry

     iteration # 12     ecut=    50.00 Ry     beta= 0.01
     Davidson diagonalization with overlap
     ethr =  3.07E-07,  avg # of iterations =  1.0

     total cpu time spent up to now is       25.2 secs

     total energy              =     -30.46412688 Ry
     estimated scf accuracy    <       0.00004930 Ry

     iteration # 13     ecut=    50.00 Ry     beta= 0.01
     Davidson diagonalization with overlap
     ethr =  3.07E-07,  avg # of iterations =  1.0

     total cpu time spent up to now is       27.0 secs

     total energy              =     -30.46412592 Ry
     estimated scf accuracy    <       0.00004676 Ry

     iteration # 14     ecut=    50.00 Ry     beta= 0.01
     Davidson diagonalization with overlap
     ethr =  3.07E-07,  avg # of iterations =  1.0

     total cpu time spent up to now is       28.7 secs

     total energy              =     -30.46412561 Ry
     estimated scf accuracy    <       0.00001502 Ry

     iteration # 15     ecut=    50.00 Ry     beta= 0.01
     Davidson diagonalization with overlap
     ethr =  1.88E-07,  avg # of iterations =  1.0

     total cpu time spent up to now is       30.2 secs

     total energy              =     -30.46412601 Ry
     estimated scf accuracy    <       0.00000117 Ry

     iteration # 16     ecut=    50.00 Ry     beta= 0.01
     Davidson diagonalization with overlap
     ethr =  1.46E-08,  avg # of iterations =  1.0

     total cpu time spent up to now is       31.6 secs

     total energy              =     -30.46412594 Ry
     estimated scf accuracy    <       0.00000123 Ry

     iteration # 17     ecut=    50.00 Ry     beta= 0.01
     Davidson diagonalization with overlap
     ethr =  1.46E-08,  avg # of iterations =  1.0

     total cpu time spent up to now is       32.8 secs

     End of self-consistent calculation

          k = 0.0000 0.0000 0.0000 (   645 PWs)   bands (ev):

    -8.1212  10.7096  10.7096  10.7096

          k =-0.1000 0.1000-0.1000 (   646 PWs)   bands (ev):

    -7.9541   9.8283  10.6046  10.6046

          k =-0.2000 0.2000-0.2000 (   646 PWs)   bands (ev):

    -7.4757   7.8008  10.3598  10.3598

          k =-0.3000 0.3000-0.3000 (   640 PWs)   bands (ev):

    -6.7725   5.5715  10.1069  10.1069

          k =-0.4000 0.4000-0.4000 (   634 PWs)   bands (ev):

    -6.0588   3.8172   9.9351   9.9351

          k = 0.5000-0.5000 0.5000 (   652 PWs)   bands (ev):

    -5.7317   3.1253   9.8763   9.8763

          k = 0.0000 0.2000 0.0000 (   645 PWs)   bands (ev):

    -7.8961  10.2030  10.2030  10.2204

          k =-0.1000 0.3000-0.1000 (   649 PWs)   bands (ev):

    -7.5139   8.5029   9.7522  10.1991

          k =-0.2000 0.4000-0.2000 (   640 PWs)   bands (ev):

    -6.8682   6.3133   9.4301   9.8416

          k =-0.3000 0.5000-0.3000 (   645 PWs)   bands (ev):

    -6.1216   4.3680   9.3316   9.3533

          k = 0.6000-0.4000 0.6000 (   649 PWs)   bands (ev):

    -5.6173   3.2809   8.9292   9.4737

          k = 0.5000-0.3000 0.5000 (   647 PWs)   bands (ev):

    -5.7357   3.5285   8.6918   9.8087

          k = 0.4000-0.2000 0.4000 (   641 PWs)   bands (ev):

    -6.3743   4.9894   8.7043  10.2341

          k = 0.3000-0.1000 0.3000 (   643 PWs)   bands (ev):

    -7.1141   7.0871   8.9880  10.6051

          k = 0.2000 0.0000 0.2000 (   650 PWs)   bands (ev):

    -7.6804   9.0230   9.6359  10.7614

          k = 0.0000 0.4000 0.0000 (   649 PWs)   bands (ev):

    -7.2235   8.5559   9.1008   9.1008

          k =-0.1000 0.5000-0.1000 (   650 PWs)   bands (ev):

    -6.6463   6.7768   8.6324   8.6537

          k =-0.2000 0.6000-0.2000 (   655 PWs)   bands (ev):

    -5.9062   4.8987   7.9111   8.4586

          k = 0.7000-0.3000 0.7000 (   653 PWs)   bands (ev):

    -5.2886   3.6237   7.1816   8.6119

          k = 0.6000-0.2000 0.6000 (   657 PWs)   bands (ev):

    -5.2126   3.5301   6.7003   9.0623

          k = 0.5000-0.1000 0.5000 (   649 PWs)   bands (ev):

    -5.7425   4.7045   6.5651   9.7045

          k = 0.4000 0.0000 0.4000 (   642 PWs)   bands (ev):

    -6.4858   6.3780   7.0690  10.3232

          k = 0.0000 0.6000 0.0000 (   644 PWs)   bands (ev):

    -6.1358   5.9263   8.0132   8.0132

          k =-0.1000 0.7000-0.1000 (   648 PWs)   bands (ev):

    -5.4385   4.4935   7.2905   7.7109

          k = 0.8000-0.2000 0.8000 (   658 PWs)   bands (ev):

    -4.8003   3.4743   6.2538   7.7747

          k = 0.7000-0.1000 0.7000 (   655 PWs)   bands (ev):

    -4.6212   3.4248   5.3762   8.1959

          k = 0.6000-0.0000 0.6000 (   666 PWs)   bands (ev):

    -5.0467   4.4601   4.9665   8.9014

          k = 0.0000 0.8000 0.0000 (   660 PWs)   bands (ev):

    -4.8203   3.3197   7.2714   7.2714

          k = 0.9000-0.1000 0.9000 (   658 PWs)   bands (ev):

    -4.2958   2.5484   6.6565   7.2090

          k = 0.8000 0.0000 0.8000 (   648 PWs)   bands (ev):

    -4.2147   2.6912   5.7221   7.5324

          k = 0.0000-1.0000 0.0000 (   636 PWs)   bands (ev):

    -4.0593   2.0766   7.0119   7.0119

          k =-0.2000 0.4000 0.0000 (   643 PWs)   bands (ev):

    -7.0369   7.5298   8.4313  10.0390

          k =-0.3000 0.5000-0.1000 (   644 PWs)   bands (ev):

    -6.3351   5.6953   7.7018   9.6660

          k = 0.6000-0.4000 0.8000 (   651 PWs)   bands (ev):

    -5.6213   4.0282   7.4340   9.2338

          k = 0.5000-0.3000 0.7000 (   658 PWs)   bands (ev):

    -5.2926   3.3556   7.3663   9.0474

          k =-0.2000 0.6000 0.0000 (   648 PWs)   bands (ev):

    -6.0054   5.6114   7.2679   8.5384

          k = 0.7000-0.3000 0.9000 (   654 PWs)   bands (ev):

    -5.2829   4.3034   6.3436   8.2727

          k = 0.6000-0.2000 0.8000 (   657 PWs)   bands (ev):

    -4.8262   3.5683   5.7559   8.2716

          k = 0.5000-0.1000 0.7000 (   658 PWs)   bands (ev):

    -4.9866   3.9976   5.4690   8.6227

          k = 0.4000 0.0000 0.6000 (   651 PWs)   bands (ev):

    -5.6238   5.2064   5.7985   9.1882

          k = 0.8000-0.2000 1.0000 (   658 PWs)   bands (ev):

    -4.7844   3.4598   6.4838   7.5297

          k = 0.7000-0.1000 0.9000 (   657 PWs)   bands (ev):

    -4.3513   3.0550   5.5080   7.5829

          k = 0.6000 0.0000 0.8000 (   659 PWs)   bands (ev):

    -4.4512   3.5844   4.7822   7.9794

          k =-0.2000-1.0000 0.0000 (   658 PWs)   bands (ev):

    -4.1061   2.3847   6.2109   7.2115

          k = 0.6000-0.2000 1.0000 (   656 PWs)   bands (ev):

    -4.6635   3.9448   4.9576   7.9638

          k = 0.5000-0.1000 0.9000 (   656 PWs)   bands (ev):

    -4.3853   3.8261   4.4009   7.8149

          k =-0.4000-1.0000 0.0000 (   662 PWs)   bands (ev):

    -4.1788   3.2833   4.6671   7.5439

     highest occupied level (ev):    10.7614

!    total energy              =     -30.46412595 Ry
     estimated scf accuracy    <       0.00000026 Ry

     The total energy is the sum of the following terms:
     one-electron contribution =       5.74311132 Ry
     hartree contribution      =       2.80378652 Ry
     xc contribution           =      -6.77218352 Ry
     ewald contribution        =     -32.23884026 Ry

     convergence has been achieved in  17 iterations
     Writing meta-gga kinetic term

     Writing all to output data dir ./input_pw/LiCl/3/pwscf.save/
     Writing meta-gga kinetic term
 
     init_run     :      0.95s CPU      2.75s WALL (       1 calls)
     electrons    :     12.40s CPU     29.91s WALL (       1 calls)

     Called by init_run:
     wfcinit      :      0.83s CPU      2.46s WALL (       1 calls)
     potinit      :      0.01s CPU      0.03s WALL (       1 calls)
     hinit0       :      0.10s CPU      0.24s WALL (       1 calls)

     Called by electrons:
     c_bands      :      9.68s CPU     23.64s WALL (      17 calls)
     sum_band     :      2.43s CPU      5.63s WALL (      17 calls)
     v_of_rho     :      0.17s CPU      0.43s WALL (      18 calls)
     mix_rho      :      0.12s CPU      0.24s WALL (      17 calls)

     Called by c_bands:
     init_us_2    :      0.14s CPU      0.35s WALL (    1645 calls)
     init_us_2:cp :      0.14s CPU      0.34s WALL (    1645 calls)
     cegterg      :      9.54s CPU     23.34s WALL (     799 calls)

     Called by *egterg:
     cdiaghg      :      0.09s CPU      0.19s WALL (    1689 calls)
     h_psi        :     10.09s CPU     24.97s WALL (    1736 calls)
     g_psi        :      0.01s CPU      0.04s WALL (     890 calls)

     Called by h_psi:
     h_psi:calbec :      0.04s CPU      0.06s WALL (    1736 calls)
     vloc_psi     :      2.49s CPU      6.38s WALL (    1736 calls)
     add_vuspsi   :      0.04s CPU      0.08s WALL (    1736 calls)
     h_psi_meta   :      7.50s CPU     18.40s WALL (    1736 calls)

     General routines
     calbec       :      0.03s CPU      0.06s WALL (    1736 calls)
     fft          :      0.03s CPU      0.11s WALL (     213 calls)
     ffts         :      0.05s CPU      0.11s WALL (     346 calls)
     fftw         :     10.94s CPU     27.22s WALL (   70992 calls)
     interpolate  :      0.00s CPU      0.00s WALL (      18 calls)
 
     Parallel routines
 
     PWSCF        :     13.40s CPU     32.82s WALL

 
   This run was terminated on:  14:29:15  14Mar2023            

=------------------------------------------------------------------------------=
   JOB DONE.
=------------------------------------------------------------------------------=
