
     Program PWSCF v.7.0 starts on 29Mar2023 at 10:21:34 

     This program is part of the open-source Quantum ESPRESSO suite
     for quantum simulation of materials; please cite
         "P. Giannozzi et al., J. Phys.:Condens. Matter 21 395502 (2009);
         "P. Giannozzi et al., J. Phys.:Condens. Matter 29 465901 (2017);
         "P. Giannozzi et al., J. Chem. Phys. 152 154105 (2020);
          URL http://www.quantum-espresso.org", 
     in publications or presentations arising from this work. More details at
     http://www.quantum-espresso.org/quote

     Parallel version (MPI), running on     1 processors

     MPI processes distributed on     1 nodes
     24112 MiB available memory on the printing compute node when the environment starts
 
     Waiting for input...
     Reading input from standard input
Warning: card &CELL ignored
Warning: card / ignored

     Current dimensions of program PWSCF are:
     Max number of different atomic species (ntypx) = 10
     Max number of k-points (npk) =  40000
     Max angular momentum in pseudopotentials (lmaxx) =  4
     file Cl.SCAN.UPF2: wavefunction(s)  0D renormalized

     WARNING: the MGGA functional with ID    5 has been 
     read together with other dft terms, but it should 
     stand alone in order to work properly. The other 
     terms will be ignored.

     WARNING: the MGGA functional with ID    5 has been 
     read together with other dft terms, but it should 
     stand alone in order to work properly. The other 
     terms will be ignored.

     Subspace diagonalization in iterative solution of the eigenvalue problem:
     a serial algorithm will be used

 
     G-vector sticks info
     --------------------
     sticks:   dense  smooth     PW     G-vecs:    dense   smooth      PW
     Sum         547     547    163                 8291     8291    1459
 
     Using Slab Decomposition
 


     bravais-lattice index     =            2
     lattice parameter (alat)  =       8.8396  a.u.
     unit-cell volume          =     172.6783 (a.u.)^3
     number of atoms/cell      =            2
     number of atomic types    =            2
     number of electrons       =         8.00
     number of Kohn-Sham states=            4
     kinetic-energy cutoff     =      50.0000  Ry
     charge density cutoff     =     200.0000  Ry
     scf convergence threshold =      1.0E-06
     mixing beta               =       0.0100
     number of iterations used =            8  local-TF  mixing
     Exchange-correlation= SLA  PW   SCAN SCAN
                           (   0   0   0   0   0 263 267)

     celldm(1)=   8.839600  celldm(2)=   0.000000  celldm(3)=   0.000000
     celldm(4)=   0.000000  celldm(5)=   0.000000  celldm(6)=   0.000000

     crystal axes: (cart. coord. in units of alat)
               a(1) = (  -0.500000   0.000000   0.500000 )  
               a(2) = (   0.000000   0.500000   0.500000 )  
               a(3) = (  -0.500000   0.500000   0.000000 )  

     reciprocal axes: (cart. coord. in units 2 pi/alat)
               b(1) = ( -1.000000 -1.000000  1.000000 )  
               b(2) = (  1.000000  1.000000  1.000000 )  
               b(3) = ( -1.000000  1.000000 -1.000000 )  


     PseudoPot. # 1 for Li read from file:
     ~/Documents/TA/PWDFT.jl/pseudopotentials/scan_upf/Li.SCAN.UPF2
     MD5 check sum: Not computed, couldn't open file
     Pseudo is Norm-conserving, Zval =  1.0
     Generated by new atomic code, or converted to UPF format
     Using radial grid of 1321 points,  1 beta functions with: 
                l(1) =   0

     PseudoPot. # 2 for Cl read from file:
     ~/Documents/TA/PWDFT.jl/pseudopotentials/scan_upf/Cl.SCAN.UPF2
     MD5 check sum: Not computed, couldn't open file
     Pseudo is Norm-conserving, Zval =  7.0
     Generated by new atomic code, or converted to UPF format
     Using radial grid of 1493 points,  2 beta functions with: 
                l(1) =   0
                l(2) =   1

     atomic species   valence    mass     pseudopotential
        Li             1.00     6.94100     Li( 1.00)
        Cl             7.00    35.45300     Cl( 1.00)

     48 Sym. Ops., with inversion, found



   Cartesian axes

     site n.     atom                  positions (alat units)
         1           Li  tau(   1) = (   0.0000000   0.0000000   0.0000000  )
         2           Cl  tau(   2) = (   0.5000000   0.5000000   0.5000000  )

     number of k points=    47
                       cart. coord. in units 2pi/alat
        k(    1) = (   0.0000000   0.0000000   0.0000000), wk =   0.0020000
        k(    2) = (  -0.1000000   0.1000000  -0.1000000), wk =   0.0160000
        k(    3) = (  -0.2000000   0.2000000  -0.2000000), wk =   0.0160000
        k(    4) = (  -0.3000000   0.3000000  -0.3000000), wk =   0.0160000
        k(    5) = (  -0.4000000   0.4000000  -0.4000000), wk =   0.0160000
        k(    6) = (   0.5000000  -0.5000000   0.5000000), wk =   0.0080000
        k(    7) = (   0.0000000   0.2000000   0.0000000), wk =   0.0120000
        k(    8) = (  -0.1000000   0.3000000  -0.1000000), wk =   0.0480000
        k(    9) = (  -0.2000000   0.4000000  -0.2000000), wk =   0.0480000
        k(   10) = (  -0.3000000   0.5000000  -0.3000000), wk =   0.0480000
        k(   11) = (   0.6000000  -0.4000000   0.6000000), wk =   0.0480000
        k(   12) = (   0.5000000  -0.3000000   0.5000000), wk =   0.0480000
        k(   13) = (   0.4000000  -0.2000000   0.4000000), wk =   0.0480000
        k(   14) = (   0.3000000  -0.1000000   0.3000000), wk =   0.0480000
        k(   15) = (   0.2000000   0.0000000   0.2000000), wk =   0.0240000
        k(   16) = (   0.0000000   0.4000000   0.0000000), wk =   0.0120000
        k(   17) = (  -0.1000000   0.5000000  -0.1000000), wk =   0.0480000
        k(   18) = (  -0.2000000   0.6000000  -0.2000000), wk =   0.0480000
        k(   19) = (   0.7000000  -0.3000000   0.7000000), wk =   0.0480000
        k(   20) = (   0.6000000  -0.2000000   0.6000000), wk =   0.0480000
        k(   21) = (   0.5000000  -0.1000000   0.5000000), wk =   0.0480000
        k(   22) = (   0.4000000   0.0000000   0.4000000), wk =   0.0240000
        k(   23) = (   0.0000000   0.6000000   0.0000000), wk =   0.0120000
        k(   24) = (  -0.1000000   0.7000000  -0.1000000), wk =   0.0480000
        k(   25) = (   0.8000000  -0.2000000   0.8000000), wk =   0.0480000
        k(   26) = (   0.7000000  -0.1000000   0.7000000), wk =   0.0480000
        k(   27) = (   0.6000000  -0.0000000   0.6000000), wk =   0.0240000
        k(   28) = (   0.0000000   0.8000000   0.0000000), wk =   0.0120000
        k(   29) = (   0.9000000  -0.1000000   0.9000000), wk =   0.0480000
        k(   30) = (   0.8000000   0.0000000   0.8000000), wk =   0.0240000
        k(   31) = (   0.0000000  -1.0000000   0.0000000), wk =   0.0060000
        k(   32) = (  -0.2000000   0.4000000   0.0000000), wk =   0.0480000
        k(   33) = (  -0.3000000   0.5000000  -0.1000000), wk =   0.0960000
        k(   34) = (   0.6000000  -0.4000000   0.8000000), wk =   0.0960000
        k(   35) = (   0.5000000  -0.3000000   0.7000000), wk =   0.0480000
        k(   36) = (  -0.2000000   0.6000000   0.0000000), wk =   0.0480000
        k(   37) = (   0.7000000  -0.3000000   0.9000000), wk =   0.0960000
        k(   38) = (   0.6000000  -0.2000000   0.8000000), wk =   0.0960000
        k(   39) = (   0.5000000  -0.1000000   0.7000000), wk =   0.0960000
        k(   40) = (   0.4000000   0.0000000   0.6000000), wk =   0.0480000
        k(   41) = (   0.8000000  -0.2000000   1.0000000), wk =   0.0480000
        k(   42) = (   0.7000000  -0.1000000   0.9000000), wk =   0.0960000
        k(   43) = (   0.6000000   0.0000000   0.8000000), wk =   0.0480000
        k(   44) = (  -0.2000000  -1.0000000   0.0000000), wk =   0.0240000
        k(   45) = (   0.6000000  -0.2000000   1.0000000), wk =   0.0480000
        k(   46) = (   0.5000000  -0.1000000   0.9000000), wk =   0.0480000
        k(   47) = (  -0.4000000  -1.0000000   0.0000000), wk =   0.0240000

     Dense  grid:     8291 G-vectors     FFT dimensions: (  30,  30,  30)

     Estimated max dynamical RAM per process >      16.03 MB

     WARNING: libxc functional with ID  263 depends
      on external parameters: check the user_guide of
      QE if you need to modify them or to check their
      default values.

     Initial potential from superposition of free atoms

     starting charge       7.9953, renormalised to       8.0000
     Starting wfcs are   13 randomized atomic wfcs

     total cpu time spent up to now is        3.9 secs

     Self-consistent Calculation

     iteration #  1     ecut=    50.00 Ry     beta= 0.01
     Davidson diagonalization with overlap
     ethr =  1.00E-02,  avg # of iterations =  1.0

     total cpu time spent up to now is        6.7 secs

     total energy              =     -30.62002104 Ry
     estimated scf accuracy    <       0.35942498 Ry

     iteration #  2     ecut=    50.00 Ry     beta= 0.01
     Davidson diagonalization with overlap
     ethr =  4.49E-03,  avg # of iterations =  1.0

     total cpu time spent up to now is        9.2 secs

     total energy              =     -30.64285381 Ry
     estimated scf accuracy    <       0.34154349 Ry

     iteration #  3     ecut=    50.00 Ry     beta= 0.01
     Davidson diagonalization with overlap
     ethr =  4.27E-03,  avg # of iterations =  1.0

     total cpu time spent up to now is       11.8 secs

     total energy              =     -30.70616881 Ry
     estimated scf accuracy    <       0.26293905 Ry

     iteration #  4     ecut=    50.00 Ry     beta= 0.01
     Davidson diagonalization with overlap
     ethr =  3.29E-03,  avg # of iterations =  1.0

     total cpu time spent up to now is       14.5 secs

     total energy              =     -30.70857945 Ry
     estimated scf accuracy    <       0.00359940 Ry

     iteration #  5     ecut=    50.00 Ry     beta= 0.01
     Davidson diagonalization with overlap
     ethr =  4.50E-05,  avg # of iterations =  1.0

     total cpu time spent up to now is       17.1 secs

     total energy              =     -30.70869686 Ry
     estimated scf accuracy    <       0.00354533 Ry

     iteration #  6     ecut=    50.00 Ry     beta= 0.01
     Davidson diagonalization with overlap
     ethr =  4.43E-05,  avg # of iterations =  1.0

     total cpu time spent up to now is       19.8 secs

     total energy              =     -30.70789451 Ry
     estimated scf accuracy    <       0.00345242 Ry

     iteration #  7     ecut=    50.00 Ry     beta= 0.01
     Davidson diagonalization with overlap
     ethr =  4.32E-05,  avg # of iterations =  1.0

     total cpu time spent up to now is       22.4 secs

     total energy              =     -30.70801920 Ry
     estimated scf accuracy    <       0.00040092 Ry

     iteration #  8     ecut=    50.00 Ry     beta= 0.01
     Davidson diagonalization with overlap
     ethr =  5.01E-06,  avg # of iterations =  2.0

     total cpu time spent up to now is       26.3 secs

     total energy              =     -30.70837840 Ry
     estimated scf accuracy    <       0.00180323 Ry

     iteration #  9     ecut=    50.00 Ry     beta= 0.01
     Davidson diagonalization with overlap
     ethr =  5.01E-06,  avg # of iterations =  1.0

     total cpu time spent up to now is       28.9 secs

     total energy              =     -30.70833871 Ry
     estimated scf accuracy    <       0.00204651 Ry

     iteration # 10     ecut=    50.00 Ry     beta= 0.01
     Davidson diagonalization with overlap
     ethr =  5.01E-06,  avg # of iterations =  1.0

     total cpu time spent up to now is       31.2 secs

     total energy              =     -30.70803314 Ry
     estimated scf accuracy    <       0.00139389 Ry

     iteration # 11     ecut=    50.00 Ry     beta= 0.01
     Davidson diagonalization with overlap
     ethr =  5.01E-06,  avg # of iterations =  2.0

     total cpu time spent up to now is       34.2 secs

     total energy              =     -30.70812099 Ry
     estimated scf accuracy    <       0.00000778 Ry

     iteration # 12     ecut=    50.00 Ry     beta= 0.01
     Davidson diagonalization with overlap
     ethr =  9.73E-08,  avg # of iterations =  1.4

     total cpu time spent up to now is       36.1 secs

     total energy              =     -30.70812133 Ry
     estimated scf accuracy    <       0.00000404 Ry

     iteration # 13     ecut=    50.00 Ry     beta= 0.01
     Davidson diagonalization with overlap
     ethr =  5.05E-08,  avg # of iterations =  1.0

     total cpu time spent up to now is       38.3 secs

     total energy              =     -30.70812324 Ry
     estimated scf accuracy    <       0.00000266 Ry

     iteration # 14     ecut=    50.00 Ry     beta= 0.01
     Davidson diagonalization with overlap
     ethr =  3.32E-08,  avg # of iterations =  2.0

     total cpu time spent up to now is       40.6 secs

     End of self-consistent calculation

          k = 0.0000 0.0000 0.0000 (   965 PWs)   bands (ev):

   -11.4103   3.7594   3.7594   3.7594

          k =-0.1000 0.1000-0.1000 (  1007 PWs)   bands (ev):

   -11.3200   3.2600   3.7145   3.7145

          k =-0.2000 0.2000-0.2000 (  1007 PWs)   bands (ev):

   -11.0673   2.1015   3.6030   3.6030

          k =-0.3000 0.3000-0.3000 (  1023 PWs)   bands (ev):

   -10.7216   0.8405   3.4766   3.4766

          k =-0.4000 0.4000-0.4000 (  1038 PWs)   bands (ev):

   -10.4068  -0.1098   3.3825   3.3825

          k = 0.5000-0.5000 0.5000 (  1056 PWs)   bands (ev):

   -10.2762  -0.4649   3.3483   3.3483

          k = 0.0000 0.2000 0.0000 (  1006 PWs)   bands (ev):

   -11.2889   3.3628   3.5536   3.5536

          k =-0.1000 0.3000-0.1000 (  1016 PWs)   bands (ev):

   -11.0877   2.4556   3.3548   3.4938

          k =-0.2000 0.4000-0.2000 (  1024 PWs)   bands (ev):

   -10.7675   1.2394   3.1976   3.3360

          k =-0.3000 0.5000-0.3000 (  1028 PWs)   bands (ev):

   -10.4325   0.1973   3.1100   3.1360

          k = 0.6000-0.4000 0.6000 (  1029 PWs)   bands (ev):

   -10.2310  -0.3509   2.9084   3.1867

          k = 0.5000-0.3000 0.5000 (  1030 PWs)   bands (ev):

   -10.2763  -0.2269   2.8011   3.3308

          k = 0.4000-0.2000 0.4000 (  1040 PWs)   bands (ev):

   -10.5413   0.5253   2.8265   3.5206

          k = 0.3000-0.1000 0.3000 (  1019 PWs)   bands (ev):

   -10.8859   1.6529   2.9956   3.6886

          k = 0.2000 0.0000 0.2000 (  1005 PWs)   bands (ev):

   -11.1739   2.7252   3.3245   3.7662

          k = 0.0000 0.4000 0.0000 (  1010 PWs)   bands (ev):

   -10.9413   2.3012   3.0593   3.0593

          k =-0.1000 0.5000-0.1000 (  1021 PWs)   bands (ev):

   -10.6654   1.4027   2.8104   2.8289

          k =-0.2000 0.6000-0.2000 (  1032 PWs)   bands (ev):

   -10.3444   0.4780   2.4355   2.7351

          k = 0.7000-0.3000 0.7000 (  1031 PWs)   bands (ev):

   -10.1085  -0.0954   2.0320   2.8027

          k = 0.6000-0.2000 0.6000 (  1032 PWs)   bands (ev):

   -10.0810  -0.1113   1.7567   3.0131

          k = 0.5000-0.1000 0.5000 (  1036 PWs)   bands (ev):

   -10.2774   0.4181   1.7282   3.3030

          k = 0.4000 0.0000 0.4000 (  1023 PWs)   bands (ev):

   -10.5905   1.1375   2.1367   3.5675

          k = 0.0000 0.6000 0.0000 (  1030 PWs)   bands (ev):

   -10.4417   0.9306   2.5178   2.5178

          k =-0.1000 0.7000-0.1000 (  1039 PWs)   bands (ev):

   -10.1652   0.2718   2.1526   2.3575

          k = 0.8000-0.2000 0.8000 (  1031 PWs)   bands (ev):

    -9.9443  -0.0974   1.5703   2.3878

          k = 0.7000-0.1000 0.7000 (  1035 PWs)   bands (ev):

    -9.8867   0.0252   0.9874   2.6017

          k = 0.6000-0.0000 0.6000 (  1029 PWs)   bands (ev):

   -10.0218   0.5396   0.7199   2.9442

          k = 0.0000 0.8000 0.0000 (  1030 PWs)   bands (ev):

    -9.9542  -0.2435   2.1229   2.1229

          k = 0.9000-0.1000 0.9000 (  1031 PWs)   bands (ev):

    -9.7989  -0.5078   1.7977   2.0881

          k = 0.8000 0.0000 0.8000 (  1037 PWs)   bands (ev):

    -9.7734  -0.3344   1.2431   2.2608

          k = 0.0000-1.0000 0.0000 (  1034 PWs)   bands (ev):

    -9.7400  -0.7145   1.9806   1.9806

          k =-0.2000 0.4000 0.0000 (  1024 PWs)   bands (ev):

   -10.8491   1.8054   2.7804   3.4365

          k =-0.3000 0.5000-0.1000 (  1032 PWs)   bands (ev):

   -10.5245   0.8710   2.3655   3.2781

          k = 0.6000-0.4000 0.8000 (  1041 PWs)   bands (ev):

   -10.2314   0.0708   2.1804   3.0802

          k = 0.5000-0.3000 0.7000 (  1036 PWs)   bands (ev):

   -10.1102  -0.2384   2.1316   2.9910

          k =-0.2000 0.6000 0.0000 (  1036 PWs)   bands (ev):

   -10.3859   0.7808   2.1930   2.7532

          k = 0.7000-0.3000 0.9000 (  1035 PWs)   bands (ev):

   -10.1062   0.2259   1.6882   2.6039

          k = 0.6000-0.2000 0.8000 (  1037 PWs)   bands (ev):

    -9.9507  -0.0083   1.3014   2.5949

          k = 0.5000-0.1000 0.7000 (  1034 PWs)   bands (ev):

   -10.0022   0.1976   1.1289   2.7779

          k = 0.4000 0.0000 0.6000 (  1036 PWs)   bands (ev):

   -10.2314   0.5806   1.4630   3.0600

          k = 0.8000-0.2000 1.0000 (  1032 PWs)   bands (ev):

    -9.9404  -0.1379   1.7691   2.2141

          k = 0.7000-0.1000 0.9000 (  1035 PWs)   bands (ev):

    -9.8090  -0.1847   1.2156   2.2147

          k = 0.6000 0.0000 0.8000 (  1036 PWs)   bands (ev):

    -9.8350   0.2039   0.6779   2.4329

          k =-0.2000-1.0000 0.0000 (  1030 PWs)   bands (ev):

    -9.7471  -0.5234   1.6171   2.0258

          k = 0.6000-0.2000 1.0000 (  1031 PWs)   bands (ev):

    -9.8984   0.1804   0.9870   2.3842

          k = 0.5000-0.1000 0.9000 (  1036 PWs)   bands (ev):

    -9.8152   0.2728   0.6265   2.2735

          k =-0.4000-1.0000 0.0000 (  1042 PWs)   bands (ev):

    -9.7590   0.0221   0.8179   2.0995

     highest occupied level (ev):     3.7662

!    total energy              =     -30.70812381 Ry
     estimated scf accuracy    <       0.00000016 Ry

     The total energy is the sum of the following terms:
     one-electron contribution =      -1.15761412 Ry
     hartree contribution      =       4.58940790 Ry
     xc contribution           =      -6.48036687 Ry
     ewald contribution        =     -27.65955072 Ry

     convergence has been achieved in  14 iterations
     Writing meta-gga kinetic term

     Writing all to output data dir ./input_pw/LiCl/3/pwscf.save/
     Writing meta-gga kinetic term
 
     init_run     :      1.74s CPU      3.85s WALL (       1 calls)
     electrons    :     19.55s CPU     36.71s WALL (       1 calls)

     Called by init_run:
     wfcinit      :      1.61s CPU      3.58s WALL (       1 calls)
     potinit      :      0.02s CPU      0.12s WALL (       1 calls)
     hinit0       :      0.09s CPU      0.13s WALL (       1 calls)

     Called by electrons:
     c_bands      :     15.34s CPU     29.05s WALL (      14 calls)
     sum_band     :      3.76s CPU      6.86s WALL (      14 calls)
     v_of_rho     :      0.25s CPU      0.53s WALL (      15 calls)
     mix_rho      :      0.20s CPU      0.37s WALL (      14 calls)

     Called by c_bands:
     init_us_2    :      0.18s CPU      0.33s WALL (    1363 calls)
     init_us_2:cp :      0.18s CPU      0.32s WALL (    1363 calls)
     cegterg      :     15.17s CPU     28.71s WALL (     658 calls)

     Called by *egterg:
     cdiaghg      :      0.09s CPU      0.17s WALL (    1474 calls)
     h_psi        :     16.43s CPU     31.73s WALL (    1521 calls)
     g_psi        :      0.01s CPU      0.01s WALL (     816 calls)

     Called by h_psi:
     h_psi:calbec :      0.05s CPU      0.11s WALL (    1521 calls)
     vloc_psi     :      4.05s CPU      7.73s WALL (    1521 calls)
     add_vuspsi   :      0.05s CPU      0.11s WALL (    1521 calls)
     h_psi_meta   :     12.24s CPU     23.71s WALL (    1521 calls)

     General routines
     calbec       :      0.05s CPU      0.09s WALL (    1521 calls)
     fft          :      0.05s CPU      0.12s WALL (     177 calls)
     ffts         :      0.09s CPU      0.13s WALL (     311 calls)
     fftw         :     17.61s CPU     34.03s WALL (   61672 calls)
     interpolate  :      0.00s CPU      0.00s WALL (      15 calls)
 
     Parallel routines
 
     PWSCF        :     21.34s CPU     40.64s WALL

 
   This run was terminated on:  10:22:15  29Mar2023            

=------------------------------------------------------------------------------=
   JOB DONE.
=------------------------------------------------------------------------------=
