
     Program PWSCF v.7.0 starts on  7Jul2023 at 14:25:23 

     This program is part of the open-source Quantum ESPRESSO suite
     for quantum simulation of materials; please cite
         "P. Giannozzi et al., J. Phys.:Condens. Matter 21 395502 (2009);
         "P. Giannozzi et al., J. Phys.:Condens. Matter 29 465901 (2017);
         "P. Giannozzi et al., J. Chem. Phys. 152 154105 (2020);
          URL http://www.quantum-espresso.org", 
     in publications or presentations arising from this work. More details at
     http://www.quantum-espresso.org/quote

     Parallel version (MPI), running on     1 processors

     MPI processes distributed on     1 nodes
     27390 MiB available memory on the printing compute node when the environment starts
 
     Waiting for input...
     Reading input from standard input
Warning: card &CELL ignored
Warning: card / ignored

     Current dimensions of program PWSCF are:
     Max number of different atomic species (ntypx) = 10
     Max number of k-points (npk) =  40000
     Max angular momentum in pseudopotentials (lmaxx) =  4

     WARNING: the MGGA functional with ID    5 has been 
     read together with other dft terms, but it should 
     stand alone in order to work properly. The other 
     terms will be ignored.

     Subspace diagonalization in iterative solution of the eigenvalue problem:
     a serial algorithm will be used

 
     G-vector sticks info
     --------------------
     sticks:   dense  smooth     PW     G-vecs:    dense   smooth      PW
     Sum         313     313    109                 3839     3839     749
 
     Using Slab Decomposition
 


     bravais-lattice index     =            2
     lattice parameter (alat)  =       6.8602  a.u.
     unit-cell volume          =      80.7128 (a.u.)^3
     number of atoms/cell      =            2
     number of atomic types    =            1
     number of electrons       =         8.00
     number of Kohn-Sham states=            4
     kinetic-energy cutoff     =      50.0000  Ry
     charge density cutoff     =     200.0000  Ry
     scf convergence threshold =      2.0E-05
     mixing beta               =       0.2000
     number of iterations used =            8  local-TF  mixing
     Exchange-correlation= SLA  PW   SCAN SCAN
                           (   0   0   0   0   0 263 267)

     celldm(1)=   6.860159  celldm(2)=   0.000000  celldm(3)=   0.000000
     celldm(4)=   0.000000  celldm(5)=   0.000000  celldm(6)=   0.000000

     crystal axes: (cart. coord. in units of alat)
               a(1) = (  -0.500000   0.000000   0.500000 )  
               a(2) = (   0.000000   0.500000   0.500000 )  
               a(3) = (  -0.500000   0.500000   0.000000 )  

     reciprocal axes: (cart. coord. in units 2 pi/alat)
               b(1) = ( -1.000000 -1.000000  1.000000 )  
               b(2) = (  1.000000  1.000000  1.000000 )  
               b(3) = ( -1.000000  1.000000 -1.000000 )  


     PseudoPot. # 1 for C  read from file:
     ~/Documents/TA/PWDFT.jl/pseudopotentials/scan_upf/C.SCAN.UPF2
     MD5 check sum: Not computed, couldn't open file
     Pseudo is Norm-conserving, Zval =  4.0
     Generated by new atomic code, or converted to UPF format
     Using radial grid of 1389 points,  1 beta functions with: 
                l(1) =   0

     atomic species   valence    mass     pseudopotential
        C              4.00    12.01100     C ( 1.00)

     48 Sym. Ops., with inversion, found (24 have fractional translation)



   Cartesian axes

     site n.     atom                  positions (alat units)
         1           C   tau(   1) = (   0.0000000   0.0000000   0.0000000  )
         2           C   tau(   2) = (   0.2500000   0.2500000   0.2500000  )

     number of k points=    47
                       cart. coord. in units 2pi/alat
        k(    1) = (   0.0000000   0.0000000   0.0000000), wk =   0.0020000
        k(    2) = (  -0.1000000   0.1000000  -0.1000000), wk =   0.0160000
        k(    3) = (  -0.2000000   0.2000000  -0.2000000), wk =   0.0160000
        k(    4) = (  -0.3000000   0.3000000  -0.3000000), wk =   0.0160000
        k(    5) = (  -0.4000000   0.4000000  -0.4000000), wk =   0.0160000
        k(    6) = (   0.5000000  -0.5000000   0.5000000), wk =   0.0080000
        k(    7) = (   0.0000000   0.2000000   0.0000000), wk =   0.0120000
        k(    8) = (  -0.1000000   0.3000000  -0.1000000), wk =   0.0480000
        k(    9) = (  -0.2000000   0.4000000  -0.2000000), wk =   0.0480000
        k(   10) = (  -0.3000000   0.5000000  -0.3000000), wk =   0.0480000
        k(   11) = (   0.6000000  -0.4000000   0.6000000), wk =   0.0480000
        k(   12) = (   0.5000000  -0.3000000   0.5000000), wk =   0.0480000
        k(   13) = (   0.4000000  -0.2000000   0.4000000), wk =   0.0480000
        k(   14) = (   0.3000000  -0.1000000   0.3000000), wk =   0.0480000
        k(   15) = (   0.2000000   0.0000000   0.2000000), wk =   0.0240000
        k(   16) = (   0.0000000   0.4000000   0.0000000), wk =   0.0120000
        k(   17) = (  -0.1000000   0.5000000  -0.1000000), wk =   0.0480000
        k(   18) = (  -0.2000000   0.6000000  -0.2000000), wk =   0.0480000
        k(   19) = (   0.7000000  -0.3000000   0.7000000), wk =   0.0480000
        k(   20) = (   0.6000000  -0.2000000   0.6000000), wk =   0.0480000
        k(   21) = (   0.5000000  -0.1000000   0.5000000), wk =   0.0480000
        k(   22) = (   0.4000000   0.0000000   0.4000000), wk =   0.0240000
        k(   23) = (   0.0000000   0.6000000   0.0000000), wk =   0.0120000
        k(   24) = (  -0.1000000   0.7000000  -0.1000000), wk =   0.0480000
        k(   25) = (   0.8000000  -0.2000000   0.8000000), wk =   0.0480000
        k(   26) = (   0.7000000  -0.1000000   0.7000000), wk =   0.0480000
        k(   27) = (   0.6000000  -0.0000000   0.6000000), wk =   0.0240000
        k(   28) = (   0.0000000   0.8000000   0.0000000), wk =   0.0120000
        k(   29) = (   0.9000000  -0.1000000   0.9000000), wk =   0.0480000
        k(   30) = (   0.8000000   0.0000000   0.8000000), wk =   0.0240000
        k(   31) = (   0.0000000  -1.0000000   0.0000000), wk =   0.0060000
        k(   32) = (  -0.2000000   0.4000000   0.0000000), wk =   0.0480000
        k(   33) = (  -0.3000000   0.5000000  -0.1000000), wk =   0.0960000
        k(   34) = (   0.6000000  -0.4000000   0.8000000), wk =   0.0960000
        k(   35) = (   0.5000000  -0.3000000   0.7000000), wk =   0.0480000
        k(   36) = (  -0.2000000   0.6000000   0.0000000), wk =   0.0480000
        k(   37) = (   0.7000000  -0.3000000   0.9000000), wk =   0.0960000
        k(   38) = (   0.6000000  -0.2000000   0.8000000), wk =   0.0960000
        k(   39) = (   0.5000000  -0.1000000   0.7000000), wk =   0.0960000
        k(   40) = (   0.4000000   0.0000000   0.6000000), wk =   0.0480000
        k(   41) = (   0.8000000  -0.2000000   1.0000000), wk =   0.0480000
        k(   42) = (   0.7000000  -0.1000000   0.9000000), wk =   0.0960000
        k(   43) = (   0.6000000   0.0000000   0.8000000), wk =   0.0480000
        k(   44) = (  -0.2000000  -1.0000000   0.0000000), wk =   0.0240000
        k(   45) = (   0.6000000  -0.2000000   1.0000000), wk =   0.0480000
        k(   46) = (   0.5000000  -0.1000000   0.9000000), wk =   0.0480000
        k(   47) = (  -0.4000000  -1.0000000   0.0000000), wk =   0.0240000

     Dense  grid:     3839 G-vectors     FFT dimensions: (  24,  24,  24)

     Estimated max dynamical RAM per process >       7.37 MB

     WARNING: libxc functional with ID  263 depends
      on external parameters: check the user_guide of
      QE if you need to modify them or to check their
      default values.

     Initial potential from superposition of free atoms

     starting charge       7.9999, renormalised to       8.0000
     Starting wfcs are    8 randomized atomic wfcs

     total cpu time spent up to now is        1.4 secs

     Self-consistent Calculation

     iteration #  1     ecut=    50.00 Ry     beta= 0.20
     Davidson diagonalization with overlap
     ethr =  1.00E-02,  avg # of iterations =  2.0

     total cpu time spent up to now is        3.1 secs

     total energy              =     -22.67675130 Ry
     estimated scf accuracy    <       1.96035239 Ry

     iteration #  2     ecut=    50.00 Ry     beta= 0.20
     Davidson diagonalization with overlap
     ethr =  1.00E-02,  avg # of iterations =  1.0

     total cpu time spent up to now is        4.4 secs

     total energy              =     -22.72753195 Ry
     estimated scf accuracy    <       1.29920560 Ry

     iteration #  3     ecut=    50.00 Ry     beta= 0.20
     Davidson diagonalization with overlap
     ethr =  1.00E-02,  avg # of iterations =  1.0

     total cpu time spent up to now is        5.7 secs

     total energy              =     -22.73163987 Ry
     estimated scf accuracy    <       0.01108465 Ry

     iteration #  4     ecut=    50.00 Ry     beta= 0.20
     Davidson diagonalization with overlap
     ethr =  1.39E-04,  avg # of iterations =  1.0

     total cpu time spent up to now is        7.0 secs

     total energy              =     -22.73016636 Ry
     estimated scf accuracy    <       0.00669430 Ry

     iteration #  5     ecut=    50.00 Ry     beta= 0.20
     Davidson diagonalization with overlap
     ethr =  8.37E-05,  avg # of iterations =  1.0

     total cpu time spent up to now is        8.3 secs

     total energy              =     -22.73066981 Ry
     estimated scf accuracy    <       0.00013378 Ry

     iteration #  6     ecut=    50.00 Ry     beta= 0.20
     Davidson diagonalization with overlap
     ethr =  1.67E-06,  avg # of iterations =  2.3

     total cpu time spent up to now is        9.9 secs

     total energy              =     -22.73070568 Ry
     estimated scf accuracy    <       0.00008019 Ry

     iteration #  7     ecut=    50.00 Ry     beta= 0.20
     Davidson diagonalization with overlap
     ethr =  1.00E-06,  avg # of iterations =  1.0

     total cpu time spent up to now is       11.1 secs

     total energy              =     -22.73072385 Ry
     estimated scf accuracy    <       0.00003199 Ry

     iteration #  8     ecut=    50.00 Ry     beta= 0.20
     Davidson diagonalization with overlap
     ethr =  4.00E-07,  avg # of iterations =  1.1

     total cpu time spent up to now is       11.9 secs

     End of self-consistent calculation

          k = 0.0000 0.0000 0.0000 (   531 PWs)   bands (ev):

    -9.4014  12.2928  12.2928  12.2928

          k =-0.1000 0.1000-0.1000 (   495 PWs)   bands (ev):

    -9.1223  10.6476  11.8820  11.8820

          k =-0.2000 0.2000-0.2000 (   489 PWs)   bands (ev):

    -8.2930   7.4330  11.0188  11.0188

          k =-0.3000 0.3000-0.3000 (   489 PWs)   bands (ev):

    -6.9384   4.0231  10.2297  10.2297

          k =-0.4000 0.4000-0.4000 (   477 PWs)   bands (ev):

    -5.1514   0.9073   9.7199   9.7199

          k = 0.5000-0.5000 0.5000 (   476 PWs)   bands (ev):

    -3.7539  -0.9441   9.5400   9.5400

          k = 0.0000 0.2000 0.0000 (   503 PWs)   bands (ev):

    -9.0297  11.1203  11.1203  11.3930

          k =-0.1000 0.3000-0.1000 (   495 PWs)   bands (ev):

    -8.3839   8.5440  10.1655  10.9576

          k =-0.2000 0.4000-0.2000 (   487 PWs)   bands (ev):

    -7.2028   5.2593   9.4257  10.1024

          k =-0.3000 0.5000-0.3000 (   481 PWs)   bands (ev):

    -5.5446   2.0631   9.0494   9.2410

          k = 0.6000-0.4000 0.6000 (   477 PWs)   bands (ev):

    -3.7656  -0.4469   8.6209   9.0694

          k = 0.5000-0.3000 0.5000 (   481 PWs)   bands (ev):

    -4.2991   0.2368   8.3370   9.4689

          k = 0.4000-0.2000 0.4000 (   485 PWs)   bands (ev):

    -6.1440   3.1016   8.4439  10.1925

          k = 0.3000-0.1000 0.3000 (   491 PWs)   bands (ev):

    -7.6546   6.3755   8.9652  11.0888

          k = 0.2000 0.0000 0.2000 (   493 PWs)   bands (ev):

    -8.6602   9.3578  10.0469  11.8376

          k = 0.0000 0.4000 0.0000 (   488 PWs)   bands (ev):

    -7.9242   9.0947   9.1499   9.1499

          k =-0.1000 0.5000-0.1000 (   485 PWs)   bands (ev):

    -6.9259   6.4235   8.3633   8.6534

          k =-0.2000 0.6000-0.2000 (   475 PWs)   bands (ev):

    -5.4287   3.4631   7.6073   7.9837

          k = 0.7000-0.3000 0.7000 (   477 PWs)   bands (ev):

    -3.6104   0.7731   6.6154   8.0386

          k = 0.6000-0.2000 0.6000 (   477 PWs)   bands (ev):

    -3.1097   0.1678   5.9585   8.5245

          k = 0.5000-0.1000 0.5000 (   484 PWs)   bands (ev):

    -4.8558   2.5865   5.7628   9.3593

          k = 0.4000 0.0000 0.4000 (   489 PWs)   bands (ev):

    -6.4887   5.2412   6.4092  10.3494

          k = 0.0000 0.6000 0.0000 (   484 PWs)   bands (ev):

    -6.1129   6.0384   7.5000   7.5000

          k =-0.1000 0.7000-0.1000 (   475 PWs)   bands (ev):

    -4.7935   4.0632   6.4215   7.0313

          k = 0.8000-0.2000 0.8000 (   476 PWs)   bands (ev):

    -3.0719   1.9093   4.9001   7.0273

          k = 0.7000-0.1000 0.7000 (   482 PWs)   bands (ev):

    -1.8174   0.5837   3.7590   7.4781

          k = 0.6000-0.0000 0.6000 (   484 PWs)   bands (ev):

    -3.1820   2.0090   3.6085   8.3176

          k = 0.0000 0.8000 0.0000 (   468 PWs)   bands (ev):

    -3.6546   2.6666   6.4533   6.4533

          k = 0.9000-0.1000 0.9000 (   469 PWs)   bands (ev):

    -2.0826   1.0197   5.3871   6.3366

          k = 0.8000 0.0000 0.8000 (   474 PWs)   bands (ev):

    -0.7103   0.0104   3.7450   6.6986

          k = 0.0000-1.0000 0.0000 (   468 PWs)   bands (ev):

    -0.6645  -0.6645   6.0965   6.0965

          k =-0.2000 0.4000 0.0000 (   490 PWs)   bands (ev):

    -7.5617   7.2137   8.1719  10.4110

          k =-0.3000 0.5000-0.1000 (   485 PWs)   bands (ev):

    -6.2213   4.4069   7.2603   9.5445

          k = 0.6000-0.4000 0.8000 (   480 PWs)   bands (ev):

    -4.4588   1.4664   6.9942   8.7037

          k = 0.5000-0.3000 0.7000 (   474 PWs)   bands (ev):

    -3.0902  -0.3171   6.9706   8.3401

          k =-0.2000 0.6000 0.0000 (   485 PWs)   bands (ev):

    -5.7669   5.0873   6.5948   8.0268

          k = 0.7000-0.3000 0.9000 (   479 PWs)   bands (ev):

    -4.1487   2.7850   5.6587   7.2322

          k = 0.6000-0.2000 0.8000 (   484 PWs)   bands (ev):

    -2.4376   0.6166   4.9971   7.0714

          k = 0.5000-0.1000 0.7000 (   483 PWs)   bands (ev):

    -2.9778   1.3003   4.5601   7.6243

          k = 0.4000 0.0000 0.6000 (   482 PWs)   bands (ev):

    -4.7540   3.4913   4.9334   8.5829

          k = 0.8000-0.2000 1.0000 (   475 PWs)   bands (ev):

    -3.3480   2.5513   5.6311   6.1441

          k = 0.7000-0.1000 0.9000 (   481 PWs)   bands (ev):

    -1.6164   1.0036   4.1458   6.0086

          k = 0.6000 0.0000 0.8000 (   485 PWs)   bands (ev):

    -1.3833   0.8739   3.2181   6.6075

          k =-0.2000-1.0000 0.0000 (   480 PWs)   bands (ev):

    -0.4602  -0.4602   5.4203   5.4203

          k = 0.6000-0.2000 1.0000 (   487 PWs)   bands (ev):

    -2.4901   1.9115   4.1417   6.0690

          k = 0.5000-0.1000 0.9000 (   480 PWs)   bands (ev):

    -1.1902   0.7696   3.8173   5.5126

          k =-0.4000-1.0000 0.0000 (   476 PWs)   bands (ev):

    -0.0498  -0.0498   4.3813   4.3813

     highest occupied level (ev):    12.2928

!    total energy              =     -22.73072635 Ry
     estimated scf accuracy    <       0.00000098 Ry

     The total energy is the sum of the following terms:
     one-electron contribution =       7.39951743 Ry
     hartree contribution      =       1.99136633 Ry
     xc contribution           =      -6.99427291 Ry
     ewald contribution        =     -25.12733720 Ry

     convergence has been achieved in   8 iterations
     Writing meta-gga kinetic term

     Writing all to output data dir ./input_pw/C/6/pwscf.save/
     Writing meta-gga kinetic term
 
     init_run     :      0.53s CPU      1.24s WALL (       1 calls)
     electrons    :      5.58s CPU     10.52s WALL (       1 calls)

     Called by init_run:
     wfcinit      :      0.49s CPU      1.09s WALL (       1 calls)
     potinit      :      0.01s CPU      0.03s WALL (       1 calls)
     hinit0       :      0.03s CPU      0.11s WALL (       1 calls)

     Called by electrons:
     c_bands      :      4.45s CPU      8.45s WALL (       8 calls)
     sum_band     :      1.03s CPU      1.89s WALL (       8 calls)
     v_of_rho     :      0.07s CPU      0.10s WALL (       9 calls)
     mix_rho      :      0.03s CPU      0.11s WALL (       8 calls)

     Called by c_bands:
     init_us_2    :      0.02s CPU      0.02s WALL (     799 calls)
     init_us_2:cp :      0.02s CPU      0.02s WALL (     799 calls)
     cegterg      :      4.43s CPU      8.42s WALL (     376 calls)

     Called by *egterg:
     cdiaghg      :      0.04s CPU      0.09s WALL (     870 calls)
     h_psi        :      4.79s CPU      9.26s WALL (     917 calls)
     g_psi        :      0.00s CPU      0.00s WALL (     494 calls)

     Called by h_psi:
     h_psi:calbec :      0.01s CPU      0.03s WALL (     917 calls)
     vloc_psi     :      1.18s CPU      1.99s WALL (     917 calls)
     add_vuspsi   :      0.01s CPU      0.01s WALL (     917 calls)
     h_psi_meta   :      3.58s CPU      7.19s WALL (     917 calls)

     General routines
     calbec       :      0.01s CPU      0.02s WALL (     917 calls)
     fft          :      0.01s CPU      0.09s WALL (     105 calls)
     ffts         :      0.02s CPU      0.02s WALL (     129 calls)
     fftw         :      5.19s CPU      9.84s WALL (   35952 calls)
     interpolate  :      0.00s CPU      0.00s WALL (       9 calls)
 
     Parallel routines
 
     PWSCF        :      6.14s CPU     11.89s WALL

 
   This run was terminated on:  14:25:35   7Jul2023            

=------------------------------------------------------------------------------=
   JOB DONE.
=------------------------------------------------------------------------------=
