
     Program PWSCF v.7.0 starts on 29Mar2023 at 12:34:18 

     This program is part of the open-source Quantum ESPRESSO suite
     for quantum simulation of materials; please cite
         "P. Giannozzi et al., J. Phys.:Condens. Matter 21 395502 (2009);
         "P. Giannozzi et al., J. Phys.:Condens. Matter 29 465901 (2017);
         "P. Giannozzi et al., J. Chem. Phys. 152 154105 (2020);
          URL http://www.quantum-espresso.org", 
     in publications or presentations arising from this work. More details at
     http://www.quantum-espresso.org/quote

     Parallel version (MPI), running on     1 processors

     MPI processes distributed on     1 nodes
     23506 MiB available memory on the printing compute node when the environment starts
 
     Waiting for input...
     Reading input from standard input
Warning: card &CELL ignored
Warning: card / ignored

     Current dimensions of program PWSCF are:
     Max number of different atomic species (ntypx) = 10
     Max number of k-points (npk) =  40000
     Max angular momentum in pseudopotentials (lmaxx) =  4

     WARNING: the MGGA functional with ID    5 has been 
     read together with other dft terms, but it should 
     stand alone in order to work properly. The other 
     terms will be ignored.

     Subspace diagonalization in iterative solution of the eigenvalue problem:
     a serial algorithm will be used

 
     G-vector sticks info
     --------------------
     sticks:   dense  smooth     PW     G-vecs:    dense   smooth      PW
     Sum         313     313    109                 3839     3839     749
 
     Using Slab Decomposition
 


     bravais-lattice index     =            2
     lattice parameter (alat)  =       6.8602  a.u.
     unit-cell volume          =      80.7128 (a.u.)^3
     number of atoms/cell      =            2
     number of atomic types    =            1
     number of electrons       =         8.00
     number of Kohn-Sham states=            4
     kinetic-energy cutoff     =      50.0000  Ry
     charge density cutoff     =     200.0000  Ry
     scf convergence threshold =      1.0E-06
     mixing beta               =       0.0100
     number of iterations used =            8  local-TF  mixing
     Exchange-correlation= SLA  PW   SCAN SCAN
                           (   0   0   0   0   0 263 267)

     celldm(1)=   6.860159  celldm(2)=   0.000000  celldm(3)=   0.000000
     celldm(4)=   0.000000  celldm(5)=   0.000000  celldm(6)=   0.000000

     crystal axes: (cart. coord. in units of alat)
               a(1) = (  -0.500000   0.000000   0.500000 )  
               a(2) = (   0.000000   0.500000   0.500000 )  
               a(3) = (  -0.500000   0.500000   0.000000 )  

     reciprocal axes: (cart. coord. in units 2 pi/alat)
               b(1) = ( -1.000000 -1.000000  1.000000 )  
               b(2) = (  1.000000  1.000000  1.000000 )  
               b(3) = ( -1.000000  1.000000 -1.000000 )  


     PseudoPot. # 1 for C  read from file:
     ~/Documents/TA/PWDFT.jl/pseudopotentials/scan_upf/C.SCAN.UPF2
     MD5 check sum: Not computed, couldn't open file
     Pseudo is Norm-conserving, Zval =  4.0
     Generated by new atomic code, or converted to UPF format
     Using radial grid of 1389 points,  1 beta functions with: 
                l(1) =   0

     atomic species   valence    mass     pseudopotential
        C              4.00    12.01100     C ( 1.00)

     48 Sym. Ops., with inversion, found (24 have fractional translation)



   Cartesian axes

     site n.     atom                  positions (alat units)
         1           C   tau(   1) = (   0.0000000   0.0000000   0.0000000  )
         2           C   tau(   2) = (   0.2500000   0.2500000   0.2500000  )

     number of k points=    47
                       cart. coord. in units 2pi/alat
        k(    1) = (   0.0000000   0.0000000   0.0000000), wk =   0.0020000
        k(    2) = (  -0.1000000   0.1000000  -0.1000000), wk =   0.0160000
        k(    3) = (  -0.2000000   0.2000000  -0.2000000), wk =   0.0160000
        k(    4) = (  -0.3000000   0.3000000  -0.3000000), wk =   0.0160000
        k(    5) = (  -0.4000000   0.4000000  -0.4000000), wk =   0.0160000
        k(    6) = (   0.5000000  -0.5000000   0.5000000), wk =   0.0080000
        k(    7) = (   0.0000000   0.2000000   0.0000000), wk =   0.0120000
        k(    8) = (  -0.1000000   0.3000000  -0.1000000), wk =   0.0480000
        k(    9) = (  -0.2000000   0.4000000  -0.2000000), wk =   0.0480000
        k(   10) = (  -0.3000000   0.5000000  -0.3000000), wk =   0.0480000
        k(   11) = (   0.6000000  -0.4000000   0.6000000), wk =   0.0480000
        k(   12) = (   0.5000000  -0.3000000   0.5000000), wk =   0.0480000
        k(   13) = (   0.4000000  -0.2000000   0.4000000), wk =   0.0480000
        k(   14) = (   0.3000000  -0.1000000   0.3000000), wk =   0.0480000
        k(   15) = (   0.2000000   0.0000000   0.2000000), wk =   0.0240000
        k(   16) = (   0.0000000   0.4000000   0.0000000), wk =   0.0120000
        k(   17) = (  -0.1000000   0.5000000  -0.1000000), wk =   0.0480000
        k(   18) = (  -0.2000000   0.6000000  -0.2000000), wk =   0.0480000
        k(   19) = (   0.7000000  -0.3000000   0.7000000), wk =   0.0480000
        k(   20) = (   0.6000000  -0.2000000   0.6000000), wk =   0.0480000
        k(   21) = (   0.5000000  -0.1000000   0.5000000), wk =   0.0480000
        k(   22) = (   0.4000000   0.0000000   0.4000000), wk =   0.0240000
        k(   23) = (   0.0000000   0.6000000   0.0000000), wk =   0.0120000
        k(   24) = (  -0.1000000   0.7000000  -0.1000000), wk =   0.0480000
        k(   25) = (   0.8000000  -0.2000000   0.8000000), wk =   0.0480000
        k(   26) = (   0.7000000  -0.1000000   0.7000000), wk =   0.0480000
        k(   27) = (   0.6000000  -0.0000000   0.6000000), wk =   0.0240000
        k(   28) = (   0.0000000   0.8000000   0.0000000), wk =   0.0120000
        k(   29) = (   0.9000000  -0.1000000   0.9000000), wk =   0.0480000
        k(   30) = (   0.8000000   0.0000000   0.8000000), wk =   0.0240000
        k(   31) = (   0.0000000  -1.0000000   0.0000000), wk =   0.0060000
        k(   32) = (  -0.2000000   0.4000000   0.0000000), wk =   0.0480000
        k(   33) = (  -0.3000000   0.5000000  -0.1000000), wk =   0.0960000
        k(   34) = (   0.6000000  -0.4000000   0.8000000), wk =   0.0960000
        k(   35) = (   0.5000000  -0.3000000   0.7000000), wk =   0.0480000
        k(   36) = (  -0.2000000   0.6000000   0.0000000), wk =   0.0480000
        k(   37) = (   0.7000000  -0.3000000   0.9000000), wk =   0.0960000
        k(   38) = (   0.6000000  -0.2000000   0.8000000), wk =   0.0960000
        k(   39) = (   0.5000000  -0.1000000   0.7000000), wk =   0.0960000
        k(   40) = (   0.4000000   0.0000000   0.6000000), wk =   0.0480000
        k(   41) = (   0.8000000  -0.2000000   1.0000000), wk =   0.0480000
        k(   42) = (   0.7000000  -0.1000000   0.9000000), wk =   0.0960000
        k(   43) = (   0.6000000   0.0000000   0.8000000), wk =   0.0480000
        k(   44) = (  -0.2000000  -1.0000000   0.0000000), wk =   0.0240000
        k(   45) = (   0.6000000  -0.2000000   1.0000000), wk =   0.0480000
        k(   46) = (   0.5000000  -0.1000000   0.9000000), wk =   0.0480000
        k(   47) = (  -0.4000000  -1.0000000   0.0000000), wk =   0.0240000

     Dense  grid:     3839 G-vectors     FFT dimensions: (  24,  24,  24)

     Estimated max dynamical RAM per process >       7.37 MB

     WARNING: libxc functional with ID  263 depends
      on external parameters: check the user_guide of
      QE if you need to modify them or to check their
      default values.

     Initial potential from superposition of free atoms

     starting charge       7.9999, renormalised to       8.0000
     Starting wfcs are    8 randomized atomic wfcs

     total cpu time spent up to now is        1.0 secs

     Self-consistent Calculation

     iteration #  1     ecut=    50.00 Ry     beta= 0.01
     Davidson diagonalization with overlap
     ethr =  1.00E-02,  avg # of iterations =  2.0

     total cpu time spent up to now is        2.7 secs

     total energy              =     -22.60953652 Ry
     estimated scf accuracy    <       1.96035239 Ry

     iteration #  2     ecut=    50.00 Ry     beta= 0.01
     Davidson diagonalization with overlap
     ethr =  1.00E-02,  avg # of iterations =  1.0

     total cpu time spent up to now is        4.0 secs

     total energy              =     -22.43775864 Ry
     estimated scf accuracy    <       1.96738463 Ry

     iteration #  3     ecut=    50.00 Ry     beta= 0.01
     Davidson diagonalization with overlap
     ethr =  1.00E-02,  avg # of iterations =  1.0

     total cpu time spent up to now is        5.3 secs

     total energy              =     -22.71577275 Ry
     estimated scf accuracy    <       4.53298909 Ry

     iteration #  4     ecut=    50.00 Ry     beta= 0.01
     Davidson diagonalization with overlap
     ethr =  1.00E-02,  avg # of iterations =  1.0

     total cpu time spent up to now is        6.6 secs

     total energy              =     -22.73277879 Ry
     estimated scf accuracy    <       0.01338273 Ry

     iteration #  5     ecut=    50.00 Ry     beta= 0.01
     Davidson diagonalization with overlap
     ethr =  1.67E-04,  avg # of iterations =  1.2

     total cpu time spent up to now is        7.9 secs

     total energy              =     -22.73364964 Ry
     estimated scf accuracy    <       0.02120702 Ry

     iteration #  6     ecut=    50.00 Ry     beta= 0.01
     Davidson diagonalization with overlap
     ethr =  1.67E-04,  avg # of iterations =  1.0

     total cpu time spent up to now is        9.2 secs

     total energy              =     -22.73354575 Ry
     estimated scf accuracy    <       0.02228596 Ry

     iteration #  7     ecut=    50.00 Ry     beta= 0.01
     Davidson diagonalization with overlap
     ethr =  1.67E-04,  avg # of iterations =  1.0

     total cpu time spent up to now is       10.5 secs

     total energy              =     -22.72942570 Ry
     estimated scf accuracy    <       0.02291348 Ry

     iteration #  8     ecut=    50.00 Ry     beta= 0.01
     Davidson diagonalization with overlap
     ethr =  1.67E-04,  avg # of iterations =  1.7

     total cpu time spent up to now is       12.0 secs

     total energy              =     -22.73068513 Ry
     estimated scf accuracy    <       0.00123477 Ry

     iteration #  9     ecut=    50.00 Ry     beta= 0.01
     Davidson diagonalization with overlap
     ethr =  1.54E-05,  avg # of iterations =  1.0

     total cpu time spent up to now is       13.2 secs

     total energy              =     -22.73075872 Ry
     estimated scf accuracy    <       0.00113904 Ry

     iteration # 10     ecut=    50.00 Ry     beta= 0.01
     Davidson diagonalization with overlap
     ethr =  1.42E-05,  avg # of iterations =  1.0

     total cpu time spent up to now is       14.5 secs

     total energy              =     -22.73073231 Ry
     estimated scf accuracy    <       0.00055689 Ry

     iteration # 11     ecut=    50.00 Ry     beta= 0.01
     Davidson diagonalization with overlap
     ethr =  6.96E-06,  avg # of iterations =  1.0

     total cpu time spent up to now is       15.8 secs

     total energy              =     -22.73067833 Ry
     estimated scf accuracy    <       0.00078958 Ry

     iteration # 12     ecut=    50.00 Ry     beta= 0.01
     Davidson diagonalization with overlap
     ethr =  6.96E-06,  avg # of iterations =  1.0

     total cpu time spent up to now is       17.1 secs

     total energy              =     -22.73067994 Ry
     estimated scf accuracy    <       0.00081444 Ry

     iteration # 13     ecut=    50.00 Ry     beta= 0.01
     Davidson diagonalization with overlap
     ethr =  6.96E-06,  avg # of iterations =  1.0

     total cpu time spent up to now is       18.3 secs

     total energy              =     -22.73070485 Ry
     estimated scf accuracy    <       0.00091180 Ry

     iteration # 14     ecut=    50.00 Ry     beta= 0.01
     Davidson diagonalization with overlap
     ethr =  6.96E-06,  avg # of iterations =  1.0

     total cpu time spent up to now is       19.2 secs

     total energy              =     -22.73072387 Ry
     estimated scf accuracy    <       0.00025862 Ry

     iteration # 15     ecut=    50.00 Ry     beta= 0.01
     Davidson diagonalization with overlap
     ethr =  3.23E-06,  avg # of iterations =  1.0

     total cpu time spent up to now is       20.2 secs

     total energy              =     -22.73072620 Ry
     estimated scf accuracy    <       0.00001158 Ry

     iteration # 16     ecut=    50.00 Ry     beta= 0.01
     Davidson diagonalization with overlap
     ethr =  1.45E-07,  avg # of iterations =  1.0

     total cpu time spent up to now is       21.1 secs

     total energy              =     -22.73072643 Ry
     estimated scf accuracy    <       0.00001153 Ry

     iteration # 17     ecut=    50.00 Ry     beta= 0.01
     Davidson diagonalization with overlap
     ethr =  1.44E-07,  avg # of iterations =  1.0

     total cpu time spent up to now is       22.0 secs

     total energy              =     -22.73072670 Ry
     estimated scf accuracy    <       0.00000153 Ry

     iteration # 18     ecut=    50.00 Ry     beta= 0.01
     Davidson diagonalization with overlap
     ethr =  1.92E-08,  avg # of iterations =  1.0

     total cpu time spent up to now is       22.6 secs

     End of self-consistent calculation

          k = 0.0000 0.0000 0.0000 (   531 PWs)   bands (ev):

    -9.4037  12.2911  12.2911  12.2911

          k =-0.1000 0.1000-0.1000 (   495 PWs)   bands (ev):

    -9.1246  10.6458  11.8803  11.8803

          k =-0.2000 0.2000-0.2000 (   489 PWs)   bands (ev):

    -8.2953   7.4312  11.0171  11.0171

          k =-0.3000 0.3000-0.3000 (   489 PWs)   bands (ev):

    -6.9407   4.0213  10.2280  10.2280

          k =-0.4000 0.4000-0.4000 (   477 PWs)   bands (ev):

    -5.1538   0.9056   9.7181   9.7181

          k = 0.5000-0.5000 0.5000 (   476 PWs)   bands (ev):

    -3.7567  -0.9455   9.5382   9.5382

          k = 0.0000 0.2000 0.0000 (   503 PWs)   bands (ev):

    -9.0320  11.1186  11.1186  11.3912

          k =-0.1000 0.3000-0.1000 (   495 PWs)   bands (ev):

    -8.3862   8.5422  10.1638  10.9558

          k =-0.2000 0.4000-0.2000 (   487 PWs)   bands (ev):

    -7.2052   5.2575   9.4240  10.1006

          k =-0.3000 0.5000-0.3000 (   481 PWs)   bands (ev):

    -5.5469   2.0613   9.0477   9.2391

          k = 0.6000-0.4000 0.6000 (   477 PWs)   bands (ev):

    -3.7682  -0.4484   8.6191   9.0676

          k = 0.5000-0.3000 0.5000 (   481 PWs)   bands (ev):

    -4.3016   0.2351   8.3352   9.4671

          k = 0.4000-0.2000 0.4000 (   485 PWs)   bands (ev):

    -6.1464   3.0998   8.4422  10.1908

          k = 0.3000-0.1000 0.3000 (   491 PWs)   bands (ev):

    -7.6569   6.3737   8.9635  11.0871

          k = 0.2000 0.0000 0.2000 (   493 PWs)   bands (ev):

    -8.6625   9.3560  10.0453  11.8359

          k = 0.0000 0.4000 0.0000 (   488 PWs)   bands (ev):

    -7.9265   9.0926   9.1482   9.1482

          k =-0.1000 0.5000-0.1000 (   485 PWs)   bands (ev):

    -6.9282   6.4215   8.3616   8.6516

          k =-0.2000 0.6000-0.2000 (   475 PWs)   bands (ev):

    -5.4310   3.4612   7.6055   7.9819

          k = 0.7000-0.3000 0.7000 (   477 PWs)   bands (ev):

    -3.6129   0.7713   6.6136   8.0368

          k = 0.6000-0.2000 0.6000 (   477 PWs)   bands (ev):

    -3.1124   0.1661   5.9568   8.5227

          k = 0.5000-0.1000 0.5000 (   484 PWs)   bands (ev):

    -4.8582   2.5846   5.7611   9.3576

          k = 0.4000 0.0000 0.4000 (   489 PWs)   bands (ev):

    -6.4910   5.2391   6.4077  10.3477

          k = 0.0000 0.6000 0.0000 (   484 PWs)   bands (ev):

    -6.1152   6.0361   7.4983   7.4983

          k =-0.1000 0.7000-0.1000 (   475 PWs)   bands (ev):

    -4.7959   4.0609   6.4199   7.0295

          k = 0.8000-0.2000 0.8000 (   476 PWs)   bands (ev):

    -3.0743   1.9070   4.8986   7.0255

          k = 0.7000-0.1000 0.7000 (   482 PWs)   bands (ev):

    -1.8201   0.5817   3.7576   7.4764

          k = 0.6000-0.0000 0.6000 (   484 PWs)   bands (ev):

    -3.1844   2.0068   3.6072   8.3158

          k = 0.0000 0.8000 0.0000 (   468 PWs)   bands (ev):

    -3.6569   2.6643   6.4516   6.4516

          k = 0.9000-0.1000 0.9000 (   469 PWs)   bands (ev):

    -2.0850   1.0173   5.3855   6.3349

          k = 0.8000 0.0000 0.8000 (   474 PWs)   bands (ev):

    -0.7129   0.0081   3.7437   6.6968

          k = 0.0000-1.0000 0.0000 (   468 PWs)   bands (ev):

    -0.6668  -0.6668   6.0948   6.0948

          k =-0.2000 0.4000 0.0000 (   490 PWs)   bands (ev):

    -7.5640   7.2117   8.1703  10.4093

          k =-0.3000 0.5000-0.1000 (   485 PWs)   bands (ev):

    -6.2236   4.4049   7.2586   9.5427

          k = 0.6000-0.4000 0.8000 (   480 PWs)   bands (ev):

    -4.4613   1.4645   6.9924   8.7020

          k = 0.5000-0.3000 0.7000 (   474 PWs)   bands (ev):

    -3.0929  -0.3187   6.9687   8.3383

          k =-0.2000 0.6000 0.0000 (   485 PWs)   bands (ev):

    -5.7692   5.0850   6.5931   8.0251

          k = 0.7000-0.3000 0.9000 (   479 PWs)   bands (ev):

    -4.1511   2.7829   5.6570   7.2305

          k = 0.6000-0.2000 0.8000 (   484 PWs)   bands (ev):

    -2.4402   0.6147   4.9954   7.0698

          k = 0.5000-0.1000 0.7000 (   483 PWs)   bands (ev):

    -2.9803   1.2984   4.5585   7.6227

          k = 0.4000 0.0000 0.6000 (   482 PWs)   bands (ev):

    -4.7564   3.4891   4.9320   8.5812

          k = 0.8000-0.2000 1.0000 (   475 PWs)   bands (ev):

    -3.3504   2.5488   5.6295   6.1426

          k = 0.7000-0.1000 0.9000 (   481 PWs)   bands (ev):

    -1.6189   1.0011   4.1445   6.0071

          k = 0.6000 0.0000 0.8000 (   485 PWs)   bands (ev):

    -1.3860   0.8716   3.2169   6.6059

          k =-0.2000-1.0000 0.0000 (   480 PWs)   bands (ev):

    -0.4626  -0.4626   5.4187   5.4187

          k = 0.6000-0.2000 1.0000 (   487 PWs)   bands (ev):

    -2.4926   1.9091   4.1403   6.0675

          k = 0.5000-0.1000 0.9000 (   480 PWs)   bands (ev):

    -1.1928   0.7673   3.8159   5.5112

          k =-0.4000-1.0000 0.0000 (   476 PWs)   bands (ev):

    -0.0523  -0.0523   4.3800   4.3800

     highest occupied level (ev):    12.2911

!    total energy              =     -22.73072672 Ry
     estimated scf accuracy    <       0.00000022 Ry

     The total energy is the sum of the following terms:
     one-electron contribution =       7.39923984 Ry
     hartree contribution      =       1.99181561 Ry
     xc contribution           =      -6.99444497 Ry
     ewald contribution        =     -25.12733720 Ry

     convergence has been achieved in  18 iterations
     Writing meta-gga kinetic term

     Writing all to output data dir ./input_pw/C/6/pwscf.save/
     Writing meta-gga kinetic term
 
     init_run     :      0.58s CPU      0.92s WALL (       1 calls)
     electrons    :     11.62s CPU     21.65s WALL (       1 calls)

     Called by init_run:
     wfcinit      :      0.54s CPU      0.79s WALL (       1 calls)
     potinit      :      0.01s CPU      0.03s WALL (       1 calls)
     hinit0       :      0.03s CPU      0.09s WALL (       1 calls)

     Called by electrons:
     c_bands      :      9.08s CPU     16.86s WALL (      18 calls)
     sum_band     :      2.29s CPU      4.30s WALL (      18 calls)
     v_of_rho     :      0.16s CPU      0.36s WALL (      19 calls)
     mix_rho      :      0.09s CPU      0.16s WALL (      18 calls)

     Called by c_bands:
     init_us_2    :      0.04s CPU      0.10s WALL (    1739 calls)
     init_us_2:cp :      0.03s CPU      0.10s WALL (    1739 calls)
     cegterg      :      9.03s CPU     16.77s WALL (     846 calls)

     Called by *egterg:
     cdiaghg      :      0.07s CPU      0.14s WALL (    1784 calls)
     h_psi        :      9.35s CPU     17.08s WALL (    1831 calls)
     g_psi        :      0.01s CPU      0.01s WALL (     938 calls)

     Called by h_psi:
     h_psi:calbec :      0.02s CPU      0.02s WALL (    1831 calls)
     vloc_psi     :      2.31s CPU      3.96s WALL (    1831 calls)
     add_vuspsi   :      0.02s CPU      0.02s WALL (    1831 calls)
     h_psi_meta   :      6.97s CPU     13.04s WALL (    1831 calls)

     General routines
     calbec       :      0.01s CPU      0.02s WALL (    1831 calls)
     fft          :      0.03s CPU      0.08s WALL (     225 calls)
     ffts         :      0.04s CPU      0.08s WALL (     313 calls)
     fftw         :     10.34s CPU     19.12s WALL (   72744 calls)
     interpolate  :      0.00s CPU      0.00s WALL (      19 calls)
 
     Parallel routines
 
     PWSCF        :     12.22s CPU     22.66s WALL

 
   This run was terminated on:  12:34:41  29Mar2023            

=------------------------------------------------------------------------------=
   JOB DONE.
=------------------------------------------------------------------------------=
