
     Program PWSCF v.7.0 starts on 14Mar2023 at 11:48:16 

     This program is part of the open-source Quantum ESPRESSO suite
     for quantum simulation of materials; please cite
         "P. Giannozzi et al., J. Phys.:Condens. Matter 21 395502 (2009);
         "P. Giannozzi et al., J. Phys.:Condens. Matter 29 465901 (2017);
         "P. Giannozzi et al., J. Chem. Phys. 152 154105 (2020);
          URL http://www.quantum-espresso.org", 
     in publications or presentations arising from this work. More details at
     http://www.quantum-espresso.org/quote

     Parallel version (MPI), running on     1 processors

     MPI processes distributed on     1 nodes
     27047 MiB available memory on the printing compute node when the environment starts
 
     Waiting for input...
     Reading input from standard input
Warning: card &CELL ignored
Warning: card / ignored

     Current dimensions of program PWSCF are:
     Max number of different atomic species (ntypx) = 10
     Max number of k-points (npk) =  40000
     Max angular momentum in pseudopotentials (lmaxx) =  4

     WARNING: the MGGA functional with ID    5 has been 
     read together with other dft terms, but it should 
     stand alone in order to work properly. The other 
     terms will be ignored.

     Subspace diagonalization in iterative solution of the eigenvalue problem:
     a serial algorithm will be used

 
     G-vector sticks info
     --------------------
     sticks:   dense  smooth     PW     G-vecs:    dense   smooth      PW
     Sum         337     337    109                 4015     4015     749
 
     Using Slab Decomposition
 


     bravais-lattice index     =            2
     lattice parameter (alat)  =       6.9418  a.u.
     unit-cell volume          =      83.6299 (a.u.)^3
     number of atoms/cell      =            2
     number of atomic types    =            1
     number of electrons       =         8.00
     number of Kohn-Sham states=            4
     kinetic-energy cutoff     =      50.0000  Ry
     charge density cutoff     =     200.0000  Ry
     scf convergence threshold =      1.0E-06
     mixing beta               =       0.0100
     number of iterations used =            8  local-TF  mixing
     Exchange-correlation= SLA  PW   SCAN SCAN
                           (   0   0   0   0   0 263 267)

     celldm(1)=   6.941829  celldm(2)=   0.000000  celldm(3)=   0.000000
     celldm(4)=   0.000000  celldm(5)=   0.000000  celldm(6)=   0.000000

     crystal axes: (cart. coord. in units of alat)
               a(1) = (  -0.500000   0.000000   0.500000 )  
               a(2) = (   0.000000   0.500000   0.500000 )  
               a(3) = (  -0.500000   0.500000   0.000000 )  

     reciprocal axes: (cart. coord. in units 2 pi/alat)
               b(1) = ( -1.000000 -1.000000  1.000000 )  
               b(2) = (  1.000000  1.000000  1.000000 )  
               b(3) = ( -1.000000  1.000000 -1.000000 )  


     PseudoPot. # 1 for C  read from file:
     ~/Documents/TA/PWDFT.jl/pseudopotentials/scan_upf/C.SCAN.UPF2
     MD5 check sum: Not computed, couldn't open file
     Pseudo is Norm-conserving, Zval =  4.0
     Generated by new atomic code, or converted to UPF format
     Using radial grid of 1389 points,  1 beta functions with: 
                l(1) =   0

     atomic species   valence    mass     pseudopotential
        C              4.00    12.01100     C ( 1.00)

     48 Sym. Ops., with inversion, found (24 have fractional translation)



   Cartesian axes

     site n.     atom                  positions (alat units)
         1           C   tau(   1) = (   0.0000000   0.0000000   0.0000000  )
         2           C   tau(   2) = (   0.2500000   0.2500000   0.2500000  )

     number of k points=    47
                       cart. coord. in units 2pi/alat
        k(    1) = (   0.0000000   0.0000000   0.0000000), wk =   0.0020000
        k(    2) = (  -0.1000000   0.1000000  -0.1000000), wk =   0.0160000
        k(    3) = (  -0.2000000   0.2000000  -0.2000000), wk =   0.0160000
        k(    4) = (  -0.3000000   0.3000000  -0.3000000), wk =   0.0160000
        k(    5) = (  -0.4000000   0.4000000  -0.4000000), wk =   0.0160000
        k(    6) = (   0.5000000  -0.5000000   0.5000000), wk =   0.0080000
        k(    7) = (   0.0000000   0.2000000   0.0000000), wk =   0.0120000
        k(    8) = (  -0.1000000   0.3000000  -0.1000000), wk =   0.0480000
        k(    9) = (  -0.2000000   0.4000000  -0.2000000), wk =   0.0480000
        k(   10) = (  -0.3000000   0.5000000  -0.3000000), wk =   0.0480000
        k(   11) = (   0.6000000  -0.4000000   0.6000000), wk =   0.0480000
        k(   12) = (   0.5000000  -0.3000000   0.5000000), wk =   0.0480000
        k(   13) = (   0.4000000  -0.2000000   0.4000000), wk =   0.0480000
        k(   14) = (   0.3000000  -0.1000000   0.3000000), wk =   0.0480000
        k(   15) = (   0.2000000   0.0000000   0.2000000), wk =   0.0240000
        k(   16) = (   0.0000000   0.4000000   0.0000000), wk =   0.0120000
        k(   17) = (  -0.1000000   0.5000000  -0.1000000), wk =   0.0480000
        k(   18) = (  -0.2000000   0.6000000  -0.2000000), wk =   0.0480000
        k(   19) = (   0.7000000  -0.3000000   0.7000000), wk =   0.0480000
        k(   20) = (   0.6000000  -0.2000000   0.6000000), wk =   0.0480000
        k(   21) = (   0.5000000  -0.1000000   0.5000000), wk =   0.0480000
        k(   22) = (   0.4000000   0.0000000   0.4000000), wk =   0.0240000
        k(   23) = (   0.0000000   0.6000000   0.0000000), wk =   0.0120000
        k(   24) = (  -0.1000000   0.7000000  -0.1000000), wk =   0.0480000
        k(   25) = (   0.8000000  -0.2000000   0.8000000), wk =   0.0480000
        k(   26) = (   0.7000000  -0.1000000   0.7000000), wk =   0.0480000
        k(   27) = (   0.6000000  -0.0000000   0.6000000), wk =   0.0240000
        k(   28) = (   0.0000000   0.8000000   0.0000000), wk =   0.0120000
        k(   29) = (   0.9000000  -0.1000000   0.9000000), wk =   0.0480000
        k(   30) = (   0.8000000   0.0000000   0.8000000), wk =   0.0240000
        k(   31) = (   0.0000000  -1.0000000   0.0000000), wk =   0.0060000
        k(   32) = (  -0.2000000   0.4000000   0.0000000), wk =   0.0480000
        k(   33) = (  -0.3000000   0.5000000  -0.1000000), wk =   0.0960000
        k(   34) = (   0.6000000  -0.4000000   0.8000000), wk =   0.0960000
        k(   35) = (   0.5000000  -0.3000000   0.7000000), wk =   0.0480000
        k(   36) = (  -0.2000000   0.6000000   0.0000000), wk =   0.0480000
        k(   37) = (   0.7000000  -0.3000000   0.9000000), wk =   0.0960000
        k(   38) = (   0.6000000  -0.2000000   0.8000000), wk =   0.0960000
        k(   39) = (   0.5000000  -0.1000000   0.7000000), wk =   0.0960000
        k(   40) = (   0.4000000   0.0000000   0.6000000), wk =   0.0480000
        k(   41) = (   0.8000000  -0.2000000   1.0000000), wk =   0.0480000
        k(   42) = (   0.7000000  -0.1000000   0.9000000), wk =   0.0960000
        k(   43) = (   0.6000000   0.0000000   0.8000000), wk =   0.0480000
        k(   44) = (  -0.2000000  -1.0000000   0.0000000), wk =   0.0240000
        k(   45) = (   0.6000000  -0.2000000   1.0000000), wk =   0.0480000
        k(   46) = (   0.5000000  -0.1000000   0.9000000), wk =   0.0480000
        k(   47) = (  -0.4000000  -1.0000000   0.0000000), wk =   0.0240000

     Dense  grid:     4015 G-vectors     FFT dimensions: (  24,  24,  24)

     Estimated max dynamical RAM per process >       7.62 MB

     WARNING: libxc functional with ID  263 depends
      on external parameters: check the user_guide of
      QE if you need to modify them or to check their
      default values.

     Initial potential from superposition of free atoms

     starting charge       7.9999, renormalised to       8.0000
     Starting wfcs are    8 randomized atomic wfcs

     total cpu time spent up to now is        1.1 secs

     Self-consistent Calculation

     iteration #  1     ecut=    50.00 Ry     beta= 0.01
     Davidson diagonalization with overlap
     ethr =  1.00E-02,  avg # of iterations =  2.0

     total cpu time spent up to now is        2.3 secs

     total energy              =     -22.60422565 Ry
     estimated scf accuracy    <       1.86574269 Ry

     iteration #  2     ecut=    50.00 Ry     beta= 0.01
     Davidson diagonalization with overlap
     ethr =  1.00E-02,  avg # of iterations =  1.0

     total cpu time spent up to now is        3.3 secs

     total energy              =     -22.44192019 Ry
     estimated scf accuracy    <       1.87465088 Ry

     iteration #  3     ecut=    50.00 Ry     beta= 0.01
     Davidson diagonalization with overlap
     ethr =  1.00E-02,  avg # of iterations =  1.0

     total cpu time spent up to now is        4.2 secs

     total energy              =     -22.70867623 Ry
     estimated scf accuracy    <       4.89266638 Ry

     iteration #  4     ecut=    50.00 Ry     beta= 0.01
     Davidson diagonalization with overlap
     ethr =  1.00E-02,  avg # of iterations =  1.0

     total cpu time spent up to now is        5.1 secs

     total energy              =     -22.72594377 Ry
     estimated scf accuracy    <       0.01111792 Ry

     iteration #  5     ecut=    50.00 Ry     beta= 0.01
     Davidson diagonalization with overlap
     ethr =  1.39E-04,  avg # of iterations =  1.4

     total cpu time spent up to now is        6.5 secs

     total energy              =     -22.72679320 Ry
     estimated scf accuracy    <       0.01991335 Ry

     iteration #  6     ecut=    50.00 Ry     beta= 0.01
     Davidson diagonalization with overlap
     ethr =  1.39E-04,  avg # of iterations =  1.0

     total cpu time spent up to now is        7.7 secs

     total energy              =     -22.72674045 Ry
     estimated scf accuracy    <       0.02096593 Ry

     iteration #  7     ecut=    50.00 Ry     beta= 0.01
     Davidson diagonalization with overlap
     ethr =  1.39E-04,  avg # of iterations =  1.0

     total cpu time spent up to now is        9.0 secs

     total energy              =     -22.72288631 Ry
     estimated scf accuracy    <       0.02007685 Ry

     iteration #  8     ecut=    50.00 Ry     beta= 0.01
     Davidson diagonalization with overlap
     ethr =  1.39E-04,  avg # of iterations =  1.9

     total cpu time spent up to now is       10.5 secs

     total energy              =     -22.72409309 Ry
     estimated scf accuracy    <       0.00474646 Ry

     iteration #  9     ecut=    50.00 Ry     beta= 0.01
     Davidson diagonalization with overlap
     ethr =  5.93E-05,  avg # of iterations =  1.0

     total cpu time spent up to now is       11.9 secs

     total energy              =     -22.72420057 Ry
     estimated scf accuracy    <       0.00433902 Ry

     iteration # 10     ecut=    50.00 Ry     beta= 0.01
     Davidson diagonalization with overlap
     ethr =  5.42E-05,  avg # of iterations =  1.0

     total cpu time spent up to now is       12.6 secs

     total energy              =     -22.72414390 Ry
     estimated scf accuracy    <       0.00342698 Ry

     iteration # 11     ecut=    50.00 Ry     beta= 0.01
     Davidson diagonalization with overlap
     ethr =  4.28E-05,  avg # of iterations =  1.0

     total cpu time spent up to now is       13.7 secs

     total energy              =     -22.72415922 Ry
     estimated scf accuracy    <       0.00006665 Ry

     iteration # 12     ecut=    50.00 Ry     beta= 0.01
     Davidson diagonalization with overlap
     ethr =  8.33E-07,  avg # of iterations =  2.0

     total cpu time spent up to now is       15.2 secs

     total energy              =     -22.72417513 Ry
     estimated scf accuracy    <       0.00046567 Ry

     iteration # 13     ecut=    50.00 Ry     beta= 0.01
     Davidson diagonalization with overlap
     ethr =  8.33E-07,  avg # of iterations =  1.0

     total cpu time spent up to now is       16.3 secs

     total energy              =     -22.72417134 Ry
     estimated scf accuracy    <       0.00024988 Ry

     iteration # 14     ecut=    50.00 Ry     beta= 0.01
     Davidson diagonalization with overlap
     ethr =  8.33E-07,  avg # of iterations =  1.0

     total cpu time spent up to now is       17.0 secs

     End of self-consistent calculation

          k = 0.0000 0.0000 0.0000 (   531 PWs)   bands (ev):

    -9.5494  11.6977  11.6977  11.6977

          k =-0.1000 0.1000-0.1000 (   522 PWs)   bands (ev):

    -9.2778  10.0839  11.2842  11.2842

          k =-0.2000 0.2000-0.2000 (   510 PWs)   bands (ev):

    -8.4697   6.9491  10.4553  10.4553

          k =-0.3000 0.3000-0.3000 (   492 PWs)   bands (ev):

    -7.1497   3.6174   9.7042   9.7042

          k =-0.4000 0.4000-0.4000 (   498 PWs)   bands (ev):

    -5.4202   0.5864   9.2006   9.2006

          k = 0.5000-0.5000 0.5000 (   502 PWs)   bands (ev):

    -4.0972  -1.1857   9.0307   9.0307

          k = 0.0000 0.2000 0.0000 (   516 PWs)   bands (ev):

    -9.1872  10.5636  10.5636  10.7915

          k =-0.1000 0.3000-0.1000 (   511 PWs)   bands (ev):

    -8.5580   8.0291   9.6438  10.3811

          k =-0.2000 0.4000-0.2000 (   499 PWs)   bands (ev):

    -7.4067   4.8213   8.9243   9.5540

          k =-0.3000 0.5000-0.3000 (   502 PWs)   bands (ev):

    -5.7971   1.7053   8.5514   8.7182

          k = 0.6000-0.4000 0.6000 (   502 PWs)   bands (ev):

    -4.0965  -0.7120   8.1090   8.5716

          k = 0.5000-0.3000 0.5000 (   500 PWs)   bands (ev):

    -4.5997  -0.0597   7.8400   8.9604

          k = 0.4000-0.2000 0.4000 (   503 PWs)   bands (ev):

    -6.3778   2.7158   7.9543   9.6578

          k = 0.3000-0.1000 0.3000 (   501 PWs)   bands (ev):

    -7.8469   5.9111   8.4699  10.5293

          k = 0.2000 0.0000 0.2000 (   515 PWs)   bands (ev):

    -8.8273   8.8169   9.5231  11.2477

          k = 0.0000 0.4000 0.0000 (   504 PWs)   bands (ev):

    -8.1098   8.5069   8.6644   8.6644

          k =-0.1000 0.5000-0.1000 (   499 PWs)   bands (ev):

    -7.1358   5.9283   7.9021   8.1308

          k =-0.2000 0.6000-0.2000 (   499 PWs)   bands (ev):

    -5.6807   3.0496   7.1154   7.5230

          k = 0.7000-0.3000 0.7000 (   496 PWs)   bands (ev):

    -3.9263   0.4477   6.1577   7.5753

          k = 0.6000-0.2000 0.6000 (   500 PWs)   bands (ev):

    -3.4554  -0.1259   5.5226   8.0455

          k = 0.5000-0.1000 0.5000 (   502 PWs)   bands (ev):

    -5.1264   2.1999   5.3426   8.8495

          k = 0.4000 0.0000 0.4000 (   505 PWs)   bands (ev):

    -6.7112   4.7641   5.9966   9.8120

          k = 0.0000 0.6000 0.0000 (   496 PWs)   bands (ev):

    -6.3433   5.4990   7.0660   7.0660

          k =-0.1000 0.7000-0.1000 (   493 PWs)   bands (ev):

    -5.0589   3.5740   6.0088   6.6083

          k = 0.8000-0.2000 0.8000 (   491 PWs)   bands (ev):

    -3.3902   1.4908   4.5308   6.5994

          k = 0.7000-0.1000 0.7000 (   503 PWs)   bands (ev):

    -2.2014   0.2332   3.4221   7.0318

          k = 0.6000-0.0000 0.6000 (   498 PWs)   bands (ev):

    -3.5057   1.5931   3.2902   7.8473

          k = 0.0000 0.8000 0.0000 (   488 PWs)   bands (ev):

    -3.9500   2.2081   6.0475   6.0475

          k = 0.9000-0.1000 0.9000 (   490 PWs)   bands (ev):

    -2.4202   0.5992   5.0147   5.9326

          k = 0.8000 0.0000 0.8000 (   494 PWs)   bands (ev):

    -1.1157  -0.3740   3.4444   6.2791

          k = 0.0000-1.0000 0.0000 (   492 PWs)   bands (ev):

    -1.0364  -1.0364   5.6961   5.6961

          k =-0.2000 0.4000 0.0000 (   500 PWs)   bands (ev):

    -7.7561   6.7064   7.7139   9.8628

          k =-0.3000 0.5000-0.1000 (   505 PWs)   bands (ev):

    -6.4513   3.9733   6.8028   9.0232

          k = 0.6000-0.4000 0.8000 (   499 PWs)   bands (ev):

    -4.7447   1.1208   6.5296   8.2181

          k = 0.5000-0.3000 0.7000 (   500 PWs)   bands (ev):

    -3.4474  -0.5841   6.4977   7.8701

          k =-0.2000 0.6000 0.0000 (   501 PWs)   bands (ev):

    -6.0076   4.5927   6.1817   7.5569

          k = 0.7000-0.3000 0.9000 (   498 PWs)   bands (ev):

    -4.4363   2.3626   5.2446   6.8031

          k = 0.6000-0.2000 0.8000 (   494 PWs)   bands (ev):

    -2.7963   0.2861   4.5925   6.6513

          k = 0.5000-0.1000 0.7000 (   498 PWs)   bands (ev):

    -3.3117   0.9388   4.1765   7.1789

          k = 0.4000 0.0000 0.6000 (   499 PWs)   bands (ev):

    -5.0254   3.0410   4.5659   8.1011

          k = 0.8000-0.2000 1.0000 (   495 PWs)   bands (ev):

    -3.6528   2.0870   5.2464   5.7551

          k = 0.7000-0.1000 0.9000 (   493 PWs)   bands (ev):

    -1.9798   0.5792   3.8254   5.6217

          k = 0.6000 0.0000 0.8000 (   499 PWs)   bands (ev):

    -1.7743   0.4674   2.9322   6.1997

          k =-0.2000-1.0000 0.0000 (   490 PWs)   bands (ev):

    -0.8438  -0.8438   5.0519   5.0519

          k = 0.6000-0.2000 1.0000 (   499 PWs)   bands (ev):

    -2.8293   1.4680   3.8093   5.6843

          k = 0.5000-0.1000 0.9000 (   494 PWs)   bands (ev):

    -1.5860   0.3737   3.4913   5.1512

          k =-0.4000-1.0000 0.0000 (   498 PWs)   bands (ev):

    -0.4649  -0.4649   4.0560   4.0560

     highest occupied level (ev):    11.6977

!    total energy              =     -22.72417409 Ry
     estimated scf accuracy    <       0.00000031 Ry

     The total energy is the sum of the following terms:
     one-electron contribution =       7.01727565 Ry
     hartree contribution      =       2.02737158 Ry
     xc contribution           =      -6.93710367 Ry
     ewald contribution        =     -24.83171765 Ry

     convergence has been achieved in  14 iterations
     Writing meta-gga kinetic term

     Writing all to output data dir ./input_pw/C/6/pwscf.save/
     Writing meta-gga kinetic term
 
     init_run     :      0.53s CPU      1.00s WALL (       1 calls)
     electrons    :      9.42s CPU     15.95s WALL (       1 calls)

     Called by init_run:
     wfcinit      :      0.49s CPU      0.89s WALL (       1 calls)
     potinit      :      0.01s CPU      0.03s WALL (       1 calls)
     hinit0       :      0.03s CPU      0.07s WALL (       1 calls)

     Called by electrons:
     c_bands      :      7.45s CPU     12.66s WALL (      14 calls)
     sum_band     :      1.79s CPU      3.00s WALL (      14 calls)
     v_of_rho     :      0.12s CPU      0.19s WALL (      15 calls)
     mix_rho      :      0.07s CPU      0.10s WALL (      14 calls)

     Called by c_bands:
     init_us_2    :      0.03s CPU      0.05s WALL (    1363 calls)
     init_us_2:cp :      0.03s CPU      0.04s WALL (    1363 calls)
     cegterg      :      7.41s CPU     12.60s WALL (     658 calls)

     Called by *egterg:
     cdiaghg      :      0.06s CPU      0.14s WALL (    1472 calls)
     h_psi        :      7.71s CPU     13.12s WALL (    1519 calls)
     g_psi        :      0.01s CPU      0.01s WALL (     814 calls)

     Called by h_psi:
     h_psi:calbec :      0.02s CPU      0.03s WALL (    1519 calls)
     vloc_psi     :      1.90s CPU      3.08s WALL (    1519 calls)
     add_vuspsi   :      0.02s CPU      0.02s WALL (    1519 calls)
     h_psi_meta   :      5.75s CPU      9.95s WALL (    1519 calls)

     General routines
     calbec       :      0.01s CPU      0.03s WALL (    1519 calls)
     fft          :      0.03s CPU      0.05s WALL (     177 calls)
     ffts         :      0.03s CPU      0.04s WALL (     237 calls)
     fftw         :      8.45s CPU     14.45s WALL (   59456 calls)
     interpolate  :      0.00s CPU      0.00s WALL (      15 calls)
 
     Parallel routines
 
     PWSCF        :      9.98s CPU     17.01s WALL

 
   This run was terminated on:  11:48:33  14Mar2023            

=------------------------------------------------------------------------------=
   JOB DONE.
=------------------------------------------------------------------------------=
