
     Program PWSCF v.7.0 starts on 29Mar2023 at 12:56: 4 

     This program is part of the open-source Quantum ESPRESSO suite
     for quantum simulation of materials; please cite
         "P. Giannozzi et al., J. Phys.:Condens. Matter 21 395502 (2009);
         "P. Giannozzi et al., J. Phys.:Condens. Matter 29 465901 (2017);
         "P. Giannozzi et al., J. Chem. Phys. 152 154105 (2020);
          URL http://www.quantum-espresso.org", 
     in publications or presentations arising from this work. More details at
     http://www.quantum-espresso.org/quote

     Parallel version (MPI), running on     1 processors

     MPI processes distributed on     1 nodes
     23199 MiB available memory on the printing compute node when the environment starts
 
     Waiting for input...
     Reading input from standard input
Warning: card &CELL ignored
Warning: card / ignored

     Current dimensions of program PWSCF are:
     Max number of different atomic species (ntypx) = 10
     Max number of k-points (npk) =  40000
     Max angular momentum in pseudopotentials (lmaxx) =  4
     file Si.SCAN.UPF2: wavefunction(s)  0D renormalized

     WARNING: the MGGA functional with ID    5 has been 
     read together with other dft terms, but it should 
     stand alone in order to work properly. The other 
     terms will be ignored.

     WARNING: the MGGA functional with ID    5 has been 
     read together with other dft terms, but it should 
     stand alone in order to work properly. The other 
     terms will be ignored.

     Subspace diagonalization in iterative solution of the eigenvalue problem:
     a serial algorithm will be used

 
     G-vector sticks info
     --------------------
     sticks:   dense  smooth     PW     G-vecs:    dense   smooth      PW
     Sum         499     499    163                 7119     7119    1291
 
     Using Slab Decomposition
 


     bravais-lattice index     =            2
     lattice parameter (alat)  =       8.3904  a.u.
     unit-cell volume          =     147.6677 (a.u.)^3
     number of atoms/cell      =            2
     number of atomic types    =            2
     number of electrons       =         8.00
     number of Kohn-Sham states=            4
     kinetic-energy cutoff     =      50.0000  Ry
     charge density cutoff     =     200.0000  Ry
     scf convergence threshold =      1.0E-06
     mixing beta               =       0.0100
     number of iterations used =            8  local-TF  mixing
     Exchange-correlation= SLA  PW   SCAN SCAN
                           (   0   0   0   0   0 263 267)

     celldm(1)=   8.390384  celldm(2)=   0.000000  celldm(3)=   0.000000
     celldm(4)=   0.000000  celldm(5)=   0.000000  celldm(6)=   0.000000

     crystal axes: (cart. coord. in units of alat)
               a(1) = (  -0.500000   0.000000   0.500000 )  
               a(2) = (   0.000000   0.500000   0.500000 )  
               a(3) = (  -0.500000   0.500000   0.000000 )  

     reciprocal axes: (cart. coord. in units 2 pi/alat)
               b(1) = ( -1.000000 -1.000000  1.000000 )  
               b(2) = (  1.000000  1.000000  1.000000 )  
               b(3) = ( -1.000000  1.000000 -1.000000 )  


     PseudoPot. # 1 for Si read from file:
     ~/Documents/TA/PWDFT.jl/pseudopotentials/scan_upf/Si.SCAN.UPF2
     MD5 check sum: Not computed, couldn't open file
     Pseudo is Norm-conserving, Zval =  4.0
     Generated by new atomic code, or converted to UPF format
     Using radial grid of 1475 points,  2 beta functions with: 
                l(1) =   0
                l(2) =   1

     PseudoPot. # 2 for C  read from file:
     ~/Documents/TA/PWDFT.jl/pseudopotentials/scan_upf/C.SCAN.UPF2
     MD5 check sum: Not computed, couldn't open file
     Pseudo is Norm-conserving, Zval =  4.0
     Generated by new atomic code, or converted to UPF format
     Using radial grid of 1389 points,  1 beta functions with: 
                l(1) =   0

     atomic species   valence    mass     pseudopotential
        Si             4.00    28.08550     Si( 1.00)
        C              4.00    12.01100     C ( 1.00)

     24 Sym. Ops. (no inversion) found



   Cartesian axes

     site n.     atom                  positions (alat units)
         1           Si  tau(   1) = (   0.0000000   0.0000000   0.0000000  )
         2           C   tau(   2) = (   0.2500000   0.2500000   0.2500000  )

     number of k points=    47
                       cart. coord. in units 2pi/alat
        k(    1) = (   0.0000000   0.0000000   0.0000000), wk =   0.0020000
        k(    2) = (  -0.1000000   0.1000000  -0.1000000), wk =   0.0160000
        k(    3) = (  -0.2000000   0.2000000  -0.2000000), wk =   0.0160000
        k(    4) = (  -0.3000000   0.3000000  -0.3000000), wk =   0.0160000
        k(    5) = (  -0.4000000   0.4000000  -0.4000000), wk =   0.0160000
        k(    6) = (   0.5000000  -0.5000000   0.5000000), wk =   0.0080000
        k(    7) = (   0.0000000   0.2000000   0.0000000), wk =   0.0120000
        k(    8) = (  -0.1000000   0.3000000  -0.1000000), wk =   0.0480000
        k(    9) = (  -0.2000000   0.4000000  -0.2000000), wk =   0.0480000
        k(   10) = (  -0.3000000   0.5000000  -0.3000000), wk =   0.0480000
        k(   11) = (   0.6000000  -0.4000000   0.6000000), wk =   0.0480000
        k(   12) = (   0.5000000  -0.3000000   0.5000000), wk =   0.0480000
        k(   13) = (   0.4000000  -0.2000000   0.4000000), wk =   0.0480000
        k(   14) = (   0.3000000  -0.1000000   0.3000000), wk =   0.0480000
        k(   15) = (   0.2000000   0.0000000   0.2000000), wk =   0.0240000
        k(   16) = (   0.0000000   0.4000000   0.0000000), wk =   0.0120000
        k(   17) = (  -0.1000000   0.5000000  -0.1000000), wk =   0.0480000
        k(   18) = (  -0.2000000   0.6000000  -0.2000000), wk =   0.0480000
        k(   19) = (   0.7000000  -0.3000000   0.7000000), wk =   0.0480000
        k(   20) = (   0.6000000  -0.2000000   0.6000000), wk =   0.0480000
        k(   21) = (   0.5000000  -0.1000000   0.5000000), wk =   0.0480000
        k(   22) = (   0.4000000   0.0000000   0.4000000), wk =   0.0240000
        k(   23) = (   0.0000000   0.6000000   0.0000000), wk =   0.0120000
        k(   24) = (  -0.1000000   0.7000000  -0.1000000), wk =   0.0480000
        k(   25) = (   0.8000000  -0.2000000   0.8000000), wk =   0.0480000
        k(   26) = (   0.7000000  -0.1000000   0.7000000), wk =   0.0480000
        k(   27) = (   0.6000000  -0.0000000   0.6000000), wk =   0.0240000
        k(   28) = (   0.0000000   0.8000000   0.0000000), wk =   0.0120000
        k(   29) = (   0.9000000  -0.1000000   0.9000000), wk =   0.0480000
        k(   30) = (   0.8000000   0.0000000   0.8000000), wk =   0.0240000
        k(   31) = (   0.0000000  -1.0000000   0.0000000), wk =   0.0060000
        k(   32) = (  -0.2000000   0.4000000   0.0000000), wk =   0.0480000
        k(   33) = (  -0.3000000   0.5000000  -0.1000000), wk =   0.0960000
        k(   34) = (   0.6000000  -0.4000000   0.8000000), wk =   0.0960000
        k(   35) = (   0.5000000  -0.3000000   0.7000000), wk =   0.0480000
        k(   36) = (  -0.2000000   0.6000000   0.0000000), wk =   0.0480000
        k(   37) = (   0.7000000  -0.3000000   0.9000000), wk =   0.0960000
        k(   38) = (   0.6000000  -0.2000000   0.8000000), wk =   0.0960000
        k(   39) = (   0.5000000  -0.1000000   0.7000000), wk =   0.0960000
        k(   40) = (   0.4000000   0.0000000   0.6000000), wk =   0.0480000
        k(   41) = (   0.8000000  -0.2000000   1.0000000), wk =   0.0480000
        k(   42) = (   0.7000000  -0.1000000   0.9000000), wk =   0.0960000
        k(   43) = (   0.6000000   0.0000000   0.8000000), wk =   0.0480000
        k(   44) = (  -0.2000000  -1.0000000   0.0000000), wk =   0.0240000
        k(   45) = (   0.6000000  -0.2000000   1.0000000), wk =   0.0480000
        k(   46) = (   0.5000000  -0.1000000   0.9000000), wk =   0.0480000
        k(   47) = (  -0.4000000  -1.0000000   0.0000000), wk =   0.0240000

     Dense  grid:     7119 G-vectors     FFT dimensions: (  27,  27,  27)

     Estimated max dynamical RAM per process >      13.38 MB

     WARNING: libxc functional with ID  263 depends
      on external parameters: check the user_guide of
      QE if you need to modify them or to check their
      default values.

     Initial potential from superposition of free atoms

     starting charge       7.9995, renormalised to       8.0000
     Starting wfcs are   13 randomized atomic wfcs

     total cpu time spent up to now is        2.8 secs

     Self-consistent Calculation

     iteration #  1     ecut=    50.00 Ry     beta= 0.01
     Davidson diagonalization with overlap
     ethr =  1.00E-02,  avg # of iterations =  2.0

     total cpu time spent up to now is        5.6 secs

     total energy              =     -19.32181159 Ry
     estimated scf accuracy    <       2.02182953 Ry

     iteration #  2     ecut=    50.00 Ry     beta= 0.01
     Davidson diagonalization with overlap
     ethr =  1.00E-02,  avg # of iterations =  1.0

     total cpu time spent up to now is        7.6 secs

     total energy              =     -19.22690892 Ry
     estimated scf accuracy    <       1.98358077 Ry

     iteration #  3     ecut=    50.00 Ry     beta= 0.01
     Davidson diagonalization with overlap
     ethr =  1.00E-02,  avg # of iterations =  1.0

     total cpu time spent up to now is        9.5 secs

     total energy              =     -19.28192336 Ry
     estimated scf accuracy    <       0.02823180 Ry

     iteration #  4     ecut=    50.00 Ry     beta= 0.01
     Davidson diagonalization with overlap
     ethr =  3.53E-04,  avg # of iterations =  2.0

     total cpu time spent up to now is       12.0 secs

     total energy              =     -19.28709466 Ry
     estimated scf accuracy    <       0.03446644 Ry

     iteration #  5     ecut=    50.00 Ry     beta= 0.01
     Davidson diagonalization with overlap
     ethr =  3.53E-04,  avg # of iterations =  1.0

     total cpu time spent up to now is       14.0 secs

     total energy              =     -19.28797667 Ry
     estimated scf accuracy    <       0.06835231 Ry

     iteration #  6     ecut=    50.00 Ry     beta= 0.01
     Davidson diagonalization with overlap
     ethr =  3.53E-04,  avg # of iterations =  1.0

     total cpu time spent up to now is       15.9 secs

     total energy              =     -19.29233887 Ry
     estimated scf accuracy    <       0.07837592 Ry

     iteration #  7     ecut=    50.00 Ry     beta= 0.01
     Davidson diagonalization with overlap
     ethr =  3.53E-04,  avg # of iterations =  1.0

     total cpu time spent up to now is       17.9 secs

     total energy              =     -19.29436493 Ry
     estimated scf accuracy    <       0.02778442 Ry

     iteration #  8     ecut=    50.00 Ry     beta= 0.01
     Davidson diagonalization with overlap
     ethr =  3.47E-04,  avg # of iterations =  1.0

     total cpu time spent up to now is       19.8 secs

     total energy              =     -19.29456964 Ry
     estimated scf accuracy    <       0.00923231 Ry

     iteration #  9     ecut=    50.00 Ry     beta= 0.01
     Davidson diagonalization with overlap
     ethr =  1.15E-04,  avg # of iterations =  1.0

     total cpu time spent up to now is       21.8 secs

     total energy              =     -19.29435830 Ry
     estimated scf accuracy    <       0.01020910 Ry

     iteration # 10     ecut=    50.00 Ry     beta= 0.01
     Davidson diagonalization with overlap
     ethr =  1.15E-04,  avg # of iterations =  1.0

     total cpu time spent up to now is       23.8 secs

     total energy              =     -19.29348315 Ry
     estimated scf accuracy    <       0.00479112 Ry

     iteration # 11     ecut=    50.00 Ry     beta= 0.01
     Davidson diagonalization with overlap
     ethr =  5.99E-05,  avg # of iterations =  1.7

     total cpu time spent up to now is       25.9 secs

     total energy              =     -19.29398800 Ry
     estimated scf accuracy    <       0.00009020 Ry

     iteration # 12     ecut=    50.00 Ry     beta= 0.01
     Davidson diagonalization with overlap
     ethr =  1.13E-06,  avg # of iterations =  3.6

     total cpu time spent up to now is       29.5 secs

     total energy              =     -19.29409464 Ry
     estimated scf accuracy    <       0.00058743 Ry

     iteration # 13     ecut=    50.00 Ry     beta= 0.01
     Davidson diagonalization with overlap
     ethr =  1.13E-06,  avg # of iterations =  1.0

     total cpu time spent up to now is       31.5 secs

     total energy              =     -19.29402575 Ry
     estimated scf accuracy    <       0.00058455 Ry

     iteration # 14     ecut=    50.00 Ry     beta= 0.01
     Davidson diagonalization with overlap
     ethr =  1.13E-06,  avg # of iterations =  1.6

     total cpu time spent up to now is       33.3 secs

     total energy              =     -19.29399296 Ry
     estimated scf accuracy    <       0.00023168 Ry

     iteration # 15     ecut=    50.00 Ry     beta= 0.01
     Davidson diagonalization with overlap
     ethr =  1.13E-06,  avg # of iterations =  2.0

     total cpu time spent up to now is       35.9 secs

     total energy              =     -19.29402066 Ry
     estimated scf accuracy    <       0.00000916 Ry

     iteration # 16     ecut=    50.00 Ry     beta= 0.01
     Davidson diagonalization with overlap
     ethr =  1.14E-07,  avg # of iterations =  2.0

     total cpu time spent up to now is       37.9 secs

     total energy              =     -19.29402345 Ry
     estimated scf accuracy    <       0.00002350 Ry

     iteration # 17     ecut=    50.00 Ry     beta= 0.01
     Davidson diagonalization with overlap
     ethr =  1.14E-07,  avg # of iterations =  1.0

     total cpu time spent up to now is       39.3 secs

     total energy              =     -19.29402480 Ry
     estimated scf accuracy    <       0.00002940 Ry

     iteration # 18     ecut=    50.00 Ry     beta= 0.01
     Davidson diagonalization with overlap
     ethr =  1.14E-07,  avg # of iterations =  1.0

     total cpu time spent up to now is       40.8 secs

     total energy              =     -19.29402496 Ry
     estimated scf accuracy    <       0.00003191 Ry

     iteration # 19     ecut=    50.00 Ry     beta= 0.01
     Davidson diagonalization with overlap
     ethr =  1.14E-07,  avg # of iterations =  1.0

     total cpu time spent up to now is       42.1 secs

     total energy              =     -19.29402485 Ry
     estimated scf accuracy    <       0.00002478 Ry

     iteration # 20     ecut=    50.00 Ry     beta= 0.01
     Davidson diagonalization with overlap
     ethr =  1.14E-07,  avg # of iterations =  1.0

     total cpu time spent up to now is       43.4 secs

     total energy              =     -19.29402464 Ry
     estimated scf accuracy    <       0.00002253 Ry

     iteration # 21     ecut=    50.00 Ry     beta= 0.01
     Davidson diagonalization with overlap
     ethr =  1.14E-07,  avg # of iterations =  1.0

     total cpu time spent up to now is       44.6 secs

     total energy              =     -19.29402422 Ry
     estimated scf accuracy    <       0.00002352 Ry

     iteration # 22     ecut=    50.00 Ry     beta= 0.01
     Davidson diagonalization with overlap
     ethr =  1.14E-07,  avg # of iterations =  1.0

     total cpu time spent up to now is       45.8 secs

     total energy              =     -19.29402241 Ry
     estimated scf accuracy    <       0.00002068 Ry

     iteration # 23     ecut=    50.00 Ry     beta= 0.01
     Davidson diagonalization with overlap
     ethr =  1.14E-07,  avg # of iterations =  1.0

     total cpu time spent up to now is       47.0 secs

     total energy              =     -19.29402162 Ry
     estimated scf accuracy    <       0.00000787 Ry

     iteration # 24     ecut=    50.00 Ry     beta= 0.01
     Davidson diagonalization with overlap
     ethr =  9.83E-08,  avg # of iterations =  1.0

     total cpu time spent up to now is       48.4 secs

     End of self-consistent calculation

          k = 0.0000 0.0000 0.0000 (   893 PWs)   bands (ev):

    -7.0912   8.6274   8.6274   8.6274

          k =-0.1000 0.1000-0.1000 (   899 PWs)   bands (ev):

    -6.8976   7.5904   8.4879   8.4879

          k =-0.2000 0.2000-0.2000 (   899 PWs)   bands (ev):

    -6.3270   5.4448   8.1684   8.1684

          k =-0.3000 0.3000-0.3000 (   890 PWs)   bands (ev):

    -5.4216   3.1306   7.8408   7.8408

          k =-0.4000 0.4000-0.4000 (   875 PWs)   bands (ev):

    -4.3285   1.1165   7.6149   7.6149

          k = 0.5000-0.5000 0.5000 (   886 PWs)   bands (ev):

    -3.6718   0.1412   7.5332   7.5332

          k = 0.0000 0.2000 0.0000 (   889 PWs)   bands (ev):

    -6.8330   7.8265   8.1515   8.1515

          k =-0.1000 0.3000-0.1000 (   892 PWs)   bands (ev):

    -6.3876   6.1553   7.7136   7.9804

          k =-0.2000 0.4000-0.2000 (   880 PWs)   bands (ev):

    -5.5901   3.9479   7.3649   7.6005

          k =-0.3000 0.5000-0.3000 (   882 PWs)   bands (ev):

    -4.5367   1.8413   7.1485   7.2004

          k = 0.6000-0.4000 0.6000 (   881 PWs)   bands (ev):

    -3.6183   0.4171   6.7885   7.2474

          k = 0.5000-0.3000 0.5000 (   876 PWs)   bands (ev):

    -3.8552   0.7584   6.6079   7.4909

          k = 0.4000-0.2000 0.4000 (   885 PWs)   bands (ev):

    -4.9058   2.5081   6.6575   7.8653

          k = 0.3000-0.1000 0.3000 (   887 PWs)   bands (ev):

    -5.8928   4.6754   6.9690   8.2664

          k = 0.2000 0.0000 0.2000 (   903 PWs)   bands (ev):

    -6.5781   6.6168   7.6289   8.5283

          k = 0.0000 0.4000 0.0000 (   885 PWs)   bands (ev):

    -6.0706   6.1233   7.1669   7.1669

          k =-0.1000 0.5000-0.1000 (   877 PWs)   bands (ev):

    -5.3959   4.5854   6.7012   6.7455

          k =-0.2000 0.6000-0.2000 (   886 PWs)   bands (ev):

    -4.4316   2.6995   5.9991   6.5508

          k = 0.7000-0.3000 0.7000 (   881 PWs)   bands (ev):

    -3.4253   1.1268   5.3266   6.6185

          k = 0.6000-0.2000 0.6000 (   880 PWs)   bands (ev):

    -3.2184   0.8510   4.8899   6.9306

          k = 0.5000-0.1000 0.5000 (   881 PWs)   bands (ev):

    -4.0978   2.1453   4.8221   7.4212

          k = 0.4000 0.0000 0.4000 (   881 PWs)   bands (ev):

    -5.1165   3.7207   5.4289   7.9458

          k = 0.0000 0.6000 0.0000 (   874 PWs)   bands (ev):

    -4.8507   4.1097   6.2402   6.2402

          k =-0.1000 0.7000-0.1000 (   879 PWs)   bands (ev):

    -4.0092   2.8928   5.4769   5.9725

          k = 0.8000-0.2000 0.8000 (   879 PWs)   bands (ev):

    -3.0528   1.7197   4.3189   5.9898

          k = 0.7000-0.1000 0.7000 (   881 PWs)   bands (ev):

    -2.5827   1.2566   3.4557   6.2862

          k = 0.6000-0.0000 0.6000 (   877 PWs)   bands (ev):

    -3.1561   1.8028   3.4383   6.8078

          k = 0.0000 0.8000 0.0000 (   886 PWs)   bands (ev):

    -3.3219   2.0439   5.6208   5.6208

          k = 0.9000-0.1000 0.9000 (   883 PWs)   bands (ev):

    -2.5622   1.2472   4.8146   5.5577

          k = 0.8000 0.0000 0.8000 (   878 PWs)   bands (ev):

    -2.2312   1.1564   3.5878   5.7932

          k = 0.0000-1.0000 0.0000 (   894 PWs)   bands (ev):

    -2.2799   0.8055   5.4055   5.4055

          k =-0.2000 0.4000 0.0000 (   883 PWs)   bands (ev):

    -5.8270   5.0906   6.5765   7.8218

          k =-0.3000 0.5000-0.1000 (   882 PWs)   bands (ev):

    -4.9413   3.3082   5.8790   7.4182

          k = 0.6000-0.4000 0.8000 (   884 PWs)   bands (ev):

    -3.8829   1.4908   5.6312   6.9744

          k = 0.5000-0.3000 0.7000 (   876 PWs)   bands (ev):

    -3.2589   0.5906   5.5825   6.7820

          k =-0.2000 0.6000 0.0000 (   880 PWs)   bands (ev):

    -4.6335   3.5714   5.6022   6.4839

          k = 0.7000-0.3000 0.9000 (   877 PWs)   bands (ev):

    -3.6493   2.2197   4.8090   6.0244

          k = 0.6000-0.2000 0.8000 (   880 PWs)   bands (ev):

    -2.8410   1.1745   4.2415   5.9456

          k = 0.5000-0.1000 0.7000 (   881 PWs)   bands (ev):

    -3.0669   1.4782   3.9809   6.2903

          k = 0.4000 0.0000 0.6000 (   882 PWs)   bands (ev):

    -4.0193   2.5830   4.4120   6.8783

          k = 0.8000-0.2000 1.0000 (   884 PWs)   bands (ev):

    -3.1662   1.9974   4.9757   5.3304

          k = 0.7000-0.1000 0.9000 (   883 PWs)   bands (ev):

    -2.4169   1.3981   3.8538   5.2324

          k = 0.6000 0.0000 0.8000 (   885 PWs)   bands (ev):

    -2.3897   1.4765   3.1546   5.6250

          k =-0.2000-1.0000 0.0000 (   884 PWs)   bands (ev):

    -2.2158   0.9980   4.8324   4.8412

          k = 0.6000-0.2000 1.0000 (   882 PWs)   bands (ev):

    -2.7758   1.7764   3.8406   5.2077

          k = 0.5000-0.1000 0.9000 (   888 PWs)   bands (ev):

    -2.3174   1.4737   3.5308   4.8340

          k =-0.4000-1.0000 0.0000 (   884 PWs)   bands (ev):

    -2.1052   1.4213   3.9056   4.1359

     highest occupied level (ev):     8.6274

!    total energy              =     -19.29402162 Ry
     estimated scf accuracy    <       0.00000060 Ry

     The total energy is the sum of the following terms:
     one-electron contribution =       4.86571723 Ry
     hartree contribution      =       2.40627275 Ry
     xc contribution           =      -6.02135741 Ry
     ewald contribution        =     -20.54465419 Ry

     convergence has been achieved in  24 iterations
     Writing meta-gga kinetic term

     Writing all to output data dir ./input_pw/SiC/7/pwscf.save/
     Writing meta-gga kinetic term
 
     init_run     :      1.32s CPU      2.78s WALL (       1 calls)
     electrons    :     25.76s CPU     45.61s WALL (       1 calls)

     Called by init_run:
     wfcinit      :      1.20s CPU      2.61s WALL (       1 calls)
     potinit      :      0.01s CPU      0.04s WALL (       1 calls)
     hinit0       :      0.10s CPU      0.11s WALL (       1 calls)

     Called by electrons:
     c_bands      :     20.37s CPU     36.39s WALL (      24 calls)
     sum_band     :      4.88s CPU      8.24s WALL (      24 calls)
     v_of_rho     :      0.30s CPU      0.58s WALL (      25 calls)
     mix_rho      :      0.22s CPU      0.41s WALL (      24 calls)

     Called by c_bands:
     init_us_2    :      0.26s CPU      0.56s WALL (    2303 calls)
     init_us_2:cp :      0.25s CPU      0.55s WALL (    2303 calls)
     cegterg      :     20.12s CPU     35.93s WALL (    1128 calls)

     Called by *egterg:
     cdiaghg      :      0.12s CPU      0.28s WALL (    2634 calls)
     h_psi        :     20.86s CPU     37.61s WALL (    2681 calls)
     g_psi        :      0.02s CPU      0.03s WALL (    1506 calls)

     Called by h_psi:
     h_psi:calbec :      0.06s CPU      0.11s WALL (    2681 calls)
     vloc_psi     :      5.14s CPU      9.10s WALL (    2681 calls)
     add_vuspsi   :      0.07s CPU      0.09s WALL (    2681 calls)
     h_psi_meta   :     15.55s CPU     28.23s WALL (    2681 calls)

     General routines
     calbec       :      0.06s CPU      0.09s WALL (    2681 calls)
     fft          :      0.07s CPU      0.10s WALL (     297 calls)
     ffts         :      0.10s CPU      0.25s WALL (     471 calls)
     fftw         :     22.92s CPU     40.82s WALL (  103728 calls)
     interpolate  :      0.00s CPU      0.00s WALL (      25 calls)
 
     Parallel routines
 
     PWSCF        :     27.13s CPU     48.46s WALL

 
   This run was terminated on:  12:56:53  29Mar2023            

=------------------------------------------------------------------------------=
   JOB DONE.
=------------------------------------------------------------------------------=
