
     Program PWSCF v.7.0 starts on  7Jul2023 at 14:30:57 

     This program is part of the open-source Quantum ESPRESSO suite
     for quantum simulation of materials; please cite
         "P. Giannozzi et al., J. Phys.:Condens. Matter 21 395502 (2009);
         "P. Giannozzi et al., J. Phys.:Condens. Matter 29 465901 (2017);
         "P. Giannozzi et al., J. Chem. Phys. 152 154105 (2020);
          URL http://www.quantum-espresso.org", 
     in publications or presentations arising from this work. More details at
     http://www.quantum-espresso.org/quote

     Parallel version (MPI), running on     1 processors

     MPI processes distributed on     1 nodes
     26997 MiB available memory on the printing compute node when the environment starts
 
     Waiting for input...
     Reading input from standard input
Warning: card &CELL ignored
Warning: card / ignored

     Current dimensions of program PWSCF are:
     Max number of different atomic species (ntypx) = 10
     Max number of k-points (npk) =  40000
     Max angular momentum in pseudopotentials (lmaxx) =  4
     file Si.SCAN.UPF2: wavefunction(s)  0D renormalized

     WARNING: the MGGA functional with ID    5 has been 
     read together with other dft terms, but it should 
     stand alone in order to work properly. The other 
     terms will be ignored.

     WARNING: the MGGA functional with ID    5 has been 
     read together with other dft terms, but it should 
     stand alone in order to work properly. The other 
     terms will be ignored.

     Subspace diagonalization in iterative solution of the eigenvalue problem:
     a serial algorithm will be used

 
     G-vector sticks info
     --------------------
     sticks:   dense  smooth     PW     G-vecs:    dense   smooth      PW
     Sum         499     499    163                 7119     7119    1291
 
     Using Slab Decomposition
 


     bravais-lattice index     =            2
     lattice parameter (alat)  =       8.3904  a.u.
     unit-cell volume          =     147.6677 (a.u.)^3
     number of atoms/cell      =            2
     number of atomic types    =            2
     number of electrons       =         8.00
     number of Kohn-Sham states=            4
     kinetic-energy cutoff     =      50.0000  Ry
     charge density cutoff     =     200.0000  Ry
     scf convergence threshold =      2.0E-05
     mixing beta               =       0.2000
     number of iterations used =            8  local-TF  mixing
     Exchange-correlation= SLA  PW   SCAN SCAN
                           (   0   0   0   0   0 263 267)

     celldm(1)=   8.390384  celldm(2)=   0.000000  celldm(3)=   0.000000
     celldm(4)=   0.000000  celldm(5)=   0.000000  celldm(6)=   0.000000

     crystal axes: (cart. coord. in units of alat)
               a(1) = (  -0.500000   0.000000   0.500000 )  
               a(2) = (   0.000000   0.500000   0.500000 )  
               a(3) = (  -0.500000   0.500000   0.000000 )  

     reciprocal axes: (cart. coord. in units 2 pi/alat)
               b(1) = ( -1.000000 -1.000000  1.000000 )  
               b(2) = (  1.000000  1.000000  1.000000 )  
               b(3) = ( -1.000000  1.000000 -1.000000 )  


     PseudoPot. # 1 for Si read from file:
     ~/Documents/TA/PWDFT.jl/pseudopotentials/scan_upf/Si.SCAN.UPF2
     MD5 check sum: Not computed, couldn't open file
     Pseudo is Norm-conserving, Zval =  4.0
     Generated by new atomic code, or converted to UPF format
     Using radial grid of 1475 points,  2 beta functions with: 
                l(1) =   0
                l(2) =   1

     PseudoPot. # 2 for C  read from file:
     ~/Documents/TA/PWDFT.jl/pseudopotentials/scan_upf/C.SCAN.UPF2
     MD5 check sum: Not computed, couldn't open file
     Pseudo is Norm-conserving, Zval =  4.0
     Generated by new atomic code, or converted to UPF format
     Using radial grid of 1389 points,  1 beta functions with: 
                l(1) =   0

     atomic species   valence    mass     pseudopotential
        Si             4.00    28.08550     Si( 1.00)
        C              4.00    12.01100     C ( 1.00)

     24 Sym. Ops. (no inversion) found



   Cartesian axes

     site n.     atom                  positions (alat units)
         1           Si  tau(   1) = (   0.0000000   0.0000000   0.0000000  )
         2           C   tau(   2) = (   0.2500000   0.2500000   0.2500000  )

     number of k points=    47
                       cart. coord. in units 2pi/alat
        k(    1) = (   0.0000000   0.0000000   0.0000000), wk =   0.0020000
        k(    2) = (  -0.1000000   0.1000000  -0.1000000), wk =   0.0160000
        k(    3) = (  -0.2000000   0.2000000  -0.2000000), wk =   0.0160000
        k(    4) = (  -0.3000000   0.3000000  -0.3000000), wk =   0.0160000
        k(    5) = (  -0.4000000   0.4000000  -0.4000000), wk =   0.0160000
        k(    6) = (   0.5000000  -0.5000000   0.5000000), wk =   0.0080000
        k(    7) = (   0.0000000   0.2000000   0.0000000), wk =   0.0120000
        k(    8) = (  -0.1000000   0.3000000  -0.1000000), wk =   0.0480000
        k(    9) = (  -0.2000000   0.4000000  -0.2000000), wk =   0.0480000
        k(   10) = (  -0.3000000   0.5000000  -0.3000000), wk =   0.0480000
        k(   11) = (   0.6000000  -0.4000000   0.6000000), wk =   0.0480000
        k(   12) = (   0.5000000  -0.3000000   0.5000000), wk =   0.0480000
        k(   13) = (   0.4000000  -0.2000000   0.4000000), wk =   0.0480000
        k(   14) = (   0.3000000  -0.1000000   0.3000000), wk =   0.0480000
        k(   15) = (   0.2000000   0.0000000   0.2000000), wk =   0.0240000
        k(   16) = (   0.0000000   0.4000000   0.0000000), wk =   0.0120000
        k(   17) = (  -0.1000000   0.5000000  -0.1000000), wk =   0.0480000
        k(   18) = (  -0.2000000   0.6000000  -0.2000000), wk =   0.0480000
        k(   19) = (   0.7000000  -0.3000000   0.7000000), wk =   0.0480000
        k(   20) = (   0.6000000  -0.2000000   0.6000000), wk =   0.0480000
        k(   21) = (   0.5000000  -0.1000000   0.5000000), wk =   0.0480000
        k(   22) = (   0.4000000   0.0000000   0.4000000), wk =   0.0240000
        k(   23) = (   0.0000000   0.6000000   0.0000000), wk =   0.0120000
        k(   24) = (  -0.1000000   0.7000000  -0.1000000), wk =   0.0480000
        k(   25) = (   0.8000000  -0.2000000   0.8000000), wk =   0.0480000
        k(   26) = (   0.7000000  -0.1000000   0.7000000), wk =   0.0480000
        k(   27) = (   0.6000000  -0.0000000   0.6000000), wk =   0.0240000
        k(   28) = (   0.0000000   0.8000000   0.0000000), wk =   0.0120000
        k(   29) = (   0.9000000  -0.1000000   0.9000000), wk =   0.0480000
        k(   30) = (   0.8000000   0.0000000   0.8000000), wk =   0.0240000
        k(   31) = (   0.0000000  -1.0000000   0.0000000), wk =   0.0060000
        k(   32) = (  -0.2000000   0.4000000   0.0000000), wk =   0.0480000
        k(   33) = (  -0.3000000   0.5000000  -0.1000000), wk =   0.0960000
        k(   34) = (   0.6000000  -0.4000000   0.8000000), wk =   0.0960000
        k(   35) = (   0.5000000  -0.3000000   0.7000000), wk =   0.0480000
        k(   36) = (  -0.2000000   0.6000000   0.0000000), wk =   0.0480000
        k(   37) = (   0.7000000  -0.3000000   0.9000000), wk =   0.0960000
        k(   38) = (   0.6000000  -0.2000000   0.8000000), wk =   0.0960000
        k(   39) = (   0.5000000  -0.1000000   0.7000000), wk =   0.0960000
        k(   40) = (   0.4000000   0.0000000   0.6000000), wk =   0.0480000
        k(   41) = (   0.8000000  -0.2000000   1.0000000), wk =   0.0480000
        k(   42) = (   0.7000000  -0.1000000   0.9000000), wk =   0.0960000
        k(   43) = (   0.6000000   0.0000000   0.8000000), wk =   0.0480000
        k(   44) = (  -0.2000000  -1.0000000   0.0000000), wk =   0.0240000
        k(   45) = (   0.6000000  -0.2000000   1.0000000), wk =   0.0480000
        k(   46) = (   0.5000000  -0.1000000   0.9000000), wk =   0.0480000
        k(   47) = (  -0.4000000  -1.0000000   0.0000000), wk =   0.0240000

     Dense  grid:     7119 G-vectors     FFT dimensions: (  27,  27,  27)

     Estimated max dynamical RAM per process >      13.38 MB

     WARNING: libxc functional with ID  263 depends
      on external parameters: check the user_guide of
      QE if you need to modify them or to check their
      default values.

     Initial potential from superposition of free atoms

     starting charge       7.9995, renormalised to       8.0000
     Starting wfcs are   13 randomized atomic wfcs

     total cpu time spent up to now is        2.8 secs

     Self-consistent Calculation

     iteration #  1     ecut=    50.00 Ry     beta= 0.20
     Davidson diagonalization with overlap
     ethr =  1.00E-02,  avg # of iterations =  2.0

     total cpu time spent up to now is        5.6 secs

     total energy              =     -19.32529531 Ry
     estimated scf accuracy    <       2.02182953 Ry

     iteration #  2     ecut=    50.00 Ry     beta= 0.20
     Davidson diagonalization with overlap
     ethr =  1.00E-02,  avg # of iterations =  1.0

     total cpu time spent up to now is        7.6 secs

     total energy              =     -19.22686730 Ry
     estimated scf accuracy    <       1.26809228 Ry

     iteration #  3     ecut=    50.00 Ry     beta= 0.20
     Davidson diagonalization with overlap
     ethr =  1.00E-02,  avg # of iterations =  1.0

     total cpu time spent up to now is        9.7 secs

     total energy              =     -19.28411582 Ry
     estimated scf accuracy    <       0.04811045 Ry

     iteration #  4     ecut=    50.00 Ry     beta= 0.20
     Davidson diagonalization with overlap
     ethr =  6.01E-04,  avg # of iterations =  2.0

     total cpu time spent up to now is       12.4 secs

     total energy              =     -19.29387518 Ry
     estimated scf accuracy    <       0.01579719 Ry

     iteration #  5     ecut=    50.00 Ry     beta= 0.20
     Davidson diagonalization with overlap
     ethr =  1.97E-04,  avg # of iterations =  1.0

     total cpu time spent up to now is       14.1 secs

     total energy              =     -19.29237431 Ry
     estimated scf accuracy    <       0.03814275 Ry

     iteration #  6     ecut=    50.00 Ry     beta= 0.20
     Davidson diagonalization with overlap
     ethr =  1.97E-04,  avg # of iterations =  2.0

     total cpu time spent up to now is       15.9 secs

     total energy              =     -19.29400727 Ry
     estimated scf accuracy    <       0.00401535 Ry

     iteration #  7     ecut=    50.00 Ry     beta= 0.20
     Davidson diagonalization with overlap
     ethr =  5.02E-05,  avg # of iterations =  1.0

     total cpu time spent up to now is       17.6 secs

     total energy              =     -19.29392277 Ry
     estimated scf accuracy    <       0.00241192 Ry

     iteration #  8     ecut=    50.00 Ry     beta= 0.20
     Davidson diagonalization with overlap
     ethr =  3.01E-05,  avg # of iterations =  1.0

     total cpu time spent up to now is       19.0 secs

     total energy              =     -19.29401997 Ry
     estimated scf accuracy    <       0.00006555 Ry

     iteration #  9     ecut=    50.00 Ry     beta= 0.20
     Davidson diagonalization with overlap
     ethr =  8.19E-07,  avg # of iterations =  2.0

     total cpu time spent up to now is       20.7 secs

     total energy              =     -19.29402122 Ry
     estimated scf accuracy    <       0.00004058 Ry

     iteration # 10     ecut=    50.00 Ry     beta= 0.20
     Davidson diagonalization with overlap
     ethr =  5.07E-07,  avg # of iterations =  1.1

     total cpu time spent up to now is       22.0 secs

     End of self-consistent calculation

          k = 0.0000 0.0000 0.0000 (   893 PWs)   bands (ev):

    -7.0904   8.6209   8.6209   8.6209

          k =-0.1000 0.1000-0.1000 (   899 PWs)   bands (ev):

    -6.8970   7.5855   8.4818   8.4818

          k =-0.2000 0.2000-0.2000 (   899 PWs)   bands (ev):

    -6.3267   5.4420   8.1630   8.1630

          k =-0.3000 0.3000-0.3000 (   890 PWs)   bands (ev):

    -5.4219   3.1296   7.8360   7.8360

          k =-0.4000 0.4000-0.4000 (   875 PWs)   bands (ev):

    -4.3298   1.1171   7.6105   7.6105

          k = 0.5000-0.5000 0.5000 (   886 PWs)   bands (ev):

    -3.6740   0.1431   7.5289   7.5289

          k = 0.0000 0.2000 0.0000 (   889 PWs)   bands (ev):

    -6.8324   7.8209   8.1461   8.1461

          k =-0.1000 0.3000-0.1000 (   892 PWs)   bands (ev):

    -6.3872   6.1518   7.7091   7.9753

          k =-0.2000 0.4000-0.2000 (   880 PWs)   bands (ev):

    -5.5902   3.9462   7.3609   7.5961

          k =-0.3000 0.5000-0.3000 (   882 PWs)   bands (ev):

    -4.5377   1.8413   7.1448   7.1967

          k = 0.6000-0.4000 0.6000 (   881 PWs)   bands (ev):

    -3.6205   0.4187   6.7853   7.2436

          k = 0.5000-0.3000 0.5000 (   876 PWs)   bands (ev):

    -3.8570   0.7596   6.6049   7.4867

          k = 0.4000-0.2000 0.4000 (   885 PWs)   bands (ev):

    -4.9064   2.5075   6.6545   7.8606

          k = 0.3000-0.1000 0.3000 (   887 PWs)   bands (ev):

    -5.8928   4.6731   6.9657   8.2608

          k = 0.2000 0.0000 0.2000 (   903 PWs)   bands (ev):

    -6.5776   6.6127   7.6246   8.5221

          k = 0.0000 0.4000 0.0000 (   885 PWs)   bands (ev):

    -6.0704   6.1191   7.1632   7.1632

          k =-0.1000 0.5000-0.1000 (   877 PWs)   bands (ev):

    -5.3961   4.5828   6.6981   6.7423

          k =-0.2000 0.6000-0.2000 (   886 PWs)   bands (ev):

    -4.4326   2.6988   5.9969   6.5479

          k = 0.7000-0.3000 0.7000 (   881 PWs)   bands (ev):

    -3.4275   1.1280   5.3249   6.6156

          k = 0.6000-0.2000 0.6000 (   880 PWs)   bands (ev):

    -3.2210   0.8526   4.8886   6.9273

          k = 0.5000-0.1000 0.5000 (   881 PWs)   bands (ev):

    -4.0992   2.1451   4.8210   7.4173

          k = 0.4000 0.0000 0.4000 (   881 PWs)   bands (ev):

    -5.1169   3.7188   5.4276   7.9409

          k = 0.0000 0.6000 0.0000 (   874 PWs)   bands (ev):

    -4.8513   4.1074   6.2376   6.2376

          k =-0.1000 0.7000-0.1000 (   879 PWs)   bands (ev):

    -4.0105   2.8917   5.4754   5.9702

          k = 0.8000-0.2000 0.8000 (   879 PWs)   bands (ev):

    -3.0554   1.7204   4.3183   5.9876

          k = 0.7000-0.1000 0.7000 (   881 PWs)   bands (ev):

    -2.5864   1.2587   3.4555   6.2837

          k = 0.6000-0.0000 0.6000 (   877 PWs)   bands (ev):

    -3.1587   1.8035   3.4383   6.8046

          k = 0.0000 0.8000 0.0000 (   886 PWs)   bands (ev):

    -3.3241   2.0439   5.6188   5.6188

          k = 0.9000-0.1000 0.9000 (   883 PWs)   bands (ev):

    -2.5658   1.2489   4.8135   5.5558

          k = 0.8000 0.0000 0.8000 (   878 PWs)   bands (ev):

    -2.2357   1.1590   3.5876   5.7912

          k = 0.0000-1.0000 0.0000 (   894 PWs)   bands (ev):

    -2.2842   0.8081   5.4038   5.4038

          k =-0.2000 0.4000 0.0000 (   883 PWs)   bands (ev):

    -5.8269   5.0877   6.5739   7.8171

          k =-0.3000 0.5000-0.1000 (   882 PWs)   bands (ev):

    -4.9418   3.3068   5.8770   7.4142

          k = 0.6000-0.4000 0.8000 (   884 PWs)   bands (ev):

    -3.8845   1.4913   5.6292   6.9711

          k = 0.5000-0.3000 0.7000 (   876 PWs)   bands (ev):

    -3.2616   0.5924   5.5805   6.7790

          k =-0.2000 0.6000 0.0000 (   880 PWs)   bands (ev):

    -4.6342   3.5696   5.6005   6.4812

          k = 0.7000-0.3000 0.9000 (   877 PWs)   bands (ev):

    -3.6511   2.2195   4.8079   6.0224

          k = 0.6000-0.2000 0.8000 (   880 PWs)   bands (ev):

    -2.8442   1.1762   4.2408   5.9436

          k = 0.5000-0.1000 0.7000 (   881 PWs)   bands (ev):

    -3.0697   1.4794   3.9803   6.2879

          k = 0.4000 0.0000 0.6000 (   882 PWs)   bands (ev):

    -4.0207   2.5822   4.4114   6.8752

          k = 0.8000-0.2000 1.0000 (   884 PWs)   bands (ev):

    -3.1686   1.9976   4.9746   5.3290

          k = 0.7000-0.1000 0.9000 (   883 PWs)   bands (ev):

    -2.4208   1.4001   3.8535   5.2311

          k = 0.6000 0.0000 0.8000 (   885 PWs)   bands (ev):

    -2.3938   1.4788   3.1546   5.6233

          k =-0.2000-1.0000 0.0000 (   884 PWs)   bands (ev):

    -2.2204   1.0007   4.8312   4.8403

          k = 0.6000-0.2000 1.0000 (   882 PWs)   bands (ev):

    -2.7790   1.7774   3.8403   5.2066

          k = 0.5000-0.1000 0.9000 (   888 PWs)   bands (ev):

    -2.3216   1.4761   3.5305   4.8332

          k =-0.4000-1.0000 0.0000 (   884 PWs)   bands (ev):

    -2.1099   1.4241   3.9048   4.1358

     highest occupied level (ev):     8.6209

!    total energy              =     -19.29401950 Ry
     estimated scf accuracy    <       0.00001470 Ry

     The total energy is the sum of the following terms:
     one-electron contribution =       4.86337182 Ry
     hartree contribution      =       2.40959362 Ry
     xc contribution           =      -6.02233075 Ry
     ewald contribution        =     -20.54465419 Ry

     convergence has been achieved in  10 iterations
     Writing meta-gga kinetic term

     Writing all to output data dir ./input_pw/SiC/7/pwscf.save/
     Writing meta-gga kinetic term
 
     init_run     :      1.32s CPU      2.78s WALL (       1 calls)
     electrons    :     11.08s CPU     19.13s WALL (       1 calls)

     Called by init_run:
     wfcinit      :      1.21s CPU      2.58s WALL (       1 calls)
     potinit      :      0.01s CPU      0.08s WALL (       1 calls)
     hinit0       :      0.09s CPU      0.10s WALL (       1 calls)

     Called by electrons:
     c_bands      :      8.80s CPU     15.36s WALL (      10 calls)
     sum_band     :      2.08s CPU      3.44s WALL (      10 calls)
     v_of_rho     :      0.13s CPU      0.27s WALL (      11 calls)
     mix_rho      :      0.08s CPU      0.14s WALL (      10 calls)

     Called by c_bands:
     init_us_2    :      0.11s CPU      0.18s WALL (     987 calls)
     init_us_2:cp :      0.11s CPU      0.18s WALL (     987 calls)
     cegterg      :      8.69s CPU     15.16s WALL (     470 calls)

     Called by *egterg:
     cdiaghg      :      0.05s CPU      0.11s WALL (    1129 calls)
     h_psi        :      9.67s CPU     17.29s WALL (    1176 calls)
     g_psi        :      0.01s CPU      0.01s WALL (     659 calls)

     Called by h_psi:
     h_psi:calbec :      0.03s CPU      0.05s WALL (    1176 calls)
     vloc_psi     :      2.38s CPU      4.39s WALL (    1176 calls)
     add_vuspsi   :      0.03s CPU      0.05s WALL (    1176 calls)
     h_psi_meta   :      7.21s CPU     12.75s WALL (    1176 calls)

     General routines
     calbec       :      0.03s CPU      0.04s WALL (    1176 calls)
     fft          :      0.03s CPU      0.05s WALL (     129 calls)
     ffts         :      0.04s CPU      0.08s WALL (     181 calls)
     fftw         :     10.46s CPU     18.41s WALL (   46704 calls)
     interpolate  :      0.00s CPU      0.00s WALL (      11 calls)
 
     Parallel routines
 
     PWSCF        :     12.46s CPU     21.98s WALL

 
   This run was terminated on:  14:31:19   7Jul2023            

=------------------------------------------------------------------------------=
   JOB DONE.
=------------------------------------------------------------------------------=
