
     Program PWSCF v.7.0 starts on 14Mar2023 at 12: 2:31 

     This program is part of the open-source Quantum ESPRESSO suite
     for quantum simulation of materials; please cite
         "P. Giannozzi et al., J. Phys.:Condens. Matter 21 395502 (2009);
         "P. Giannozzi et al., J. Phys.:Condens. Matter 29 465901 (2017);
         "P. Giannozzi et al., J. Chem. Phys. 152 154105 (2020);
          URL http://www.quantum-espresso.org", 
     in publications or presentations arising from this work. More details at
     http://www.quantum-espresso.org/quote

     Parallel version (MPI), running on     1 processors

     MPI processes distributed on     1 nodes
     26773 MiB available memory on the printing compute node when the environment starts
 
     Waiting for input...
     Reading input from standard input
Warning: card &CELL ignored
Warning: card / ignored

     Current dimensions of program PWSCF are:
     Max number of different atomic species (ntypx) = 10
     Max number of k-points (npk) =  40000
     Max angular momentum in pseudopotentials (lmaxx) =  4
     file Si.SCAN.UPF2: wavefunction(s)  0D renormalized

     WARNING: the MGGA functional with ID    5 has been 
     read together with other dft terms, but it should 
     stand alone in order to work properly. The other 
     terms will be ignored.

     WARNING: the MGGA functional with ID    5 has been 
     read together with other dft terms, but it should 
     stand alone in order to work properly. The other 
     terms will be ignored.

     Subspace diagonalization in iterative solution of the eigenvalue problem:
     a serial algorithm will be used

 
     G-vector sticks info
     --------------------
     sticks:   dense  smooth     PW     G-vecs:    dense   smooth      PW
     Sum         517     517    163                 7991     7991    1459
 
     Using Slab Decomposition
 


     bravais-lattice index     =            2
     lattice parameter (alat)  =       8.7950  a.u.
     unit-cell volume          =     170.0778 (a.u.)^3
     number of atoms/cell      =            2
     number of atomic types    =            2
     number of electrons       =         8.00
     number of Kohn-Sham states=            4
     kinetic-energy cutoff     =      50.0000  Ry
     charge density cutoff     =     200.0000  Ry
     scf convergence threshold =      1.0E-06
     mixing beta               =       0.0100
     number of iterations used =            8  local-TF  mixing
     Exchange-correlation= SLA  PW   SCAN SCAN
                           (   0   0   0   0   0 263 267)

     celldm(1)=   8.795000  celldm(2)=   0.000000  celldm(3)=   0.000000
     celldm(4)=   0.000000  celldm(5)=   0.000000  celldm(6)=   0.000000

     crystal axes: (cart. coord. in units of alat)
               a(1) = (  -0.500000   0.000000   0.500000 )  
               a(2) = (   0.000000   0.500000   0.500000 )  
               a(3) = (  -0.500000   0.500000   0.000000 )  

     reciprocal axes: (cart. coord. in units 2 pi/alat)
               b(1) = ( -1.000000 -1.000000  1.000000 )  
               b(2) = (  1.000000  1.000000  1.000000 )  
               b(3) = ( -1.000000  1.000000 -1.000000 )  


     PseudoPot. # 1 for Si read from file:
     ~/Documents/TA/PWDFT.jl/pseudopotentials/scan_upf/Si.SCAN.UPF2
     MD5 check sum: Not computed, couldn't open file
     Pseudo is Norm-conserving, Zval =  4.0
     Generated by new atomic code, or converted to UPF format
     Using radial grid of 1475 points,  2 beta functions with: 
                l(1) =   0
                l(2) =   1

     PseudoPot. # 2 for C  read from file:
     ~/Documents/TA/PWDFT.jl/pseudopotentials/scan_upf/C.SCAN.UPF2
     MD5 check sum: Not computed, couldn't open file
     Pseudo is Norm-conserving, Zval =  4.0
     Generated by new atomic code, or converted to UPF format
     Using radial grid of 1389 points,  1 beta functions with: 
                l(1) =   0

     atomic species   valence    mass     pseudopotential
        Si             4.00    28.08550     Si( 1.00)
        C              4.00    12.01100     C ( 1.00)

     24 Sym. Ops. (no inversion) found



   Cartesian axes

     site n.     atom                  positions (alat units)
         1           Si  tau(   1) = (   0.0000000   0.0000000   0.0000000  )
         2           C   tau(   2) = (   0.2500000   0.2500000   0.2500000  )

     number of k points=    47
                       cart. coord. in units 2pi/alat
        k(    1) = (   0.0000000   0.0000000   0.0000000), wk =   0.0020000
        k(    2) = (  -0.1000000   0.1000000  -0.1000000), wk =   0.0160000
        k(    3) = (  -0.2000000   0.2000000  -0.2000000), wk =   0.0160000
        k(    4) = (  -0.3000000   0.3000000  -0.3000000), wk =   0.0160000
        k(    5) = (  -0.4000000   0.4000000  -0.4000000), wk =   0.0160000
        k(    6) = (   0.5000000  -0.5000000   0.5000000), wk =   0.0080000
        k(    7) = (   0.0000000   0.2000000   0.0000000), wk =   0.0120000
        k(    8) = (  -0.1000000   0.3000000  -0.1000000), wk =   0.0480000
        k(    9) = (  -0.2000000   0.4000000  -0.2000000), wk =   0.0480000
        k(   10) = (  -0.3000000   0.5000000  -0.3000000), wk =   0.0480000
        k(   11) = (   0.6000000  -0.4000000   0.6000000), wk =   0.0480000
        k(   12) = (   0.5000000  -0.3000000   0.5000000), wk =   0.0480000
        k(   13) = (   0.4000000  -0.2000000   0.4000000), wk =   0.0480000
        k(   14) = (   0.3000000  -0.1000000   0.3000000), wk =   0.0480000
        k(   15) = (   0.2000000   0.0000000   0.2000000), wk =   0.0240000
        k(   16) = (   0.0000000   0.4000000   0.0000000), wk =   0.0120000
        k(   17) = (  -0.1000000   0.5000000  -0.1000000), wk =   0.0480000
        k(   18) = (  -0.2000000   0.6000000  -0.2000000), wk =   0.0480000
        k(   19) = (   0.7000000  -0.3000000   0.7000000), wk =   0.0480000
        k(   20) = (   0.6000000  -0.2000000   0.6000000), wk =   0.0480000
        k(   21) = (   0.5000000  -0.1000000   0.5000000), wk =   0.0480000
        k(   22) = (   0.4000000   0.0000000   0.4000000), wk =   0.0240000
        k(   23) = (   0.0000000   0.6000000   0.0000000), wk =   0.0120000
        k(   24) = (  -0.1000000   0.7000000  -0.1000000), wk =   0.0480000
        k(   25) = (   0.8000000  -0.2000000   0.8000000), wk =   0.0480000
        k(   26) = (   0.7000000  -0.1000000   0.7000000), wk =   0.0480000
        k(   27) = (   0.6000000  -0.0000000   0.6000000), wk =   0.0240000
        k(   28) = (   0.0000000   0.8000000   0.0000000), wk =   0.0120000
        k(   29) = (   0.9000000  -0.1000000   0.9000000), wk =   0.0480000
        k(   30) = (   0.8000000   0.0000000   0.8000000), wk =   0.0240000
        k(   31) = (   0.0000000  -1.0000000   0.0000000), wk =   0.0060000
        k(   32) = (  -0.2000000   0.4000000   0.0000000), wk =   0.0480000
        k(   33) = (  -0.3000000   0.5000000  -0.1000000), wk =   0.0960000
        k(   34) = (   0.6000000  -0.4000000   0.8000000), wk =   0.0960000
        k(   35) = (   0.5000000  -0.3000000   0.7000000), wk =   0.0480000
        k(   36) = (  -0.2000000   0.6000000   0.0000000), wk =   0.0480000
        k(   37) = (   0.7000000  -0.3000000   0.9000000), wk =   0.0960000
        k(   38) = (   0.6000000  -0.2000000   0.8000000), wk =   0.0960000
        k(   39) = (   0.5000000  -0.1000000   0.7000000), wk =   0.0960000
        k(   40) = (   0.4000000   0.0000000   0.6000000), wk =   0.0480000
        k(   41) = (   0.8000000  -0.2000000   1.0000000), wk =   0.0480000
        k(   42) = (   0.7000000  -0.1000000   0.9000000), wk =   0.0960000
        k(   43) = (   0.6000000   0.0000000   0.8000000), wk =   0.0480000
        k(   44) = (  -0.2000000  -1.0000000   0.0000000), wk =   0.0240000
        k(   45) = (   0.6000000  -0.2000000   1.0000000), wk =   0.0480000
        k(   46) = (   0.5000000  -0.1000000   0.9000000), wk =   0.0480000
        k(   47) = (  -0.4000000  -1.0000000   0.0000000), wk =   0.0240000

     Dense  grid:     7991 G-vectors     FFT dimensions: (  27,  27,  27)

     Estimated max dynamical RAM per process >      14.80 MB

     WARNING: libxc functional with ID  263 depends
      on external parameters: check the user_guide of
      QE if you need to modify them or to check their
      default values.

     Initial potential from superposition of free atoms

     starting charge       7.9995, renormalised to       8.0000
     Starting wfcs are   13 randomized atomic wfcs

     total cpu time spent up to now is        3.5 secs

     Self-consistent Calculation

     iteration #  1     ecut=    50.00 Ry     beta= 0.01
     Davidson diagonalization with overlap
     ethr =  1.00E-02,  avg # of iterations =  2.0

     total cpu time spent up to now is        6.6 secs

     total energy              =     -19.26792161 Ry
     estimated scf accuracy    <       1.72864328 Ry

     iteration #  2     ecut=    50.00 Ry     beta= 0.01
     Davidson diagonalization with overlap
     ethr =  1.00E-02,  avg # of iterations =  1.0

     total cpu time spent up to now is        9.2 secs

     total energy              =     -19.18891372 Ry
     estimated scf accuracy    <       1.70079842 Ry

     iteration #  3     ecut=    50.00 Ry     beta= 0.01
     Davidson diagonalization with overlap
     ethr =  1.00E-02,  avg # of iterations =  1.0

     total cpu time spent up to now is       11.5 secs

     total energy              =     -19.24686292 Ry
     estimated scf accuracy    <       0.03673536 Ry

     iteration #  4     ecut=    50.00 Ry     beta= 0.01
     Davidson diagonalization with overlap
     ethr =  4.59E-04,  avg # of iterations =  2.0

     total cpu time spent up to now is       14.6 secs

     total energy              =     -19.25334764 Ry
     estimated scf accuracy    <       0.03114320 Ry

     iteration #  5     ecut=    50.00 Ry     beta= 0.01
     Davidson diagonalization with overlap
     ethr =  3.89E-04,  avg # of iterations =  1.0

     total cpu time spent up to now is       16.9 secs

     total energy              =     -19.25531253 Ry
     estimated scf accuracy    <       0.10107305 Ry

     iteration #  6     ecut=    50.00 Ry     beta= 0.01
     Davidson diagonalization with overlap
     ethr =  3.89E-04,  avg # of iterations =  1.0

     total cpu time spent up to now is       19.1 secs

     total energy              =     -19.25896448 Ry
     estimated scf accuracy    <       0.11952252 Ry

     iteration #  7     ecut=    50.00 Ry     beta= 0.01
     Davidson diagonalization with overlap
     ethr =  3.89E-04,  avg # of iterations =  1.0

     total cpu time spent up to now is       21.4 secs

     total energy              =     -19.25964358 Ry
     estimated scf accuracy    <       0.01922222 Ry

     iteration #  8     ecut=    50.00 Ry     beta= 0.01
     Davidson diagonalization with overlap
     ethr =  2.40E-04,  avg # of iterations =  1.0

     total cpu time spent up to now is       23.6 secs

     total energy              =     -19.25980727 Ry
     estimated scf accuracy    <       0.00840058 Ry

     iteration #  9     ecut=    50.00 Ry     beta= 0.01
     Davidson diagonalization with overlap
     ethr =  1.05E-04,  avg # of iterations =  1.0

     total cpu time spent up to now is       26.0 secs

     total energy              =     -19.25978238 Ry
     estimated scf accuracy    <       0.00837759 Ry

     iteration # 10     ecut=    50.00 Ry     beta= 0.01
     Davidson diagonalization with overlap
     ethr =  1.05E-04,  avg # of iterations =  1.0

     total cpu time spent up to now is       28.7 secs

     total energy              =     -19.25944614 Ry
     estimated scf accuracy    <       0.01049610 Ry

     iteration # 11     ecut=    50.00 Ry     beta= 0.01
     Davidson diagonalization with overlap
     ethr =  1.05E-04,  avg # of iterations =  1.0

     total cpu time spent up to now is       31.5 secs

     total energy              =     -19.25844369 Ry
     estimated scf accuracy    <       0.00489064 Ry

     iteration # 12     ecut=    50.00 Ry     beta= 0.01
     Davidson diagonalization with overlap
     ethr =  6.11E-05,  avg # of iterations =  2.0

     total cpu time spent up to now is       35.0 secs

     total energy              =     -19.25915478 Ry
     estimated scf accuracy    <       0.00108799 Ry

     iteration # 13     ecut=    50.00 Ry     beta= 0.01
     Davidson diagonalization with overlap
     ethr =  1.36E-05,  avg # of iterations =  1.0

     total cpu time spent up to now is       37.4 secs

     total energy              =     -19.25918939 Ry
     estimated scf accuracy    <       0.00121316 Ry

     iteration # 14     ecut=    50.00 Ry     beta= 0.01
     Davidson diagonalization with overlap
     ethr =  1.36E-05,  avg # of iterations =  1.0

     total cpu time spent up to now is       39.8 secs

     total energy              =     -19.25917617 Ry
     estimated scf accuracy    <       0.00141181 Ry

     iteration # 15     ecut=    50.00 Ry     beta= 0.01
     Davidson diagonalization with overlap
     ethr =  1.36E-05,  avg # of iterations =  1.0

     total cpu time spent up to now is       42.2 secs

     total energy              =     -19.25913889 Ry
     estimated scf accuracy    <       0.00124996 Ry

     iteration # 16     ecut=    50.00 Ry     beta= 0.01
     Davidson diagonalization with overlap
     ethr =  1.36E-05,  avg # of iterations =  1.0

     total cpu time spent up to now is       44.6 secs

     total energy              =     -19.25914132 Ry
     estimated scf accuracy    <       0.00054620 Ry

     iteration # 17     ecut=    50.00 Ry     beta= 0.01
     Davidson diagonalization with overlap
     ethr =  6.83E-06,  avg # of iterations =  1.0

     total cpu time spent up to now is       46.9 secs

     total energy              =     -19.25915681 Ry
     estimated scf accuracy    <       0.00023561 Ry

     iteration # 18     ecut=    50.00 Ry     beta= 0.01
     Davidson diagonalization with overlap
     ethr =  2.95E-06,  avg # of iterations =  1.0

     total cpu time spent up to now is       49.3 secs

     total energy              =     -19.25916386 Ry
     estimated scf accuracy    <       0.00033667 Ry

     iteration # 19     ecut=    50.00 Ry     beta= 0.01
     Davidson diagonalization with overlap
     ethr =  2.95E-06,  avg # of iterations =  1.0

     total cpu time spent up to now is       51.5 secs

     total energy              =     -19.25909538 Ry
     estimated scf accuracy    <       0.00036372 Ry

     iteration # 20     ecut=    50.00 Ry     beta= 0.01
     Davidson diagonalization with overlap
     ethr =  2.95E-06,  avg # of iterations =  1.0

     total cpu time spent up to now is       53.7 secs

     total energy              =     -19.25908313 Ry
     estimated scf accuracy    <       0.00007501 Ry

     iteration # 21     ecut=    50.00 Ry     beta= 0.01
     Davidson diagonalization with overlap
     ethr =  9.38E-07,  avg # of iterations =  2.0

     total cpu time spent up to now is       56.6 secs

     total energy              =     -19.25909828 Ry
     estimated scf accuracy    <       0.00000143 Ry

     iteration # 22     ecut=    50.00 Ry     beta= 0.01
     Davidson diagonalization with overlap
     ethr =  1.79E-08,  avg # of iterations =  2.0

     total cpu time spent up to now is       59.6 secs

     total energy              =     -19.25909862 Ry
     estimated scf accuracy    <       0.00000154 Ry

     iteration # 23     ecut=    50.00 Ry     beta= 0.01
     Davidson diagonalization with overlap
     ethr =  1.79E-08,  avg # of iterations =  1.1

     total cpu time spent up to now is       61.3 secs

     End of self-consistent calculation

          k = 0.0000 0.0000 0.0000 (   965 PWs)   bands (ev):

    -7.6358   7.0310   7.0310   7.0310

          k =-0.1000 0.1000-0.1000 (   992 PWs)   bands (ev):

    -7.4640   5.9860   6.8954   6.8954

          k =-0.2000 0.2000-0.2000 (  1001 PWs)   bands (ev):

    -6.9591   3.9629   6.5906   6.5906

          k =-0.3000 0.3000-0.3000 (  1011 PWs)   bands (ev):

    -6.1659   1.8558   6.2760   6.2760

          k =-0.4000 0.4000-0.4000 (  1017 PWs)   bands (ev):

    -5.2334   0.0728   6.0575   6.0575

          k = 0.5000-0.5000 0.5000 (  1008 PWs)   bands (ev):

    -4.7029  -0.7483   5.9809   5.9809

          k = 0.0000 0.2000 0.0000 (  1002 PWs)   bands (ev):

    -7.4065   6.1459   6.5893   6.5893

          k =-0.1000 0.3000-0.1000 (   998 PWs)   bands (ev):

    -7.0119   4.5860   6.1882   6.3862

          k =-0.2000 0.4000-0.2000 (  1012 PWs)   bands (ev):

    -6.3107   2.5705   5.8595   6.0103

          k =-0.3000 0.5000-0.3000 (  1009 PWs)   bands (ev):

    -5.4016   0.6941   5.5877   5.6986

          k = 0.6000-0.4000 0.6000 (  1015 PWs)   bands (ev):

    -4.6461  -0.5245   5.2602   5.7313

          k = 0.5000-0.3000 0.5000 (  1016 PWs)   bands (ev):

    -4.8358  -0.2393   5.1085   5.9440

          k = 0.4000-0.2000 0.4000 (  1015 PWs)   bands (ev):

    -5.7174   1.2834   5.1739   6.2855

          k = 0.3000-0.1000 0.3000 (  1007 PWs)   bands (ev):

    -6.5764   3.2288   5.4836   6.6627

          k = 0.2000 0.0000 0.2000 (   997 PWs)   bands (ev):

    -7.1807   5.0237   6.1104   6.9196

          k = 0.0000 0.4000 0.0000 (   998 PWs)   bands (ev):

    -6.7307   4.4311   5.6944   5.6944

          k =-0.1000 0.5000-0.1000 (  1011 PWs)   bands (ev):

    -6.1364   3.0463   5.2181   5.3071

          k =-0.2000 0.6000-0.2000 (  1011 PWs)   bands (ev):

    -5.2990   1.3847   4.5517   5.1240

          k = 0.7000-0.3000 0.7000 (  1015 PWs)   bands (ev):

    -4.4569   0.0376   3.9366   5.1749

          k = 0.6000-0.2000 0.6000 (  1012 PWs)   bands (ev):

    -4.2941  -0.1850   3.5559   5.4493

          k = 0.5000-0.1000 0.5000 (  1015 PWs)   bands (ev):

    -5.0195   0.9096   3.5279   5.8863

          k = 0.4000 0.0000 0.4000 (  1015 PWs)   bands (ev):

    -5.8961   2.2989   4.1092   6.3608

          k = 0.0000 0.6000 0.0000 (  1018 PWs)   bands (ev):

    -5.6555   2.5246   4.8500   4.8500

          k =-0.1000 0.7000-0.1000 (  1022 PWs)   bands (ev):

    -4.9236   1.4306   4.1648   4.6052

          k = 0.8000-0.2000 0.8000 (  1014 PWs)   bands (ev):

    -4.1172   0.4163   3.1425   4.6147

          k = 0.7000-0.1000 0.7000 (  1015 PWs)   bands (ev):

    -3.7468   0.0424   2.3914   4.8758

          k = 0.6000-0.0000 0.6000 (  1011 PWs)   bands (ev):

    -4.2214   0.5116   2.3807   5.3395

          k = 0.0000 0.8000 0.0000 (  1014 PWs)   bands (ev):

    -4.3282   0.6664   4.2879   4.2879

          k = 0.9000-0.1000 0.9000 (  1007 PWs)   bands (ev):

    -3.6941  -0.0255   3.5961   4.2290

          k = 0.8000 0.0000 0.8000 (  1015 PWs)   bands (ev):

    -3.4387  -0.1164   2.5641   4.4355

          k = 0.0000-1.0000 0.0000 (   998 PWs)   bands (ev):

    -3.4626  -0.3857   4.0943   4.0943

          k =-0.2000 0.4000 0.0000 (  1004 PWs)   bands (ev):

    -6.5170   3.5519   5.1505   6.2443

          k =-0.3000 0.5000-0.1000 (  1018 PWs)   bands (ev):

    -5.7429   1.9479   4.4814   5.8774

          k = 0.6000-0.4000 0.8000 (  1018 PWs)   bands (ev):

    -4.8416   0.3633   4.2155   5.4900

          k = 0.5000-0.3000 0.7000 (  1018 PWs)   bands (ev):

    -4.3371  -0.3909   4.1521   5.3262

          k =-0.2000 0.6000 0.0000 (  1019 PWs)   bands (ev):

    -5.4692   2.0805   4.2700   5.0566

          k = 0.7000-0.3000 0.9000 (  1022 PWs)   bands (ev):

    -4.6252   0.8918   3.5295   4.6664

          k = 0.6000-0.2000 0.8000 (  1023 PWs)   bands (ev):

    -3.9635   0.0269   3.0055   4.5979

          k = 0.5000-0.1000 0.7000 (  1020 PWs)   bands (ev):

    -4.1488   0.2786   2.7974   4.8934

          k = 0.4000 0.0000 0.6000 (  1017 PWs)   bands (ev):

    -4.9463   1.2259   3.2087   5.4062

          k = 0.8000-0.2000 1.0000 (  1018 PWs)   bands (ev):

    -4.2024   0.6186   3.7171   4.0649

          k = 0.7000-0.1000 0.9000 (  1015 PWs)   bands (ev):

    -3.5887   0.0881   2.7782   3.9685

          k = 0.6000 0.0000 0.8000 (  1014 PWs)   bands (ev):

    -3.5808   0.1500   2.1961   4.3103

          k =-0.2000-1.0000 0.0000 (  1016 PWs)   bands (ev):

    -3.4160  -0.2387   3.6093   3.6225

          k = 0.6000-0.2000 1.0000 (  1031 PWs)   bands (ev):

    -3.8906   0.4252   2.7389   3.9670

          k = 0.5000-0.1000 0.9000 (  1022 PWs)   bands (ev):

    -3.5184   0.1510   2.4888   3.6478

          k =-0.4000-1.0000 0.0000 (  1028 PWs)   bands (ev):

    -3.3366   0.0624   2.8599   3.0305

     highest occupied level (ev):     7.0310

!    total energy              =     -19.25909866 Ry
     estimated scf accuracy    <       0.00000046 Ry

     The total energy is the sum of the following terms:
     one-electron contribution =       3.65863333 Ry
     hartree contribution      =       2.51016859 Ry
     xc contribution           =      -5.82840795 Ry
     ewald contribution        =     -19.59949264 Ry

     convergence has been achieved in  23 iterations
     Writing meta-gga kinetic term

     Writing all to output data dir ./input_pw/SiC/7/pwscf.save/
     Writing meta-gga kinetic term
 
     init_run     :      1.34s CPU      3.39s WALL (       1 calls)
     electrons    :     24.36s CPU     57.78s WALL (       1 calls)

     Called by init_run:
     wfcinit      :      1.22s CPU      3.09s WALL (       1 calls)
     potinit      :      0.02s CPU      0.03s WALL (       1 calls)
     hinit0       :      0.09s CPU      0.23s WALL (       1 calls)

     Called by electrons:
     c_bands      :     19.12s CPU     45.30s WALL (      23 calls)
     sum_band     :      4.71s CPU     11.27s WALL (      23 calls)
     v_of_rho     :      0.29s CPU      0.66s WALL (      24 calls)
     mix_rho      :      0.24s CPU      0.55s WALL (      23 calls)

     Called by c_bands:
     init_us_2    :      0.29s CPU      0.60s WALL (    2209 calls)
     init_us_2:cp :      0.28s CPU      0.60s WALL (    2209 calls)
     cegterg      :     18.85s CPU     44.77s WALL (    1081 calls)

     Called by *egterg:
     cdiaghg      :      0.13s CPU      0.30s WALL (    2404 calls)
     h_psi        :     19.56s CPU     46.66s WALL (    2451 calls)
     g_psi        :      0.02s CPU      0.03s WALL (    1323 calls)

     Called by h_psi:
     h_psi:calbec :      0.07s CPU      0.11s WALL (    2451 calls)
     vloc_psi     :      4.80s CPU     11.03s WALL (    2451 calls)
     add_vuspsi   :      0.07s CPU      0.18s WALL (    2451 calls)
     h_psi_meta   :     14.57s CPU     35.22s WALL (    2451 calls)

     General routines
     calbec       :      0.07s CPU      0.11s WALL (    2451 calls)
     fft          :      0.06s CPU      0.16s WALL (     285 calls)
     ffts         :      0.10s CPU      0.25s WALL (     454 calls)
     fftw         :     21.28s CPU     50.93s WALL (   97760 calls)
     interpolate  :      0.00s CPU      0.00s WALL (      24 calls)
 
     Parallel routines
 
     PWSCF        :     25.74s CPU   1m 1.32s WALL

 
   This run was terminated on:  12: 3:32  14Mar2023            

=------------------------------------------------------------------------------=
   JOB DONE.
=------------------------------------------------------------------------------=
