
     Program PWSCF v.7.0 starts on  7Jul2023 at 14:25:49 

     This program is part of the open-source Quantum ESPRESSO suite
     for quantum simulation of materials; please cite
         "P. Giannozzi et al., J. Phys.:Condens. Matter 21 395502 (2009);
         "P. Giannozzi et al., J. Phys.:Condens. Matter 29 465901 (2017);
         "P. Giannozzi et al., J. Chem. Phys. 152 154105 (2020);
          URL http://www.quantum-espresso.org", 
     in publications or presentations arising from this work. More details at
     http://www.quantum-espresso.org/quote

     Parallel version (MPI), running on     1 processors

     MPI processes distributed on     1 nodes
     27275 MiB available memory on the printing compute node when the environment starts
 
     Waiting for input...
     Reading input from standard input
Warning: card &CELL ignored
Warning: card / ignored

     Current dimensions of program PWSCF are:
     Max number of different atomic species (ntypx) = 10
     Max number of k-points (npk) =  40000
     Max angular momentum in pseudopotentials (lmaxx) =  4
     file Ge.SCAN.UPF2: wavefunction(s)  0D renormalized

     WARNING: the MGGA functional with ID    5 has been 
     read together with other dft terms, but it should 
     stand alone in order to work properly. The other 
     terms will be ignored.

     Subspace diagonalization in iterative solution of the eigenvalue problem:
     a serial algorithm will be used

 
     G-vector sticks info
     --------------------
     sticks:   dense  smooth     PW     G-vecs:    dense   smooth      PW
     Sum         931     931    283                18907    18907    3143
 
     Using Slab Decomposition
 


     bravais-lattice index     =            2
     lattice parameter (alat)  =      11.6739  a.u.
     unit-cell volume          =     397.7339 (a.u.)^3
     number of atoms/cell      =            2
     number of atomic types    =            1
     number of electrons       =         8.00
     number of Kohn-Sham states=            4
     kinetic-energy cutoff     =      50.0000  Ry
     charge density cutoff     =     200.0000  Ry
     scf convergence threshold =      2.0E-05
     mixing beta               =       0.2000
     number of iterations used =            8  local-TF  mixing
     Exchange-correlation= SLA  PW  SCAN SCAN
                           (   0   0   0   0   0 263 267)

     celldm(1)=  11.673942  celldm(2)=   0.000000  celldm(3)=   0.000000
     celldm(4)=   0.000000  celldm(5)=   0.000000  celldm(6)=   0.000000

     crystal axes: (cart. coord. in units of alat)
               a(1) = (  -0.500000   0.000000   0.500000 )  
               a(2) = (   0.000000   0.500000   0.500000 )  
               a(3) = (  -0.500000   0.500000   0.000000 )  

     reciprocal axes: (cart. coord. in units 2 pi/alat)
               b(1) = ( -1.000000 -1.000000  1.000000 )  
               b(2) = (  1.000000  1.000000  1.000000 )  
               b(3) = ( -1.000000  1.000000 -1.000000 )  


     PseudoPot. # 1 for Ge read from file:
     ~/Documents/TA/PWDFT.jl/pseudopotentials/scan_upf/Ge.SCAN.UPF2
     MD5 check sum: Not computed, couldn't open file
     Pseudo is Norm-conserving, Zval =  4.0
     Generated by new atomic code, or converted to UPF format
     Using radial grid of 1557 points,  2 beta functions with: 
                l(1) =   0
                l(2) =   1

     atomic species   valence    mass     pseudopotential
        Ge             4.00    72.64000     Ge( 1.00)

     48 Sym. Ops., with inversion, found (24 have fractional translation)



   Cartesian axes

     site n.     atom                  positions (alat units)
         1           Ge  tau(   1) = (   0.0000000   0.0000000   0.0000000  )
         2           Ge  tau(   2) = (   0.2500000   0.2500000   0.2500000  )

     number of k points=    47
                       cart. coord. in units 2pi/alat
        k(    1) = (   0.0000000   0.0000000   0.0000000), wk =   0.0020000
        k(    2) = (  -0.1000000   0.1000000  -0.1000000), wk =   0.0160000
        k(    3) = (  -0.2000000   0.2000000  -0.2000000), wk =   0.0160000
        k(    4) = (  -0.3000000   0.3000000  -0.3000000), wk =   0.0160000
        k(    5) = (  -0.4000000   0.4000000  -0.4000000), wk =   0.0160000
        k(    6) = (   0.5000000  -0.5000000   0.5000000), wk =   0.0080000
        k(    7) = (   0.0000000   0.2000000   0.0000000), wk =   0.0120000
        k(    8) = (  -0.1000000   0.3000000  -0.1000000), wk =   0.0480000
        k(    9) = (  -0.2000000   0.4000000  -0.2000000), wk =   0.0480000
        k(   10) = (  -0.3000000   0.5000000  -0.3000000), wk =   0.0480000
        k(   11) = (   0.6000000  -0.4000000   0.6000000), wk =   0.0480000
        k(   12) = (   0.5000000  -0.3000000   0.5000000), wk =   0.0480000
        k(   13) = (   0.4000000  -0.2000000   0.4000000), wk =   0.0480000
        k(   14) = (   0.3000000  -0.1000000   0.3000000), wk =   0.0480000
        k(   15) = (   0.2000000   0.0000000   0.2000000), wk =   0.0240000
        k(   16) = (   0.0000000   0.4000000   0.0000000), wk =   0.0120000
        k(   17) = (  -0.1000000   0.5000000  -0.1000000), wk =   0.0480000
        k(   18) = (  -0.2000000   0.6000000  -0.2000000), wk =   0.0480000
        k(   19) = (   0.7000000  -0.3000000   0.7000000), wk =   0.0480000
        k(   20) = (   0.6000000  -0.2000000   0.6000000), wk =   0.0480000
        k(   21) = (   0.5000000  -0.1000000   0.5000000), wk =   0.0480000
        k(   22) = (   0.4000000   0.0000000   0.4000000), wk =   0.0240000
        k(   23) = (   0.0000000   0.6000000   0.0000000), wk =   0.0120000
        k(   24) = (  -0.1000000   0.7000000  -0.1000000), wk =   0.0480000
        k(   25) = (   0.8000000  -0.2000000   0.8000000), wk =   0.0480000
        k(   26) = (   0.7000000  -0.1000000   0.7000000), wk =   0.0480000
        k(   27) = (   0.6000000  -0.0000000   0.6000000), wk =   0.0240000
        k(   28) = (   0.0000000   0.8000000   0.0000000), wk =   0.0120000
        k(   29) = (   0.9000000  -0.1000000   0.9000000), wk =   0.0480000
        k(   30) = (   0.8000000   0.0000000   0.8000000), wk =   0.0240000
        k(   31) = (   0.0000000  -1.0000000   0.0000000), wk =   0.0060000
        k(   32) = (  -0.2000000   0.4000000   0.0000000), wk =   0.0480000
        k(   33) = (  -0.3000000   0.5000000  -0.1000000), wk =   0.0960000
        k(   34) = (   0.6000000  -0.4000000   0.8000000), wk =   0.0960000
        k(   35) = (   0.5000000  -0.3000000   0.7000000), wk =   0.0480000
        k(   36) = (  -0.2000000   0.6000000   0.0000000), wk =   0.0480000
        k(   37) = (   0.7000000  -0.3000000   0.9000000), wk =   0.0960000
        k(   38) = (   0.6000000  -0.2000000   0.8000000), wk =   0.0960000
        k(   39) = (   0.5000000  -0.1000000   0.7000000), wk =   0.0960000
        k(   40) = (   0.4000000   0.0000000   0.6000000), wk =   0.0480000
        k(   41) = (   0.8000000  -0.2000000   1.0000000), wk =   0.0480000
        k(   42) = (   0.7000000  -0.1000000   0.9000000), wk =   0.0960000
        k(   43) = (   0.6000000   0.0000000   0.8000000), wk =   0.0480000
        k(   44) = (  -0.2000000  -1.0000000   0.0000000), wk =   0.0240000
        k(   45) = (   0.6000000  -0.2000000   1.0000000), wk =   0.0480000
        k(   46) = (   0.5000000  -0.1000000   0.9000000), wk =   0.0480000
        k(   47) = (  -0.4000000  -1.0000000   0.0000000), wk =   0.0240000

     Dense  grid:    18907 G-vectors     FFT dimensions: (  40,  40,  40)

     Estimated max dynamical RAM per process >      36.09 MB

     WARNING: libxc functional with ID  263 depends
      on external parameters: check the user_guide of
      QE if you need to modify them or to check their
      default values.

     Initial potential from superposition of free atoms

     starting charge       7.9987, renormalised to       8.0000
     Starting wfcs are   18 randomized atomic wfcs

     total cpu time spent up to now is       12.3 secs

     Self-consistent Calculation

     iteration #  1     ecut=    50.00 Ry     beta= 0.20
     Davidson diagonalization with overlap
     ethr =  1.00E-02,  avg # of iterations =  1.7

     Threshold (ethr) on eigenvalues was too large:
     Diagonalizing with lowered threshold

     Davidson diagonalization with overlap
     ethr =  2.61E-04,  avg # of iterations =  6.0

     total cpu time spent up to now is       37.2 secs

     total energy              =     -15.74692747 Ry
     estimated scf accuracy    <       0.02694808 Ry

     iteration #  2     ecut=    50.00 Ry     beta= 0.20
     Davidson diagonalization with overlap
     ethr =  3.37E-04,  avg # of iterations =  1.6

     total cpu time spent up to now is       45.1 secs

     total energy              =     -15.78601262 Ry
     estimated scf accuracy    <       0.02068685 Ry

     iteration #  3     ecut=    50.00 Ry     beta= 0.20
     Davidson diagonalization with overlap
     ethr =  2.59E-04,  avg # of iterations =  1.2

     total cpu time spent up to now is       51.1 secs

     total energy              =     -15.78742828 Ry
     estimated scf accuracy    <       0.00140894 Ry

     iteration #  4     ecut=    50.00 Ry     beta= 0.20
     Davidson diagonalization with overlap
     ethr =  1.76E-05,  avg # of iterations =  8.2

     total cpu time spent up to now is       69.8 secs

     total energy              =     -15.78930464 Ry
     estimated scf accuracy    <       0.00157310 Ry

     iteration #  5     ecut=    50.00 Ry     beta= 0.20
     Davidson diagonalization with overlap
     ethr =  1.76E-05,  avg # of iterations =  1.8

     total cpu time spent up to now is       75.7 secs

     total energy              =     -15.78935251 Ry
     estimated scf accuracy    <       0.00038606 Ry

     iteration #  6     ecut=    50.00 Ry     beta= 0.20
     Davidson diagonalization with overlap
     ethr =  4.83E-06,  avg # of iterations =  6.1

     total cpu time spent up to now is       87.8 secs

     total energy              =     -15.78958172 Ry
     estimated scf accuracy    <       0.00011312 Ry

     iteration #  7     ecut=    50.00 Ry     beta= 0.20
     Davidson diagonalization with overlap
     ethr =  1.41E-06,  avg # of iterations =  6.0

     total cpu time spent up to now is      100.8 secs

     total energy              =     -15.78967226 Ry
     estimated scf accuracy    <       0.00002115 Ry

     iteration #  8     ecut=    50.00 Ry     beta= 0.20
     Davidson diagonalization with overlap
     ethr =  2.64E-07,  avg # of iterations =  7.3

     total cpu time spent up to now is      113.1 secs

     End of self-consistent calculation

          k = 0.0000 0.0000 0.0000 (  2421 PWs)   bands (ev):

    -8.1816   1.3208   3.1654   3.1654

          k =-0.1000 0.1000-0.1000 (  2376 PWs)   bands (ev):

    -8.0847   0.5210   3.0051   3.0051

          k =-0.2000 0.2000-0.2000 (  2379 PWs)   bands (ev):

    -7.8017  -0.8432   2.6768   2.6769

          k =-0.3000 0.3000-0.3000 (  2373 PWs)   bands (ev):

    -7.3641  -2.1681   2.3705   2.3705

          k =-0.4000 0.4000-0.4000 (  2397 PWs)   bands (ev):

    -6.8711  -3.2232   2.1684   2.1684

          k = 0.5000-0.5000 0.5000 (  2362 PWs)   bands (ev):

    -6.6116  -3.6741   2.0988   2.0988

          k = 0.0000 0.2000 0.0000 (  2373 PWs)   bands (ev):

    -8.0519   0.3777   2.7336   2.7336

          k =-0.1000 0.3000-0.1000 (  2376 PWs)   bands (ev):

    -7.8291  -0.6349   2.3473   2.3743

          k =-0.2000 0.4000-0.2000 (  2375 PWs)   bands (ev):

    -7.4371  -1.8710   1.8922   2.0856

          k =-0.3000 0.5000-0.3000 (  2387 PWs)   bands (ev):

    -6.9418  -2.9840   1.5109   1.9312

          k = 0.6000-0.4000 0.6000 (  2370 PWs)   bands (ev):

    -6.5541  -3.6657   1.2772   1.9296

          k = 0.5000-0.3000 0.5000 (  2383 PWs)   bands (ev):

    -6.6492  -3.5098   1.2187   2.0763

          k = 0.4000-0.2000 0.4000 (  2389 PWs)   bands (ev):

    -7.1131  -2.6381   1.3528   2.3481

          k = 0.3000-0.1000 0.3000 (  2376 PWs)   bands (ev):

    -7.5863  -1.4652   1.7002   2.6907

          k = 0.2000 0.0000 0.2000 (  2359 PWs)   bands (ev):

    -7.9250  -0.2829   2.2900   2.9785

          k = 0.0000 0.4000 0.0000 (  2377 PWs)   bands (ev):

    -7.6663  -1.0785   1.9965   1.9965

          k =-0.1000 0.5000-0.1000 (  2364 PWs)   bands (ev):

    -7.3254  -1.9695   1.5205   1.6981

          k =-0.2000 0.6000-0.2000 (  2374 PWs)   bands (ev):

    -6.8489  -2.9505   0.9557   1.5449

          k = 0.7000-0.3000 0.7000 (  2364 PWs)   bands (ev):

    -6.3780  -3.7226   0.5288   1.5581

          k = 0.6000-0.2000 0.6000 (  2372 PWs)   bands (ev):

    -6.2962  -3.8412   0.3299   1.7331

          k = 0.5000-0.1000 0.5000 (  2376 PWs)   bands (ev):

    -6.7060  -3.2093   0.4133   2.0411

          k = 0.4000 0.0000 0.4000 (  2383 PWs)   bands (ev):

    -7.2015  -2.3091   0.8507   2.4109

          k = 0.0000 0.6000 0.0000 (  2393 PWs)   bands (ev):

    -7.0347  -2.5243   1.3760   1.3760

          k =-0.1000 0.7000-0.1000 (  2381 PWs)   bands (ev):

    -6.5895  -3.2869   0.9190   1.1970

          k = 0.8000-0.2000 0.8000 (  2370 PWs)   bands (ev):

    -6.0765  -4.0083   0.3338   1.1887

          k = 0.7000-0.1000 0.7000 (  2372 PWs)   bands (ev):

    -5.8404  -4.2958  -0.0455   1.3513

          k = 0.6000-0.0000 0.6000 (  2361 PWs)   bands (ev):

    -6.2037  -3.8519  -0.0538   1.6586

          k = 0.0000 0.8000 0.0000 (  2369 PWs)   bands (ev):

    -6.1748  -3.8832   0.9817   0.9817

          k = 0.9000-0.1000 0.9000 (  2377 PWs)   bands (ev):

    -5.6489  -4.5248   0.6086   0.9359

          k = 0.8000 0.0000 0.8000 (  2380 PWs)   bands (ev):

    -5.3822  -4.7961   0.1182   1.0658

          k = 0.0000-1.0000 0.0000 (  2346 PWs)   bands (ev):

    -5.1129  -5.1129   0.8474   0.8474

          k =-0.2000 0.4000 0.0000 (  2377 PWs)   bands (ev):

    -7.5484  -1.4758   1.5559   2.2861

          k =-0.3000 0.5000-0.1000 (  2378 PWs)   bands (ev):

    -7.1120  -2.4955   0.9938   2.0106

          k = 0.6000-0.4000 0.8000 (  2379 PWs)   bands (ev):

    -6.6125  -3.4125   0.6845   1.7654

          k = 0.5000-0.3000 0.7000 (  2380 PWs)   bands (ev):

    -6.3419  -3.8325   0.5873   1.6728

          k =-0.2000 0.6000 0.0000 (  2377 PWs)   bands (ev):

    -6.9347  -2.7321   0.9713   1.4851

          k = 0.7000-0.3000 0.9000 (  2380 PWs)   bands (ev):

    -6.4324  -3.5396   0.4743   1.2654

          k = 0.6000-0.2000 0.8000 (  2372 PWs)   bands (ev):

    -6.0243  -4.0960   0.1475   1.2261

          k = 0.5000-0.1000 0.7000 (  2371 PWs)   bands (ev):

    -6.1562  -3.9242   0.0759   1.3941

          k = 0.4000 0.0000 0.6000 (  2378 PWs)   bands (ev):

    -6.6462  -3.2378   0.3397   1.7072

          k = 0.8000-0.2000 1.0000 (  2374 PWs)   bands (ev):

    -6.1066  -3.9569   0.6486   0.9085

          k = 0.7000-0.1000 0.9000 (  2371 PWs)   bands (ev):

    -5.6073  -4.5396   0.2064   0.8403

          k = 0.6000 0.0000 0.8000 (  2361 PWs)   bands (ev):

    -5.6616  -4.4719  -0.0675   1.0379

          k =-0.2000-1.0000 0.0000 (  2376 PWs)   bands (ev):

    -5.0988  -5.0988   0.6243   0.6243

          k = 0.6000-0.2000 1.0000 (  2378 PWs)   bands (ev):

    -5.9198  -4.1686   0.1500   0.8846

          k = 0.5000-0.1000 0.9000 (  2360 PWs)   bands (ev):

    -5.5800  -4.5506   0.0537   0.7114

          k =-0.4000-1.0000 0.0000 (  2366 PWs)   bands (ev):

    -5.0753  -5.0753   0.3314   0.3314

     highest occupied level (ev):     3.1654

!    total energy              =     -15.78969917 Ry
     estimated scf accuracy    <       0.00000116 Ry

     The total energy is the sum of the following terms:
     one-electron contribution =       1.94442877 Ry
     hartree contribution      =       1.46371732 Ry
     xc contribution           =      -4.43183565 Ry
     ewald contribution        =     -14.76600960 Ry

     convergence has been achieved in   8 iterations
     Writing meta-gga kinetic term

     Writing all to output data dir ./input_pw/Ge/8/pwscf.save/
     Writing meta-gga kinetic term
 
     init_run     :      5.96s CPU     12.29s WALL (       1 calls)
     electrons    :     60.71s CPU    100.82s WALL (       1 calls)

     Called by init_run:
     wfcinit      :      5.82s CPU     11.98s WALL (       1 calls)
     potinit      :      0.05s CPU      0.18s WALL (       1 calls)
     hinit0       :      0.07s CPU      0.10s WALL (       1 calls)

     Called by electrons:
     c_bands      :     52.81s CPU     88.71s WALL (       9 calls)
     sum_band     :      7.22s CPU     10.94s WALL (       9 calls)
     v_of_rho     :      0.41s CPU      0.77s WALL (       9 calls)
     mix_rho      :      0.29s CPU      0.52s WALL (       9 calls)

     Called by c_bands:
     init_us_2    :      0.30s CPU      0.52s WALL (     893 calls)
     init_us_2:cp :      0.29s CPU      0.51s WALL (     893 calls)
     cegterg      :     52.45s CPU     88.12s WALL (     423 calls)

     Called by *egterg:
     cdiaghg      :      0.21s CPU      0.35s WALL (    2248 calls)
     h_psi        :     56.90s CPU     97.74s WALL (    2342 calls)
     g_psi        :      0.05s CPU      0.07s WALL (    1872 calls)

     Called by h_psi:
     h_psi:calbec :      0.29s CPU      0.55s WALL (    2342 calls)
     vloc_psi     :     14.18s CPU     24.77s WALL (    2342 calls)
     add_vuspsi   :      0.20s CPU      0.29s WALL (    2342 calls)
     h_psi_meta   :     42.14s CPU     71.98s WALL (    2342 calls)

     General routines
     calbec       :      0.28s CPU      0.54s WALL (    2342 calls)
     fft          :      0.08s CPU      0.20s WALL (     107 calls)
     ffts         :      0.11s CPU      0.20s WALL (     139 calls)
     fftw         :     50.92s CPU     87.21s WALL (   68912 calls)
     interpolate  :      0.00s CPU      0.00s WALL (       9 calls)
 
     Parallel routines
 
     PWSCF        :   1m 6.72s CPU   1m53.18s WALL

 
   This run was terminated on:  14:27:42   7Jul2023            

=------------------------------------------------------------------------------=
   JOB DONE.
=------------------------------------------------------------------------------=
