
     Program PWSCF v.7.0 starts on 21Mar2023 at 11:18: 3 

     This program is part of the open-source Quantum ESPRESSO suite
     for quantum simulation of materials; please cite
         "P. Giannozzi et al., J. Phys.:Condens. Matter 21 395502 (2009);
         "P. Giannozzi et al., J. Phys.:Condens. Matter 29 465901 (2017);
         "P. Giannozzi et al., J. Chem. Phys. 152 154105 (2020);
          URL http://www.quantum-espresso.org", 
     in publications or presentations arising from this work. More details at
     http://www.quantum-espresso.org/quote

     Parallel version (MPI), running on     1 processors

     MPI processes distributed on     1 nodes
     24484 MiB available memory on the printing compute node when the environment starts
 
     Waiting for input...
     Reading input from standard input
Warning: card &CELL ignored
Warning: card / ignored

     Current dimensions of program PWSCF are:
     Max number of different atomic species (ntypx) = 10
     Max number of k-points (npk) =  40000
     Max angular momentum in pseudopotentials (lmaxx) =  4
     file Al.SCAN.UPF2: wavefunction(s)  0D renormalized

     WARNING: the MGGA functional with ID    5 has been 
     read together with other dft terms, but it should 
     stand alone in order to work properly. The other 
     terms will be ignored.

     Subspace diagonalization in iterative solution of the eigenvalue problem:
     a serial algorithm will be used

 
     G-vector sticks info
     --------------------
     sticks:   dense  smooth     PW     G-vecs:    dense   smooth      PW
     Sum         637     637    199                10489    10489    1837
 
     Using Slab Decomposition
 


     bravais-lattice index     =            2
     lattice parameter (alat)  =       8.7467  a.u.
     unit-cell volume          =     167.2929 (a.u.)^3
     number of atoms/cell      =            1
     number of atomic types    =            1
     number of electrons       =         3.00
     number of Kohn-Sham states=            6
     kinetic-energy cutoff     =      60.0000  Ry
     charge density cutoff     =     240.0000  Ry
     scf convergence threshold =      1.0E-06
     mixing beta               =       0.0100
     number of iterations used =            8  local-TF  mixing
     Exchange-correlation= SLA  PW   SCAN SCAN
                           (   0   0   0   0   0 263 267)

     celldm(1)=   8.746732  celldm(2)=   0.000000  celldm(3)=   0.000000
     celldm(4)=   0.000000  celldm(5)=   0.000000  celldm(6)=   0.000000

     crystal axes: (cart. coord. in units of alat)
               a(1) = (  -0.500000   0.000000   0.500000 )  
               a(2) = (   0.000000   0.500000   0.500000 )  
               a(3) = (  -0.500000   0.500000   0.000000 )  

     reciprocal axes: (cart. coord. in units 2 pi/alat)
               b(1) = ( -1.000000 -1.000000  1.000000 )  
               b(2) = (  1.000000  1.000000  1.000000 )  
               b(3) = ( -1.000000  1.000000 -1.000000 )  


     PseudoPot. # 1 for Al read from file:
     ~/Documents/TA/PWDFT.jl/pseudopotentials/scan_upf/Al.SCAN.UPF2
     MD5 check sum: Not computed, couldn't open file
     Pseudo is Norm-conserving, Zval =  3.0
     Generated by new atomic code, or converted to UPF format
     Using radial grid of 1467 points,  2 beta functions with: 
                l(1) =   0
                l(2) =   1

     atomic species   valence    mass     pseudopotential
        Al             3.00    26.98154     Al( 1.00)

     48 Sym. Ops., with inversion, found



   Cartesian axes

     site n.     atom                  positions (alat units)
         1           Al  tau(   1) = (   0.0000000   0.0000000   0.0000000  )

     number of k points=    47  Gaussian smearing, width (Ry)=  0.1000
                       cart. coord. in units 2pi/alat
        k(    1) = (   0.0000000   0.0000000   0.0000000), wk =   0.0020000
        k(    2) = (  -0.1000000   0.1000000  -0.1000000), wk =   0.0160000
        k(    3) = (  -0.2000000   0.2000000  -0.2000000), wk =   0.0160000
        k(    4) = (  -0.3000000   0.3000000  -0.3000000), wk =   0.0160000
        k(    5) = (  -0.4000000   0.4000000  -0.4000000), wk =   0.0160000
        k(    6) = (   0.5000000  -0.5000000   0.5000000), wk =   0.0080000
        k(    7) = (   0.0000000   0.2000000   0.0000000), wk =   0.0120000
        k(    8) = (  -0.1000000   0.3000000  -0.1000000), wk =   0.0480000
        k(    9) = (  -0.2000000   0.4000000  -0.2000000), wk =   0.0480000
        k(   10) = (  -0.3000000   0.5000000  -0.3000000), wk =   0.0480000
        k(   11) = (   0.6000000  -0.4000000   0.6000000), wk =   0.0480000
        k(   12) = (   0.5000000  -0.3000000   0.5000000), wk =   0.0480000
        k(   13) = (   0.4000000  -0.2000000   0.4000000), wk =   0.0480000
        k(   14) = (   0.3000000  -0.1000000   0.3000000), wk =   0.0480000
        k(   15) = (   0.2000000   0.0000000   0.2000000), wk =   0.0240000
        k(   16) = (   0.0000000   0.4000000   0.0000000), wk =   0.0120000
        k(   17) = (  -0.1000000   0.5000000  -0.1000000), wk =   0.0480000
        k(   18) = (  -0.2000000   0.6000000  -0.2000000), wk =   0.0480000
        k(   19) = (   0.7000000  -0.3000000   0.7000000), wk =   0.0480000
        k(   20) = (   0.6000000  -0.2000000   0.6000000), wk =   0.0480000
        k(   21) = (   0.5000000  -0.1000000   0.5000000), wk =   0.0480000
        k(   22) = (   0.4000000   0.0000000   0.4000000), wk =   0.0240000
        k(   23) = (   0.0000000   0.6000000   0.0000000), wk =   0.0120000
        k(   24) = (  -0.1000000   0.7000000  -0.1000000), wk =   0.0480000
        k(   25) = (   0.8000000  -0.2000000   0.8000000), wk =   0.0480000
        k(   26) = (   0.7000000  -0.1000000   0.7000000), wk =   0.0480000
        k(   27) = (   0.6000000  -0.0000000   0.6000000), wk =   0.0240000
        k(   28) = (   0.0000000   0.8000000   0.0000000), wk =   0.0120000
        k(   29) = (   0.9000000  -0.1000000   0.9000000), wk =   0.0480000
        k(   30) = (   0.8000000   0.0000000   0.8000000), wk =   0.0240000
        k(   31) = (   0.0000000  -1.0000000   0.0000000), wk =   0.0060000
        k(   32) = (  -0.2000000   0.4000000   0.0000000), wk =   0.0480000
        k(   33) = (  -0.3000000   0.5000000  -0.1000000), wk =   0.0960000
        k(   34) = (   0.6000000  -0.4000000   0.8000000), wk =   0.0960000
        k(   35) = (   0.5000000  -0.3000000   0.7000000), wk =   0.0480000
        k(   36) = (  -0.2000000   0.6000000   0.0000000), wk =   0.0480000
        k(   37) = (   0.7000000  -0.3000000   0.9000000), wk =   0.0960000
        k(   38) = (   0.6000000  -0.2000000   0.8000000), wk =   0.0960000
        k(   39) = (   0.5000000  -0.1000000   0.7000000), wk =   0.0960000
        k(   40) = (   0.4000000   0.0000000   0.6000000), wk =   0.0480000
        k(   41) = (   0.8000000  -0.2000000   1.0000000), wk =   0.0480000
        k(   42) = (   0.7000000  -0.1000000   0.9000000), wk =   0.0960000
        k(   43) = (   0.6000000   0.0000000   0.8000000), wk =   0.0480000
        k(   44) = (  -0.2000000  -1.0000000   0.0000000), wk =   0.0240000
        k(   45) = (   0.6000000  -0.2000000   1.0000000), wk =   0.0480000
        k(   46) = (   0.5000000  -0.1000000   0.9000000), wk =   0.0480000
        k(   47) = (  -0.4000000  -1.0000000   0.0000000), wk =   0.0240000

     Dense  grid:    10489 G-vectors     FFT dimensions: (  32,  32,  32)

     Estimated max dynamical RAM per process >      21.59 MB

     WARNING: libxc functional with ID  263 depends
      on external parameters: check the user_guide of
      QE if you need to modify them or to check their
      default values.

     Initial potential from superposition of free atoms

     starting charge       2.9979, renormalised to       3.0000
     Starting wfcs are    9 randomized atomic wfcs

     total cpu time spent up to now is        3.0 secs

     Self-consistent Calculation

     iteration #  1     ecut=    60.00 Ry     beta= 0.01
     Davidson diagonalization with overlap
     ethr =  1.00E-02,  avg # of iterations =  3.1

     Threshold (ethr) on eigenvalues was too large:
     Diagonalizing with lowered threshold

     Davidson diagonalization with overlap
     ethr =  1.80E-04,  avg # of iterations =  2.2

     total cpu time spent up to now is       14.5 secs

     total energy              =      -4.11782844 Ry
     estimated scf accuracy    <       0.00536161 Ry

     iteration #  2     ecut=    60.00 Ry     beta= 0.01
     Davidson diagonalization with overlap
     ethr =  1.79E-04,  avg # of iterations =  1.0

     total cpu time spent up to now is       18.5 secs

     total energy              =      -4.12137254 Ry
     estimated scf accuracy    <       0.00527254 Ry

     iteration #  3     ecut=    60.00 Ry     beta= 0.01
     Davidson diagonalization with overlap
     ethr =  1.76E-04,  avg # of iterations =  2.0

     total cpu time spent up to now is       23.9 secs

     total energy              =      -4.12333211 Ry
     estimated scf accuracy    <       0.00050713 Ry

     iteration #  4     ecut=    60.00 Ry     beta= 0.01
     Davidson diagonalization with overlap
     ethr =  1.69E-05,  avg # of iterations =  2.7

     total cpu time spent up to now is       29.7 secs

     total energy              =      -4.12344428 Ry
     estimated scf accuracy    <       0.00016847 Ry

     iteration #  5     ecut=    60.00 Ry     beta= 0.01
     Davidson diagonalization with overlap
     ethr =  5.62E-06,  avg # of iterations =  1.3

     total cpu time spent up to now is       34.0 secs

     total energy              =      -4.12285844 Ry
     estimated scf accuracy    <       0.00023530 Ry

     iteration #  6     ecut=    60.00 Ry     beta= 0.01
     Davidson diagonalization with overlap
     ethr =  5.62E-06,  avg # of iterations =  2.2

     total cpu time spent up to now is       38.7 secs

     total energy              =      -4.12330007 Ry
     estimated scf accuracy    <       0.00001038 Ry

     iteration #  7     ecut=    60.00 Ry     beta= 0.01
     Davidson diagonalization with overlap
     ethr =  3.46E-07,  avg # of iterations =  2.0

     total cpu time spent up to now is       41.1 secs

     total energy              =      -4.12337794 Ry
     estimated scf accuracy    <       0.00001100 Ry

     iteration #  8     ecut=    60.00 Ry     beta= 0.01
     Davidson diagonalization with overlap
     ethr =  3.46E-07,  avg # of iterations =  2.5

     total cpu time spent up to now is       43.9 secs

     total energy              =      -4.12328439 Ry
     estimated scf accuracy    <       0.00004830 Ry

     iteration #  9     ecut=    60.00 Ry     beta= 0.01
     Davidson diagonalization with overlap
     ethr =  3.46E-07,  avg # of iterations =  2.5

     total cpu time spent up to now is       46.7 secs

     total energy              =      -4.12330234 Ry
     estimated scf accuracy    <       0.00000322 Ry

     iteration # 10     ecut=    60.00 Ry     beta= 0.01
     Davidson diagonalization with overlap
     ethr =  1.07E-07,  avg # of iterations =  2.7

     total cpu time spent up to now is       48.9 secs

     total energy              =      -4.12351104 Ry
     estimated scf accuracy    <       0.00001427 Ry

     iteration # 11     ecut=    60.00 Ry     beta= 0.01
     Davidson diagonalization with overlap
     ethr =  1.07E-07,  avg # of iterations =  2.6

     total cpu time spent up to now is       51.0 secs

     total energy              =      -4.12331307 Ry
     estimated scf accuracy    <       0.00006194 Ry

     iteration # 12     ecut=    60.00 Ry     beta= 0.01
     Davidson diagonalization with overlap
     ethr =  1.07E-07,  avg # of iterations =  2.6

     total cpu time spent up to now is       53.2 secs

     total energy              =      -4.12333790 Ry
     estimated scf accuracy    <       0.00000718 Ry

     iteration # 13     ecut=    60.00 Ry     beta= 0.01
     Davidson diagonalization with overlap
     ethr =  1.07E-07,  avg # of iterations =  2.4

     total cpu time spent up to now is       55.0 secs

     End of self-consistent calculation

          k = 0.0000 0.0000 0.0000 (  1363 PWs)   bands (ev):

    -4.7844  14.2691  14.2691  14.2691  15.6177  15.6177

          k =-0.1000 0.1000-0.1000 (  1309 PWs)   bands (ev):

    -4.5656  11.8731  13.6796  13.6797  16.0464  16.4569

          k =-0.2000 0.2000-0.2000 (  1324 PWs)   bands (ev):

    -3.9111   8.6653  13.0081  13.0081  15.8442  17.0228

          k =-0.3000 0.3000-0.3000 (  1326 PWs)   bands (ev):

    -2.8272   5.6546  12.6222  12.6222  15.6576  15.9758

          k =-0.4000 0.4000-0.4000 (  1302 PWs)   bands (ev):

    -1.3299   2.9790  12.5006  12.5006  15.0203  15.0203

          k = 0.5000-0.5000 0.5000 (  1308 PWs)   bands (ev):

     0.2593   0.9943  12.5014  12.5014  14.6477  14.6477

          k = 0.0000 0.2000 0.0000 (  1323 PWs)   bands (ev):

    -4.4927  12.6087  12.6087  13.5295  14.1628  17.6398

          k =-0.1000 0.3000-0.1000 (  1324 PWs)   bands (ev):

    -3.9835   9.8745  11.8012  12.9477  14.6446  16.4882

          k =-0.2000 0.4000-0.2000 (  1328 PWs)   bands (ev):

    -3.0426   6.7994  11.3469  12.2581  14.1384  16.9864

          k =-0.3000 0.5000-0.3000 (  1311 PWs)   bands (ev):

    -1.6813   4.0108  11.2589  11.5292  13.5471  16.8660

          k = 0.6000-0.4000 0.6000 (  1319 PWs)   bands (ev):

     0.0412   1.6321  10.8039  11.5277  13.6495  15.9999

          k = 0.5000-0.3000 0.5000 (  1316 PWs)   bands (ev):

    -0.5582   2.3631  10.3086  12.1174  14.2908  15.5473

          k = 0.4000-0.2000 0.4000 (  1315 PWs)   bands (ev):

    -2.1807   4.9022  10.1508  12.9331  15.3561  15.6028

          k = 0.3000-0.1000 0.3000 (  1328 PWs)   bands (ev):

    -3.4038   7.8001  10.3639  13.7836  16.2199  16.6719

          k = 0.2000 0.0000 0.2000 (  1315 PWs)   bands (ev):

    -4.2015  10.8780  11.0094  14.3392  16.1755  16.5303

          k = 0.0000 0.4000 0.0000 (  1319 PWs)   bands (ev):

    -3.6204  10.8661  10.8661  11.7377  12.2972  14.3072

          k =-0.1000 0.5000-0.1000 (  1319 PWs)   bands (ev):

    -2.8250   8.2846  10.2906  10.6329  12.3749  14.2224

          k =-0.2000 0.6000-0.2000 (  1308 PWs)   bands (ev):

    -1.6056   5.4345   9.3597  10.0923  12.0951  16.2817

          k = 0.7000-0.3000 0.7000 (  1316 PWs)   bands (ev):

     0.0126   2.9126   8.3047  10.2729  12.2423  18.4480

          k = 0.6000-0.2000 0.6000 (  1313 PWs)   bands (ev):

     0.6091   2.1865   7.5965  10.8244  12.8335  17.7272

          k = 0.5000-0.1000 0.5000 (  1315 PWs)   bands (ev):

    -1.1097   4.5533   7.2767  11.7225  13.8363  17.4595

          k = 0.4000 0.0000 0.4000 (  1326 PWs)   bands (ev):

    -2.4664   7.1706   7.5015  12.8821  15.2003  17.4863

          k = 0.0000 0.6000 0.0000 (  1311 PWs)   bands (ev):

    -2.1761   8.7387   9.5891   9.5891  10.8929  12.1548

          k =-0.1000 0.7000-0.1000 (  1305 PWs)   bands (ev):

    -1.1023   6.9268   7.5416   9.2660  11.0697  13.1000

          k = 0.8000-0.2000 0.8000 (  1308 PWs)   bands (ev):

     0.3813   4.5671   6.0450   9.3266  11.1779  15.5971

          k = 0.7000-0.1000 0.7000 (  1314 PWs)   bands (ev):

     1.9695   2.6234   5.1401   9.7686  11.6658  18.4073

          k = 0.6000-0.0000 0.6000 (  1310 PWs)   bands (ev):

     0.3701   4.4428   4.8312  10.5809  12.5615  19.5987

          k = 0.0000 0.8000 0.0000 (  1306 PWs)   bands (ev):

    -0.1757   5.3820   8.8158   8.8158  10.0381  11.2010

          k = 0.9000-0.1000 0.9000 (  1312 PWs)   bands (ev):

     1.1624   3.9446   6.7571   8.7503  10.4805  12.5619

          k = 0.8000 0.0000 0.8000 (  1302 PWs)   bands (ev):

     2.7933   2.9333   4.5032   9.0698  10.8865  15.3576

          k = 0.0000-1.0000 0.0000 (  1298 PWs)   bands (ev):

     2.2421   2.4796   8.5572   8.5572   9.7518  10.9046

          k =-0.2000 0.4000 0.0000 (  1327 PWs)   bands (ev):

    -3.3311   9.0422   9.2655  12.6935  14.6201  15.4269

          k =-0.3000 0.5000-0.1000 (  1316 PWs)   bands (ev):

    -2.2507   6.1837   8.8188  11.4261  14.5593  16.5554

          k = 0.6000-0.4000 0.8000 (  1311 PWs)   bands (ev):

    -0.7579   3.5284   8.8370  10.3103  14.5097  16.0161

          k = 0.5000-0.3000 0.7000 (  1312 PWs)   bands (ev):

     0.8334   1.5455   9.0252   9.7459  14.6266  15.5404

          k =-0.2000 0.6000 0.0000 (  1307 PWs)   bands (ev):

    -1.8902   7.6994   7.8644   9.3534  13.3019  13.9228

          k = 0.7000-0.3000 0.9000 (  1313 PWs)   bands (ev):

    -0.5376   5.0786   7.4697   8.2163  13.5068  15.9761

          k = 0.6000-0.2000 0.8000 (  1314 PWs)   bands (ev):

     1.1774   2.7302   6.7534   8.2527  13.8260  17.5277

          k = 0.5000-0.1000 0.7000 (  1309 PWs)   bands (ev):

     0.5758   3.4603   6.1898   8.9377  14.5006  17.1434

          k = 0.4000 0.0000 0.6000 (  1313 PWs)   bands (ev):

    -1.0363   5.8105   6.1590  10.0320  15.4162  16.7241

          k = 0.8000-0.2000 1.0000 (  1317 PWs)   bands (ev):

     0.1047   5.5868   6.8873   7.3954  12.4939  13.1292

          k = 0.7000-0.1000 0.9000 (  1307 PWs)   bands (ev):

     1.7058   4.2177   4.8850   7.3509  12.9809  15.5348

          k = 0.6000 0.0000 0.8000 (  1302 PWs)   bands (ev):

     2.2611   3.6188   4.0618   7.9384  13.5783  18.3527

          k =-0.2000-1.0000 0.0000 (  1308 PWs)   bands (ev):

     2.5178   2.7387   6.6158   7.0636  12.2227  12.8679

          k = 0.6000-0.2000 1.0000 (  1306 PWs)   bands (ev):

     0.9375   4.9900   5.2347   6.7536  15.9536  15.9552

          k = 0.5000-0.1000 0.9000 (  1314 PWs)   bands (ev):

     2.5318   3.1538   5.3233   6.1194  16.0436  17.0219

          k =-0.4000-1.0000 0.0000 (  1302 PWs)   bands (ev):

     3.3438   3.4171   4.7159   5.3959  15.6949  15.8930

     the Fermi energy is     4.2495 ev

!    total energy              =      -4.12333199 Ry
     estimated scf accuracy    <       0.00000040 Ry
     smearing contrib. (-TS)   =      -0.03450833 Ry
     internal energy E=F+TS    =      -4.08882366 Ry

     The total energy is F=E-TS. E is the sum of the following terms:
     one-electron contribution =       2.03134111 Ry
     hartree contribution      =       0.01609795 Ry
     xc contribution           =      -1.41864281 Ry
     ewald contribution        =      -4.71761991 Ry

     convergence has been achieved in  13 iterations
     Writing meta-gga kinetic term

     Writing all to output data dir ./input_pw/Al/13/pwscf.save/
     Writing meta-gga kinetic term
 
     init_run     :      0.97s CPU      2.91s WALL (       1 calls)
     electrons    :     27.13s CPU     51.99s WALL (       1 calls)

     Called by init_run:
     wfcinit      :      0.87s CPU      2.52s WALL (       1 calls)
     potinit      :      0.03s CPU      0.11s WALL (       1 calls)
     hinit0       :      0.07s CPU      0.22s WALL (       1 calls)

     Called by electrons:
     c_bands      :     22.46s CPU     42.79s WALL (      14 calls)
     sum_band     :      4.31s CPU      8.46s WALL (      14 calls)
     v_of_rho     :      0.27s CPU      0.56s WALL (      14 calls)
     mix_rho      :      0.11s CPU      0.24s WALL (      14 calls)

     Called by c_bands:
     init_us_2    :      0.19s CPU      0.38s WALL (    1363 calls)
     init_us_2:cp :      0.19s CPU      0.38s WALL (    1363 calls)
     cegterg      :     22.27s CPU     42.47s WALL (     658 calls)

     Called by *egterg:
     cdiaghg      :      0.15s CPU      0.29s WALL (    2106 calls)
     h_psi        :     22.43s CPU     43.66s WALL (    2200 calls)
     g_psi        :      0.03s CPU      0.03s WALL (    1495 calls)

     Called by h_psi:
     h_psi:calbec :      0.07s CPU      0.09s WALL (    2200 calls)
     vloc_psi     :      5.49s CPU     10.37s WALL (    2200 calls)
     add_vuspsi   :      0.07s CPU      0.20s WALL (    2200 calls)
     h_psi_meta   :     16.75s CPU     32.92s WALL (    2200 calls)

     General routines
     calbec       :      0.07s CPU      0.08s WALL (    2200 calls)
     fft          :      0.03s CPU      0.11s WALL (     167 calls)
     ffts         :      0.04s CPU      0.06s WALL (     184 calls)
     fftw         :     22.33s CPU     43.63s WALL (  107592 calls)
     interpolate  :      0.00s CPU      0.02s WALL (      14 calls)
 
     Parallel routines
 
     PWSCF        :     28.14s CPU     55.00s WALL

 
   This run was terminated on:  11:18:58  21Mar2023            

=------------------------------------------------------------------------------=
   JOB DONE.
=------------------------------------------------------------------------------=
