
     Program PWSCF v.7.0 starts on  4Apr2023 at  8:56:52 

     This program is part of the open-source Quantum ESPRESSO suite
     for quantum simulation of materials; please cite
         "P. Giannozzi et al., J. Phys.:Condens. Matter 21 395502 (2009);
         "P. Giannozzi et al., J. Phys.:Condens. Matter 29 465901 (2017);
         "P. Giannozzi et al., J. Chem. Phys. 152 154105 (2020);
          URL http://www.quantum-espresso.org", 
     in publications or presentations arising from this work. More details at
     http://www.quantum-espresso.org/quote

     Parallel version (MPI), running on     1 processors

     MPI processes distributed on     1 nodes
     18957 MiB available memory on the printing compute node when the environment starts
 
     Waiting for input...
     Reading input from standard input
Warning: card &CELL ignored
Warning: card / ignored

     Current dimensions of program PWSCF are:
     Max number of different atomic species (ntypx) = 10
     Max number of k-points (npk) =  40000
     Max angular momentum in pseudopotentials (lmaxx) =  4
     file Al.SCAN.UPF2: wavefunction(s)  0D renormalized

     WARNING: the MGGA functional with ID    5 has been 
     read together with other dft terms, but it should 
     stand alone in order to work properly. The other 
     terms will be ignored.

     Subspace diagonalization in iterative solution of the eigenvalue problem:
     a serial algorithm will be used

 
     G-vector sticks info
     --------------------
     sticks:   dense  smooth     PW     G-vecs:    dense   smooth      PW
     Sum        1393    1393    421                34429    34429    5577
 
     Using Slab Decomposition
 


     bravais-lattice index     =            2
     lattice parameter (alat)  =      13.0013  a.u.
     unit-cell volume          =     549.4168 (a.u.)^3
     number of atoms/cell      =            1
     number of atomic types    =            1
     number of electrons       =         3.00
     number of Kohn-Sham states=            6
     kinetic-energy cutoff     =      60.0000  Ry
     charge density cutoff     =     240.0000  Ry
     scf convergence threshold =      1.0E-06
     mixing beta               =       0.0100
     number of iterations used =            8  local-TF  mixing
     Exchange-correlation= SLA  PW   SCAN SCAN
                           (   0   0   0   0   0 263 267)

     celldm(1)=  13.001316  celldm(2)=   0.000000  celldm(3)=   0.000000
     celldm(4)=   0.000000  celldm(5)=   0.000000  celldm(6)=   0.000000

     crystal axes: (cart. coord. in units of alat)
               a(1) = (  -0.500000   0.000000   0.500000 )  
               a(2) = (   0.000000   0.500000   0.500000 )  
               a(3) = (  -0.500000   0.500000   0.000000 )  

     reciprocal axes: (cart. coord. in units 2 pi/alat)
               b(1) = ( -1.000000 -1.000000  1.000000 )  
               b(2) = (  1.000000  1.000000  1.000000 )  
               b(3) = ( -1.000000  1.000000 -1.000000 )  


     PseudoPot. # 1 for Al read from file:
     ~/Documents/TA/PWDFT.jl/pseudopotentials/scan_upf/Al.SCAN.UPF2
     MD5 check sum: Not computed, couldn't open file
     Pseudo is Norm-conserving, Zval =  3.0
     Generated by new atomic code, or converted to UPF format
     Using radial grid of 1467 points,  2 beta functions with: 
                l(1) =   0
                l(2) =   1

     atomic species   valence    mass     pseudopotential
        Al             3.00    26.98154     Al( 1.00)

     48 Sym. Ops., with inversion, found



   Cartesian axes

     site n.     atom                  positions (alat units)
         1           Al  tau(   1) = (   0.0000000   0.0000000   0.0000000  )

     number of k points=    47  Gaussian smearing, width (Ry)=  0.1000
                       cart. coord. in units 2pi/alat
        k(    1) = (   0.0000000   0.0000000   0.0000000), wk =   0.0020000
        k(    2) = (  -0.1000000   0.1000000  -0.1000000), wk =   0.0160000
        k(    3) = (  -0.2000000   0.2000000  -0.2000000), wk =   0.0160000
        k(    4) = (  -0.3000000   0.3000000  -0.3000000), wk =   0.0160000
        k(    5) = (  -0.4000000   0.4000000  -0.4000000), wk =   0.0160000
        k(    6) = (   0.5000000  -0.5000000   0.5000000), wk =   0.0080000
        k(    7) = (   0.0000000   0.2000000   0.0000000), wk =   0.0120000
        k(    8) = (  -0.1000000   0.3000000  -0.1000000), wk =   0.0480000
        k(    9) = (  -0.2000000   0.4000000  -0.2000000), wk =   0.0480000
        k(   10) = (  -0.3000000   0.5000000  -0.3000000), wk =   0.0480000
        k(   11) = (   0.6000000  -0.4000000   0.6000000), wk =   0.0480000
        k(   12) = (   0.5000000  -0.3000000   0.5000000), wk =   0.0480000
        k(   13) = (   0.4000000  -0.2000000   0.4000000), wk =   0.0480000
        k(   14) = (   0.3000000  -0.1000000   0.3000000), wk =   0.0480000
        k(   15) = (   0.2000000   0.0000000   0.2000000), wk =   0.0240000
        k(   16) = (   0.0000000   0.4000000   0.0000000), wk =   0.0120000
        k(   17) = (  -0.1000000   0.5000000  -0.1000000), wk =   0.0480000
        k(   18) = (  -0.2000000   0.6000000  -0.2000000), wk =   0.0480000
        k(   19) = (   0.7000000  -0.3000000   0.7000000), wk =   0.0480000
        k(   20) = (   0.6000000  -0.2000000   0.6000000), wk =   0.0480000
        k(   21) = (   0.5000000  -0.1000000   0.5000000), wk =   0.0480000
        k(   22) = (   0.4000000   0.0000000   0.4000000), wk =   0.0240000
        k(   23) = (   0.0000000   0.6000000   0.0000000), wk =   0.0120000
        k(   24) = (  -0.1000000   0.7000000  -0.1000000), wk =   0.0480000
        k(   25) = (   0.8000000  -0.2000000   0.8000000), wk =   0.0480000
        k(   26) = (   0.7000000  -0.1000000   0.7000000), wk =   0.0480000
        k(   27) = (   0.6000000  -0.0000000   0.6000000), wk =   0.0240000
        k(   28) = (   0.0000000   0.8000000   0.0000000), wk =   0.0120000
        k(   29) = (   0.9000000  -0.1000000   0.9000000), wk =   0.0480000
        k(   30) = (   0.8000000   0.0000000   0.8000000), wk =   0.0240000
        k(   31) = (   0.0000000  -1.0000000   0.0000000), wk =   0.0060000
        k(   32) = (  -0.2000000   0.4000000   0.0000000), wk =   0.0480000
        k(   33) = (  -0.3000000   0.5000000  -0.1000000), wk =   0.0960000
        k(   34) = (   0.6000000  -0.4000000   0.8000000), wk =   0.0960000
        k(   35) = (   0.5000000  -0.3000000   0.7000000), wk =   0.0480000
        k(   36) = (  -0.2000000   0.6000000   0.0000000), wk =   0.0480000
        k(   37) = (   0.7000000  -0.3000000   0.9000000), wk =   0.0960000
        k(   38) = (   0.6000000  -0.2000000   0.8000000), wk =   0.0960000
        k(   39) = (   0.5000000  -0.1000000   0.7000000), wk =   0.0960000
        k(   40) = (   0.4000000   0.0000000   0.6000000), wk =   0.0480000
        k(   41) = (   0.8000000  -0.2000000   1.0000000), wk =   0.0480000
        k(   42) = (   0.7000000  -0.1000000   0.9000000), wk =   0.0960000
        k(   43) = (   0.6000000   0.0000000   0.8000000), wk =   0.0480000
        k(   44) = (  -0.2000000  -1.0000000   0.0000000), wk =   0.0240000
        k(   45) = (   0.6000000  -0.2000000   1.0000000), wk =   0.0480000
        k(   46) = (   0.5000000  -0.1000000   0.9000000), wk =   0.0480000
        k(   47) = (  -0.4000000  -1.0000000   0.0000000), wk =   0.0240000

     Dense  grid:    34429 G-vectors     FFT dimensions: (  45,  45,  45)

     Estimated max dynamical RAM per process >      68.75 MB

     WARNING: libxc functional with ID  263 depends
      on external parameters: check the user_guide of
      QE if you need to modify them or to check their
      default values.

     Initial potential from superposition of free atoms

     starting charge       2.9979, renormalised to       3.0000
     Starting wfcs are    9 randomized atomic wfcs

     total cpu time spent up to now is       11.8 secs

     Self-consistent Calculation

     iteration #  1     ecut=    60.00 Ry     beta= 0.01
     Davidson diagonalization with overlap
     ethr =  1.00E-02,  avg # of iterations =  2.5

     Threshold (ethr) on eigenvalues was too large:
     Diagonalizing with lowered threshold

     Davidson diagonalization with overlap
     ethr =  1.14E-04,  avg # of iterations =  3.0

     total cpu time spent up to now is       57.4 secs

     total energy              =      -3.98028970 Ry
     estimated scf accuracy    <       0.00339221 Ry

     iteration #  2     ecut=    60.00 Ry     beta= 0.01
     Davidson diagonalization with overlap
     ethr =  1.13E-04,  avg # of iterations =  1.0

     total cpu time spent up to now is       76.6 secs

     total energy              =      -3.98923098 Ry
     estimated scf accuracy    <       0.00333033 Ry

     iteration #  3     ecut=    60.00 Ry     beta= 0.01
     Davidson diagonalization with overlap
     ethr =  1.11E-04,  avg # of iterations =  2.0

     total cpu time spent up to now is       97.8 secs

     total energy              =      -3.99040002 Ry
     estimated scf accuracy    <       0.00006424 Ry

     iteration #  4     ecut=    60.00 Ry     beta= 0.01
     Davidson diagonalization with overlap
     ethr =  2.14E-06,  avg # of iterations =  4.0

     total cpu time spent up to now is      115.0 secs

     total energy              =      -3.99030418 Ry
     estimated scf accuracy    <       0.00004353 Ry

     iteration #  5     ecut=    60.00 Ry     beta= 0.01
     Davidson diagonalization with overlap
     ethr =  1.45E-06,  avg # of iterations =  2.0

     total cpu time spent up to now is      128.4 secs

     total energy              =      -3.99033802 Ry
     estimated scf accuracy    <       0.00005765 Ry

     iteration #  6     ecut=    60.00 Ry     beta= 0.01
     Davidson diagonalization with overlap
     ethr =  1.45E-06,  avg # of iterations =  1.0

     total cpu time spent up to now is      134.7 secs

     total energy              =      -3.99032823 Ry
     estimated scf accuracy    <       0.00003808 Ry

     iteration #  7     ecut=    60.00 Ry     beta= 0.01
     Davidson diagonalization with overlap
     ethr =  1.27E-06,  avg # of iterations =  2.0

     total cpu time spent up to now is      140.9 secs

     End of self-consistent calculation

          k = 0.0000 0.0000 0.0000 (  4285 PWs)   bands (ev):

    -6.0951   1.8343   1.8343   1.8343   4.3331   6.1535

          k =-0.1000 0.1000-0.1000 (  4336 PWs)   bands (ev):

    -6.0283   1.3397   1.7873   1.7873   4.6747   5.9585

          k =-0.2000 0.2000-0.2000 (  4330 PWs)   bands (ev):

    -5.8375   0.3915   1.6755   1.6755   4.7795   6.2874

          k =-0.3000 0.3000-0.3000 (  4308 PWs)   bands (ev):

    -5.5592  -0.5441   1.5552   1.5552   4.5106   6.1628

          k =-0.4000 0.4000-0.4000 (  4311 PWs)   bands (ev):

    -5.2798  -1.2484   1.4692   1.4692   4.3090   5.8938

          k = 0.5000-0.5000 0.5000 (  4338 PWs)   bands (ev):

    -5.1527  -1.5213   1.4385   1.4385   4.2400   5.7931

          k = 0.0000 0.2000 0.0000 (  4328 PWs)   bands (ev):

    -6.0059   1.3804   1.6672   1.6672   4.8360   5.6360

          k =-0.1000 0.3000-0.1000 (  4313 PWs)   bands (ev):

    -5.8562   0.6619   1.5074   1.5777   5.0793   5.5488

          k =-0.2000 0.4000-0.2000 (  4311 PWs)   bands (ev):

    -5.6051  -0.2365   1.3757   1.4218   4.8271   5.8728

          k =-0.3000 0.5000-0.3000 (  4317 PWs)   bands (ev):

    -5.3187  -1.0013   1.2376   1.3125   4.6355   5.5237

          k = 0.6000-0.4000 0.6000 (  4333 PWs)   bands (ev):

    -5.1282  -1.4207   1.0920   1.3310   4.5727   5.3760

          k = 0.5000-0.3000 0.5000 (  4316 PWs)   bands (ev):

    -5.1714  -1.3297   1.0242   1.4238   4.6344   5.4509

          k = 0.4000-0.2000 0.4000 (  4299 PWs)   bands (ev):

    -5.4127  -0.7711   1.0557   1.5658   4.8058   5.7442

          k = 0.3000-0.1000 0.3000 (  4321 PWs)   bands (ev):

    -5.6982   0.0501   1.1988   1.7128   5.0664   6.0590

          k = 0.2000 0.0000 0.2000 (  4345 PWs)   bands (ev):

    -5.9199   0.8666   1.4731   1.8042   5.0652   5.6926

          k = 0.0000 0.4000 0.0000 (  4320 PWs)   bands (ev):

    -5.7511   0.5472   1.3002   1.3002   4.8699   5.0629

          k =-0.1000 0.5000-0.1000 (  4311 PWs)   bands (ev):

    -5.5403  -0.0488   1.0812   1.1357   4.6119   4.9164

          k =-0.2000 0.6000-0.2000 (  4315 PWs)   bands (ev):

    -5.2748  -0.7040   0.7622   1.0592   4.3723   5.3378

          k = 0.7000-0.3000 0.7000 (  4320 PWs)   bands (ev):

    -5.0580  -1.1556   0.4626   1.0864   4.3291   5.6674

          k = 0.6000-0.2000 0.6000 (  4328 PWs)   bands (ev):

    -5.0249  -1.2104   0.2790   1.2103   4.5039   5.7345

          k = 0.5000-0.1000 0.5000 (  4309 PWs)   bands (ev):

    -5.2005  -0.8560   0.2775   1.4007   4.8857   5.7950

          k = 0.4000 0.0000 0.4000 (  4315 PWs)   bands (ev):

    -5.4646  -0.3475   0.5757   1.5977   5.4111   5.8354

          k = 0.0000 0.6000 0.0000 (  4308 PWs)   bands (ev):

    -5.3770  -0.2743   0.9348   0.9348   4.1054   4.2686

          k =-0.1000 0.7000-0.1000 (  4307 PWs)   bands (ev):

    -5.1556  -0.6713   0.6142   0.8274   3.8303   4.3596

          k = 0.8000-0.2000 0.8000 (  4309 PWs)   bands (ev):

    -4.9571  -0.9388   0.0953   0.8346   3.7924   5.0574

          k = 0.7000-0.1000 0.7000 (  4309 PWs)   bands (ev):

    -4.8878  -0.9311  -0.3408   0.9548   3.9639   5.9540

          k = 0.6000-0.0000 0.6000 (  4309 PWs)   bands (ev):

    -4.9919  -0.8158  -0.3491   1.1630   4.3429   6.5558

          k = 0.0000 0.8000 0.0000 (  4308 PWs)   bands (ev):

    -4.9961  -0.9263   0.6843   0.6843   3.3760   3.8978

          k = 0.9000-0.1000 0.9000 (  4303 PWs)   bands (ev):

    -4.8609  -1.0803   0.3459   0.6587   3.3700   4.1133

          k = 0.8000 0.0000 0.8000 (  4300 PWs)   bands (ev):

    -4.8189  -0.9765  -0.2162   0.7547   3.5853   4.9585

          k = 0.0000-1.0000 0.0000 (  4264 PWs)   bands (ev):

    -4.8198  -1.1942   0.5965   0.5965   3.1235   3.7730

          k =-0.2000 0.4000 0.0000 (  4314 PWs)   bands (ev):

    -5.6753   0.1772   1.0597   1.5316   5.2397   5.3717

          k =-0.3000 0.5000-0.1000 (  4308 PWs)   bands (ev):

    -5.4143  -0.4903   0.7406   1.3854   5.0519   5.4989

          k = 0.6000-0.4000 0.8000 (  4311 PWs)   bands (ev):

    -5.1569  -1.0756   0.5992   1.2235   4.9367   5.2127

          k = 0.5000-0.3000 0.7000 (  4318 PWs)   bands (ev):

    -5.0419  -1.3109   0.5623   1.1547   4.9601   5.0329

          k =-0.2000 0.6000 0.0000 (  4309 PWs)   bands (ev):

    -5.3213  -0.4351   0.6594   1.0237   4.4754   4.7348

          k = 0.7000-0.3000 0.9000 (  4307 PWs)   bands (ev):

    -5.0832  -0.8239   0.2818   0.8534   4.3830   5.2480

          k = 0.6000-0.2000 0.8000 (  4313 PWs)   bands (ev):

    -4.9362  -1.0394  -0.0024   0.8247   4.4398   5.7062

          k = 0.5000-0.1000 0.7000 (  4315 PWs)   bands (ev):

    -4.9764  -0.9542  -0.1081   0.9577   4.6648   5.7573

          k = 0.4000 0.0000 0.6000 (  4321 PWs)   bands (ev):

    -5.1740  -0.7082   0.1279   1.1850   5.0090   5.7878

          k = 0.8000-0.2000 1.0000 (  4308 PWs)   bands (ev):

    -4.9698  -0.8970   0.3892   0.5819   3.8128   4.4045

          k = 0.7000-0.1000 0.9000 (  4295 PWs)   bands (ev):

    -4.8451  -0.9226  -0.1204   0.5341   3.9978   5.0775

          k = 0.6000 0.0000 0.8000 (  4304 PWs)   bands (ev):

    -4.8495  -0.6591  -0.6203   0.6904   4.2653   5.9650

          k =-0.2000-1.0000 0.0000 (  4302 PWs)   bands (ev):

    -4.8114  -1.0850   0.2951   0.4112   3.5921   4.2915

          k = 0.6000-0.2000 1.0000 (  4302 PWs)   bands (ev):

    -4.9081  -0.8147  -0.1674   0.5334   4.6646   5.5784

          k = 0.5000-0.1000 0.9000 (  4310 PWs)   bands (ev):

    -4.8351  -0.7458  -0.3941   0.3896   4.7322   5.9332

          k =-0.4000-1.0000 0.0000 (  4298 PWs)   bands (ev):

    -4.7976  -0.7654  -0.2692   0.1739   4.5333   5.4947

     the Fermi energy is    -1.0313 ev

!    total energy              =      -3.99036983 Ry
     estimated scf accuracy    <       0.00000070 Ry
     smearing contrib. (-TS)   =      -0.07527822 Ry
     internal energy E=F+TS    =      -3.91509160 Ry

     The total energy is F=E-TS. E is the sum of the following terms:
     one-electron contribution =       0.11890964 Ry
     hartree contribution      =       0.32302383 Ry
     xc contribution           =      -1.18321102 Ry
     ewald contribution        =      -3.17381406 Ry

     convergence has been achieved in   7 iterations
     Writing meta-gga kinetic term

     Writing all to output data dir ./input_pw/Al/13/pwscf.save/
     Writing meta-gga kinetic term
 
     init_run     :      5.65s CPU     11.77s WALL (       1 calls)
     electrons    :     88.58s CPU    129.12s WALL (       1 calls)

     Called by init_run:
     wfcinit      :      5.47s CPU     11.27s WALL (       1 calls)
     potinit      :      0.07s CPU      0.22s WALL (       1 calls)
     hinit0       :      0.07s CPU      0.15s WALL (       1 calls)

     Called by electrons:
     c_bands      :     73.13s CPU    106.86s WALL (       8 calls)
     sum_band     :     14.58s CPU     20.98s WALL (       8 calls)
     v_of_rho     :      0.49s CPU      0.82s WALL (       8 calls)
     mix_rho      :      0.42s CPU      0.63s WALL (       8 calls)

     Called by c_bands:
     init_us_2    :      0.36s CPU      0.53s WALL (     799 calls)
     init_us_2:cp :      0.36s CPU      0.52s WALL (     799 calls)
     cegterg      :     72.74s CPU    106.25s WALL (     376 calls)

     Called by *egterg:
     cdiaghg      :      0.12s CPU      0.14s WALL (    1157 calls)
     h_psi        :     76.85s CPU    115.51s WALL (    1251 calls)
     g_psi        :      0.05s CPU      0.10s WALL (     828 calls)

     Called by h_psi:
     h_psi:calbec :      0.21s CPU      0.33s WALL (    1251 calls)
     vloc_psi     :     19.02s CPU     28.69s WALL (    1251 calls)
     add_vuspsi   :      0.14s CPU      0.19s WALL (    1251 calls)
     h_psi_meta   :     57.38s CPU     86.16s WALL (    1251 calls)

     General routines
     calbec       :      0.21s CPU      0.32s WALL (    1251 calls)
     fft          :      0.11s CPU      0.20s WALL (      95 calls)
     ffts         :      0.16s CPU      0.20s WALL (     124 calls)
     fftw         :     73.42s CPU    110.69s WALL (   60832 calls)
     interpolate  :      0.00s CPU      0.00s WALL (       8 calls)
 
     Parallel routines
 
     PWSCF        :   1m34.27s CPU   2m20.96s WALL

 
   This run was terminated on:   8:59:13   4Apr2023            

=------------------------------------------------------------------------------=
   JOB DONE.
=------------------------------------------------------------------------------=
