
     Program PWSCF v.7.0 starts on 14Mar2023 at 12: 2:31 

     This program is part of the open-source Quantum ESPRESSO suite
     for quantum simulation of materials; please cite
         "P. Giannozzi et al., J. Phys.:Condens. Matter 21 395502 (2009);
         "P. Giannozzi et al., J. Phys.:Condens. Matter 29 465901 (2017);
         "P. Giannozzi et al., J. Chem. Phys. 152 154105 (2020);
          URL http://www.quantum-espresso.org", 
     in publications or presentations arising from this work. More details at
     http://www.quantum-espresso.org/quote

     Parallel version (MPI), running on     1 processors

     MPI processes distributed on     1 nodes
     27230 MiB available memory on the printing compute node when the environment starts
 
     Waiting for input...
     Reading input from standard input
Warning: card &CELL ignored
Warning: card / ignored

     Current dimensions of program PWSCF are:
     Max number of different atomic species (ntypx) = 10
     Max number of k-points (npk) =  40000
     Max angular momentum in pseudopotentials (lmaxx) =  4
     file Si.SCAN.UPF2: wavefunction(s)  0D renormalized

     WARNING: the MGGA functional with ID    5 has been 
     read together with other dft terms, but it should 
     stand alone in order to work properly. The other 
     terms will be ignored.

     WARNING: the MGGA functional with ID    5 has been 
     read together with other dft terms, but it should 
     stand alone in order to work properly. The other 
     terms will be ignored.

     Subspace diagonalization in iterative solution of the eigenvalue problem:
     a serial algorithm will be used

 
     G-vector sticks info
     --------------------
     sticks:   dense  smooth     PW     G-vecs:    dense   smooth      PW
     Sum        1039    1039    313                22123    22123    3647
 
     Using Slab Decomposition
 


     bravais-lattice index     =            2
     lattice parameter (alat)  =      12.2640  a.u.
     unit-cell volume          =     461.1439 (a.u.)^3
     number of atoms/cell      =            2
     number of atomic types    =            2
     number of electrons       =         8.00
     number of Kohn-Sham states=            4
     kinetic-energy cutoff     =      50.0000  Ry
     charge density cutoff     =     200.0000  Ry
     scf convergence threshold =      1.0E-06
     mixing beta               =       0.0100
     number of iterations used =            8  local-TF  mixing
     Exchange-correlation= SLA  PW   SCAN SCAN
                           (   0   0   0   0   0 263 267)

     celldm(1)=  12.264000  celldm(2)=   0.000000  celldm(3)=   0.000000
     celldm(4)=   0.000000  celldm(5)=   0.000000  celldm(6)=   0.000000

     crystal axes: (cart. coord. in units of alat)
               a(1) = (  -0.500000   0.000000   0.500000 )  
               a(2) = (   0.000000   0.500000   0.500000 )  
               a(3) = (  -0.500000   0.500000   0.000000 )  

     reciprocal axes: (cart. coord. in units 2 pi/alat)
               b(1) = ( -1.000000 -1.000000  1.000000 )  
               b(2) = (  1.000000  1.000000  1.000000 )  
               b(3) = ( -1.000000  1.000000 -1.000000 )  


     PseudoPot. # 1 for Si read from file:
     ~/Documents/TA/PWDFT.jl/pseudopotentials/scan_upf/Si.SCAN.UPF2
     MD5 check sum: Not computed, couldn't open file
     Pseudo is Norm-conserving, Zval =  4.0
     Generated by new atomic code, or converted to UPF format
     Using radial grid of 1475 points,  2 beta functions with: 
                l(1) =   0
                l(2) =   1

     PseudoPot. # 2 for C  read from file:
     ~/Documents/TA/PWDFT.jl/pseudopotentials/scan_upf/C.SCAN.UPF2
     MD5 check sum: Not computed, couldn't open file
     Pseudo is Norm-conserving, Zval =  4.0
     Generated by new atomic code, or converted to UPF format
     Using radial grid of 1389 points,  1 beta functions with: 
                l(1) =   0

     atomic species   valence    mass     pseudopotential
        Si             4.00    28.08550     Si( 1.00)
        C              4.00    12.01100     C ( 1.00)

     24 Sym. Ops. (no inversion) found



   Cartesian axes

     site n.     atom                  positions (alat units)
         1           Si  tau(   1) = (   0.0000000   0.0000000   0.0000000  )
         2           C   tau(   2) = (   0.2500000   0.2500000   0.2500000  )

     number of k points=    47
                       cart. coord. in units 2pi/alat
        k(    1) = (   0.0000000   0.0000000   0.0000000), wk =   0.0020000
        k(    2) = (  -0.1000000   0.1000000  -0.1000000), wk =   0.0160000
        k(    3) = (  -0.2000000   0.2000000  -0.2000000), wk =   0.0160000
        k(    4) = (  -0.3000000   0.3000000  -0.3000000), wk =   0.0160000
        k(    5) = (  -0.4000000   0.4000000  -0.4000000), wk =   0.0160000
        k(    6) = (   0.5000000  -0.5000000   0.5000000), wk =   0.0080000
        k(    7) = (   0.0000000   0.2000000   0.0000000), wk =   0.0120000
        k(    8) = (  -0.1000000   0.3000000  -0.1000000), wk =   0.0480000
        k(    9) = (  -0.2000000   0.4000000  -0.2000000), wk =   0.0480000
        k(   10) = (  -0.3000000   0.5000000  -0.3000000), wk =   0.0480000
        k(   11) = (   0.6000000  -0.4000000   0.6000000), wk =   0.0480000
        k(   12) = (   0.5000000  -0.3000000   0.5000000), wk =   0.0480000
        k(   13) = (   0.4000000  -0.2000000   0.4000000), wk =   0.0480000
        k(   14) = (   0.3000000  -0.1000000   0.3000000), wk =   0.0480000
        k(   15) = (   0.2000000   0.0000000   0.2000000), wk =   0.0240000
        k(   16) = (   0.0000000   0.4000000   0.0000000), wk =   0.0120000
        k(   17) = (  -0.1000000   0.5000000  -0.1000000), wk =   0.0480000
        k(   18) = (  -0.2000000   0.6000000  -0.2000000), wk =   0.0480000
        k(   19) = (   0.7000000  -0.3000000   0.7000000), wk =   0.0480000
        k(   20) = (   0.6000000  -0.2000000   0.6000000), wk =   0.0480000
        k(   21) = (   0.5000000  -0.1000000   0.5000000), wk =   0.0480000
        k(   22) = (   0.4000000   0.0000000   0.4000000), wk =   0.0240000
        k(   23) = (   0.0000000   0.6000000   0.0000000), wk =   0.0120000
        k(   24) = (  -0.1000000   0.7000000  -0.1000000), wk =   0.0480000
        k(   25) = (   0.8000000  -0.2000000   0.8000000), wk =   0.0480000
        k(   26) = (   0.7000000  -0.1000000   0.7000000), wk =   0.0480000
        k(   27) = (   0.6000000  -0.0000000   0.6000000), wk =   0.0240000
        k(   28) = (   0.0000000   0.8000000   0.0000000), wk =   0.0120000
        k(   29) = (   0.9000000  -0.1000000   0.9000000), wk =   0.0480000
        k(   30) = (   0.8000000   0.0000000   0.8000000), wk =   0.0240000
        k(   31) = (   0.0000000  -1.0000000   0.0000000), wk =   0.0060000
        k(   32) = (  -0.2000000   0.4000000   0.0000000), wk =   0.0480000
        k(   33) = (  -0.3000000   0.5000000  -0.1000000), wk =   0.0960000
        k(   34) = (   0.6000000  -0.4000000   0.8000000), wk =   0.0960000
        k(   35) = (   0.5000000  -0.3000000   0.7000000), wk =   0.0480000
        k(   36) = (  -0.2000000   0.6000000   0.0000000), wk =   0.0480000
        k(   37) = (   0.7000000  -0.3000000   0.9000000), wk =   0.0960000
        k(   38) = (   0.6000000  -0.2000000   0.8000000), wk =   0.0960000
        k(   39) = (   0.5000000  -0.1000000   0.7000000), wk =   0.0960000
        k(   40) = (   0.4000000   0.0000000   0.6000000), wk =   0.0480000
        k(   41) = (   0.8000000  -0.2000000   1.0000000), wk =   0.0480000
        k(   42) = (   0.7000000  -0.1000000   0.9000000), wk =   0.0960000
        k(   43) = (   0.6000000   0.0000000   0.8000000), wk =   0.0480000
        k(   44) = (  -0.2000000  -1.0000000   0.0000000), wk =   0.0240000
        k(   45) = (   0.6000000  -0.2000000   1.0000000), wk =   0.0480000
        k(   46) = (   0.5000000  -0.1000000   0.9000000), wk =   0.0480000
        k(   47) = (  -0.4000000  -1.0000000   0.0000000), wk =   0.0240000

     Dense  grid:    22123 G-vectors     FFT dimensions: (  40,  40,  40)

     Estimated max dynamical RAM per process >      41.53 MB

     WARNING: libxc functional with ID  263 depends
      on external parameters: check the user_guide of
      QE if you need to modify them or to check their
      default values.

     Initial potential from superposition of free atoms

     starting charge       7.9995, renormalised to       8.0000
     Starting wfcs are   13 randomized atomic wfcs

     total cpu time spent up to now is        9.6 secs

     Self-consistent Calculation

     iteration #  1     ecut=    50.00 Ry     beta= 0.01
     Davidson diagonalization with overlap
     ethr =  1.00E-02,  avg # of iterations =  1.0

     total cpu time spent up to now is       17.0 secs

     total energy              =     -18.67504077 Ry
     estimated scf accuracy    <       0.68840024 Ry

     iteration #  2     ecut=    50.00 Ry     beta= 0.01
     Davidson diagonalization with overlap
     ethr =  8.61E-03,  avg # of iterations =  1.0

     total cpu time spent up to now is       23.8 secs

     total energy              =     -18.64628805 Ry
     estimated scf accuracy    <       0.67842783 Ry

     iteration #  3     ecut=    50.00 Ry     beta= 0.01
     Davidson diagonalization with overlap
     ethr =  8.48E-03,  avg # of iterations =  1.0

     total cpu time spent up to now is       31.7 secs

     total energy              =     -18.65208204 Ry
     estimated scf accuracy    <       0.07336634 Ry

     iteration #  4     ecut=    50.00 Ry     beta= 0.01
     Davidson diagonalization with overlap
     ethr =  9.17E-04,  avg # of iterations =  3.9

     total cpu time spent up to now is       42.7 secs

     total energy              =     -18.67138793 Ry
     estimated scf accuracy    <       0.07490337 Ry

     iteration #  5     ecut=    50.00 Ry     beta= 0.01
     Davidson diagonalization with overlap
     ethr =  9.17E-04,  avg # of iterations =  1.0

     total cpu time spent up to now is       49.4 secs

     total energy              =     -18.67305819 Ry
     estimated scf accuracy    <       0.07205210 Ry

     iteration #  6     ecut=    50.00 Ry     beta= 0.01
     Davidson diagonalization with overlap
     ethr =  9.01E-04,  avg # of iterations =  1.0

     total cpu time spent up to now is       56.2 secs

     total energy              =     -18.66889938 Ry
     estimated scf accuracy    <       0.08286918 Ry

     iteration #  7     ecut=    50.00 Ry     beta= 0.01
     Davidson diagonalization with overlap
     ethr =  9.01E-04,  avg # of iterations =  1.0

     total cpu time spent up to now is       62.5 secs

     total energy              =     -18.66317390 Ry
     estimated scf accuracy    <       0.04714520 Ry

     iteration #  8     ecut=    50.00 Ry     beta= 0.01
     Davidson diagonalization with overlap
     ethr =  5.89E-04,  avg # of iterations =  3.1

     total cpu time spent up to now is       69.2 secs

     total energy              =     -18.68289524 Ry
     estimated scf accuracy    <       0.09074239 Ry

     iteration #  9     ecut=    50.00 Ry     beta= 0.01
     Davidson diagonalization with overlap
     ethr =  5.89E-04,  avg # of iterations =  1.0

     total cpu time spent up to now is       74.4 secs

     total energy              =     -18.68195297 Ry
     estimated scf accuracy    <       0.09351741 Ry

     iteration # 10     ecut=    50.00 Ry     beta= 0.01
     Davidson diagonalization with overlap
     ethr =  5.89E-04,  avg # of iterations =  1.0

     total cpu time spent up to now is       78.0 secs

     total energy              =     -18.66353671 Ry
     estimated scf accuracy    <       0.09428096 Ry

     iteration # 11     ecut=    50.00 Ry     beta= 0.01
     Davidson diagonalization with overlap
     ethr =  5.89E-04,  avg # of iterations =  2.0

     total cpu time spent up to now is       81.7 secs

     total energy              =     -18.66508064 Ry
     estimated scf accuracy    <       0.01382193 Ry

     iteration # 12     ecut=    50.00 Ry     beta= 0.01
     Davidson diagonalization with overlap
     ethr =  1.73E-04,  avg # of iterations =  3.3

     total cpu time spent up to now is       86.7 secs

     total energy              =     -18.67281233 Ry
     estimated scf accuracy    <       0.01044842 Ry

     iteration # 13     ecut=    50.00 Ry     beta= 0.01
     Davidson diagonalization with overlap
     ethr =  1.31E-04,  avg # of iterations =  1.5

     total cpu time spent up to now is       90.0 secs

     total energy              =     -18.67148566 Ry
     estimated scf accuracy    <       0.02120402 Ry

     iteration # 14     ecut=    50.00 Ry     beta= 0.01
     Davidson diagonalization with overlap
     ethr =  1.31E-04,  avg # of iterations =  1.0

     total cpu time spent up to now is       93.0 secs

     total energy              =     -18.67225193 Ry
     estimated scf accuracy    <       0.01498780 Ry

     iteration # 15     ecut=    50.00 Ry     beta= 0.01
     Davidson diagonalization with overlap
     ethr =  1.31E-04,  avg # of iterations =  1.0

     total cpu time spent up to now is       96.2 secs

     total energy              =     -18.67101734 Ry
     estimated scf accuracy    <       0.01865505 Ry

     iteration # 16     ecut=    50.00 Ry     beta= 0.01
     Davidson diagonalization with overlap
     ethr =  1.31E-04,  avg # of iterations =  1.0

     total cpu time spent up to now is       99.3 secs

     total energy              =     -18.67137480 Ry
     estimated scf accuracy    <       0.01321049 Ry

     iteration # 17     ecut=    50.00 Ry     beta= 0.01
     Davidson diagonalization with overlap
     ethr =  1.31E-04,  avg # of iterations =  1.0

     total cpu time spent up to now is      102.3 secs

     total energy              =     -18.67184823 Ry
     estimated scf accuracy    <       0.01254646 Ry

     iteration # 18     ecut=    50.00 Ry     beta= 0.01
     Davidson diagonalization with overlap
     ethr =  1.31E-04,  avg # of iterations =  1.0

     total cpu time spent up to now is      105.3 secs

     total energy              =     -18.67145729 Ry
     estimated scf accuracy    <       0.01318635 Ry

     iteration # 19     ecut=    50.00 Ry     beta= 0.01
     Davidson diagonalization with overlap
     ethr =  1.31E-04,  avg # of iterations =  1.0

     total cpu time spent up to now is      108.3 secs

     total energy              =     -18.67179005 Ry
     estimated scf accuracy    <       0.01104474 Ry

     iteration # 20     ecut=    50.00 Ry     beta= 0.01
     Davidson diagonalization with overlap
     ethr =  1.31E-04,  avg # of iterations =  1.0

     total cpu time spent up to now is      111.2 secs

     total energy              =     -18.67022488 Ry
     estimated scf accuracy    <       0.01184565 Ry

     iteration # 21     ecut=    50.00 Ry     beta= 0.01
     Davidson diagonalization with overlap
     ethr =  1.31E-04,  avg # of iterations =  1.0

     total cpu time spent up to now is      113.5 secs

     total energy              =     -18.66982328 Ry
     estimated scf accuracy    <       0.00368469 Ry

     iteration # 22     ecut=    50.00 Ry     beta= 0.01
     Davidson diagonalization with overlap
     ethr =  4.61E-05,  avg # of iterations =  2.5

     total cpu time spent up to now is      116.0 secs

     total energy              =     -18.67055523 Ry
     estimated scf accuracy    <       0.00014009 Ry

     iteration # 23     ecut=    50.00 Ry     beta= 0.01
     Davidson diagonalization with overlap
     ethr =  1.75E-06,  avg # of iterations =  2.7

     total cpu time spent up to now is      118.9 secs

     total energy              =     -18.67066155 Ry
     estimated scf accuracy    <       0.00107489 Ry

     iteration # 24     ecut=    50.00 Ry     beta= 0.01
     Davidson diagonalization with overlap
     ethr =  1.75E-06,  avg # of iterations =  1.0

     total cpu time spent up to now is      120.9 secs

     total energy              =     -18.67063015 Ry
     estimated scf accuracy    <       0.00110087 Ry

     iteration # 25     ecut=    50.00 Ry     beta= 0.01
     Davidson diagonalization with overlap
     ethr =  1.75E-06,  avg # of iterations =  1.0

     total cpu time spent up to now is      122.8 secs

     total energy              =     -18.67057716 Ry
     estimated scf accuracy    <       0.00092863 Ry

     iteration # 26     ecut=    50.00 Ry     beta= 0.01
     Davidson diagonalization with overlap
     ethr =  1.75E-06,  avg # of iterations =  1.5

     total cpu time spent up to now is      125.3 secs

     total energy              =     -18.67059300 Ry
     estimated scf accuracy    <       0.00052484 Ry

     iteration # 27     ecut=    50.00 Ry     beta= 0.01
     Davidson diagonalization with overlap
     ethr =  1.75E-06,  avg # of iterations =  1.0

     total cpu time spent up to now is      127.7 secs

     total energy              =     -18.67057977 Ry
     estimated scf accuracy    <       0.00053841 Ry

     iteration # 28     ecut=    50.00 Ry     beta= 0.01
     Davidson diagonalization with overlap
     ethr =  1.75E-06,  avg # of iterations =  1.0

     total cpu time spent up to now is      130.8 secs

     total energy              =     -18.67058480 Ry
     estimated scf accuracy    <       0.00039345 Ry

     iteration # 29     ecut=    50.00 Ry     beta= 0.01
     Davidson diagonalization with overlap
     ethr =  1.75E-06,  avg # of iterations =  1.0

     total cpu time spent up to now is      133.8 secs

     total energy              =     -18.67058350 Ry
     estimated scf accuracy    <       0.00039448 Ry

     iteration # 30     ecut=    50.00 Ry     beta= 0.01
     Davidson diagonalization with overlap
     ethr =  1.75E-06,  avg # of iterations =  1.0

     total cpu time spent up to now is      136.9 secs

     total energy              =     -18.67054630 Ry
     estimated scf accuracy    <       0.00038404 Ry

     iteration # 31     ecut=    50.00 Ry     beta= 0.01
     Davidson diagonalization with overlap
     ethr =  1.75E-06,  avg # of iterations =  1.0

     total cpu time spent up to now is      139.9 secs

     total energy              =     -18.67053021 Ry
     estimated scf accuracy    <       0.00017270 Ry

     iteration # 32     ecut=    50.00 Ry     beta= 0.01
     Davidson diagonalization with overlap
     ethr =  1.75E-06,  avg # of iterations =  2.1

     total cpu time spent up to now is      143.6 secs

     total energy              =     -18.67054170 Ry
     estimated scf accuracy    <       0.00002017 Ry

     iteration # 33     ecut=    50.00 Ry     beta= 0.01
     Davidson diagonalization with overlap
     ethr =  2.52E-07,  avg # of iterations =  4.6

     total cpu time spent up to now is      148.9 secs

     total energy              =     -18.67053864 Ry
     estimated scf accuracy    <       0.00005492 Ry

     iteration # 34     ecut=    50.00 Ry     beta= 0.01
     Davidson diagonalization with overlap
     ethr =  2.52E-07,  avg # of iterations =  4.1

     total cpu time spent up to now is      154.0 secs

     total energy              =     -18.67054913 Ry
     estimated scf accuracy    <       0.00005131 Ry

     iteration # 35     ecut=    50.00 Ry     beta= 0.01
     Davidson diagonalization with overlap
     ethr =  2.52E-07,  avg # of iterations =  1.9

     total cpu time spent up to now is      157.3 secs

     total energy              =     -18.67055735 Ry
     estimated scf accuracy    <       0.00001938 Ry

     iteration # 36     ecut=    50.00 Ry     beta= 0.01
     Davidson diagonalization with overlap
     ethr =  2.42E-07,  avg # of iterations =  1.3

     total cpu time spent up to now is      160.3 secs

     total energy              =     -18.67060881 Ry
     estimated scf accuracy    <       0.00006359 Ry

     iteration # 37     ecut=    50.00 Ry     beta= 0.01
     Davidson diagonalization with overlap
     ethr =  2.42E-07,  avg # of iterations =  6.0

     total cpu time spent up to now is      167.0 secs

     total energy              =     -18.67059997 Ry
     estimated scf accuracy    <       0.00132591 Ry

     iteration # 38     ecut=    50.00 Ry     beta= 0.01
     Davidson diagonalization with overlap
     ethr =  2.42E-07,  avg # of iterations =  3.2

     total cpu time spent up to now is      169.9 secs

     total energy              =     -18.67062440 Ry
     estimated scf accuracy    <       0.00076848 Ry

     iteration # 39     ecut=    50.00 Ry     beta= 0.01
     Davidson diagonalization with overlap
     ethr =  2.42E-07,  avg # of iterations =  1.3

     total cpu time spent up to now is      171.8 secs

     total energy              =     -18.67083814 Ry
     estimated scf accuracy    <       0.00076991 Ry

     iteration # 40     ecut=    50.00 Ry     beta= 0.01
     Davidson diagonalization with overlap
     ethr =  2.42E-07,  avg # of iterations =  6.5

     total cpu time spent up to now is      179.2 secs

     total energy              =     -18.67081237 Ry
     estimated scf accuracy    <       0.00360175 Ry

     iteration # 41     ecut=    50.00 Ry     beta= 0.01
     Davidson diagonalization with overlap
     ethr =  2.42E-07,  avg # of iterations =  3.0

     total cpu time spent up to now is      183.4 secs

     total energy              =     -18.67060711 Ry
     estimated scf accuracy    <       0.00278945 Ry

     iteration # 42     ecut=    50.00 Ry     beta= 0.01
     Davidson diagonalization with overlap
     ethr =  2.42E-07,  avg # of iterations =  4.8

     total cpu time spent up to now is      187.1 secs

     total energy              =     -18.67042308 Ry
     estimated scf accuracy    <       0.00110819 Ry

     iteration # 43     ecut=    50.00 Ry     beta= 0.01
     Davidson diagonalization with overlap
     ethr =  2.42E-07,  avg # of iterations =  7.3

     total cpu time spent up to now is      191.8 secs

     total energy              =     -18.67054181 Ry
     estimated scf accuracy    <       0.00004052 Ry

     iteration # 44     ecut=    50.00 Ry     beta= 0.01
     Davidson diagonalization with overlap
     ethr =  2.42E-07,  avg # of iterations =  4.7

     total cpu time spent up to now is      195.0 secs

     total energy              =     -18.67055038 Ry
     estimated scf accuracy    <       0.00021003 Ry

     iteration # 45     ecut=    50.00 Ry     beta= 0.01
     Davidson diagonalization with overlap
     ethr =  2.42E-07,  avg # of iterations =  3.5

     total cpu time spent up to now is      197.6 secs

     total energy              =     -18.67055721 Ry
     estimated scf accuracy    <       0.00002185 Ry

     iteration # 46     ecut=    50.00 Ry     beta= 0.01
     Davidson diagonalization with overlap
     ethr =  2.42E-07,  avg # of iterations =  1.9

     total cpu time spent up to now is      199.5 secs

     total energy              =     -18.67055903 Ry
     estimated scf accuracy    <       0.00000367 Ry

     iteration # 47     ecut=    50.00 Ry     beta= 0.01
     Davidson diagonalization with overlap
     c_bands:  1 eigenvalues not converged
     ethr =  4.59E-08,  avg # of iterations =  3.9

     total cpu time spent up to now is      202.0 secs

     End of self-consistent calculation

          k = 0.0000 0.0000 0.0000 (  2733 PWs)   bands (ev):

   -10.2338  -4.6229  -0.3218  -0.3218

          k =-0.1000 0.1000-0.1000 (  2737 PWs)   bands (ev):

   -10.1782  -4.7796  -0.3881  -0.3881

          k =-0.2000 0.2000-0.2000 (  2740 PWs)   bands (ev):

   -10.0216  -5.1792  -0.5415  -0.5415

          k =-0.3000 0.3000-0.3000 (  2752 PWs)   bands (ev):

    -9.7991  -5.6695  -0.7035  -0.7034

          k =-0.4000 0.4000-0.4000 (  2752 PWs)   bands (ev):

    -9.5846  -6.0811  -0.8170  -0.8170

          k = 0.5000-0.5000 0.5000 (  2764 PWs)   bands (ev):

    -9.4908  -6.2465  -0.8581  -0.8581

          k = 0.0000 0.2000 0.0000 (  2734 PWs)   bands (ev):

   -10.1595  -4.8282  -0.4987  -0.4987

          k =-0.1000 0.3000-0.1000 (  2748 PWs)   bands (ev):

   -10.0357  -5.1377  -0.7099  -0.6750

          k =-0.2000 0.4000-0.2000 (  2747 PWs)   bands (ev):

    -9.8324  -5.5859  -1.0018  -0.8350

          k =-0.3000 0.5000-0.3000 (  2762 PWs)   bands (ev):

    -9.6084  -6.0172  -1.2688  -0.9307

          k = 0.6000-0.4000 0.6000 (  2768 PWs)   bands (ev):

    -9.4654  -6.2665  -1.4259  -0.9411

          k = 0.5000-0.3000 0.5000 (  2759 PWs)   bands (ev):

    -9.4977  -6.2116  -1.4374  -0.8656

          k = 0.4000-0.2000 0.4000 (  2760 PWs)   bands (ev):

    -9.6816  -5.8826  -1.2997  -0.7229

          k = 0.3000-0.1000 0.3000 (  2753 PWs)   bands (ev):

    -9.9078  -5.4287  -1.0350  -0.5484

          k = 0.2000 0.0000 0.2000 (  2751 PWs)   bands (ev):

   -10.0886  -5.0121  -0.6968  -0.4109

          k = 0.0000 0.4000 0.0000 (  2750 PWs)   bands (ev):

    -9.9474  -5.3288  -0.8689  -0.8689

          k =-0.1000 0.5000-0.1000 (  2749 PWs)   bands (ev):

    -9.7741  -5.6799  -1.1383  -1.0392

          k =-0.2000 0.6000-0.2000 (  2753 PWs)   bands (ev):

    -9.5615  -6.0640  -1.4866  -1.1351

          k = 0.7000-0.3000 0.7000 (  2744 PWs)   bands (ev):

    -9.3941  -6.3375  -1.7610  -1.1356

          k = 0.6000-0.2000 0.6000 (  2754 PWs)   bands (ev):

    -9.3711  -6.3727  -1.8725  -1.0431

          k = 0.5000-0.1000 0.5000 (  2748 PWs)   bands (ev):

    -9.5086  -6.1535  -1.7832  -0.8781

          k = 0.4000 0.0000 0.4000 (  2742 PWs)   bands (ev):

    -9.7185  -5.7928  -1.4912  -0.6873

          k = 0.0000 0.6000 0.0000 (  2758 PWs)   bands (ev):

    -9.6357  -5.9257  -1.2248  -1.2248

          k =-0.1000 0.7000-0.1000 (  2759 PWs)   bands (ev):

    -9.4534  -6.2269  -1.4798  -1.3351

          k = 0.8000-0.2000 0.8000 (  2756 PWs)   bands (ev):

    -9.2950  -6.4641  -1.8150  -1.3454

          k = 0.7000-0.1000 0.7000 (  2746 PWs)   bands (ev):

    -9.2453  -6.5317  -2.0354  -1.2541

          k = 0.6000-0.0000 0.6000 (  2750 PWs)   bands (ev):

    -9.3360  -6.4030  -2.0367  -1.0826

          k = 0.0000 0.8000 0.0000 (  2766 PWs)   bands (ev):

    -9.3156  -6.4388  -1.4654  -1.4654

          k = 0.9000-0.1000 0.9000 (  2768 PWs)   bands (ev):

    -9.2032  -6.5980  -1.6643  -1.4956

          k = 0.8000 0.0000 0.8000 (  2748 PWs)   bands (ev):

    -9.1752  -6.6286  -1.9301  -1.4194

          k = 0.0000-1.0000 0.0000 (  2778 PWs)   bands (ev):

    -9.1647  -6.6567  -1.5497  -1.5497

          k =-0.2000 0.4000 0.0000 (  2752 PWs)   bands (ev):

    -9.8871  -5.4624  -1.0888  -0.7523

          k =-0.3000 0.5000-0.1000 (  2753 PWs)   bands (ev):

    -9.6769  -5.8688  -1.4394  -0.8943

          k = 0.6000-0.4000 0.8000 (  2755 PWs)   bands (ev):

    -9.4759  -6.2163  -1.6756  -1.0199

          k = 0.5000-0.3000 0.7000 (  2764 PWs)   bands (ev):

    -9.3886  -6.3573  -1.7585  -1.0676

          k =-0.2000 0.6000 0.0000 (  2754 PWs)   bands (ev):

    -9.5943  -5.9992  -1.4374  -1.1661

          k = 0.7000-0.3000 0.9000 (  2749 PWs)   bands (ev):

    -9.4030  -6.3053  -1.7387  -1.2829

          k = 0.6000-0.2000 0.8000 (  2746 PWs)   bands (ev):

    -9.2884  -6.4749  -1.9425  -1.3038

          k = 0.5000-0.1000 0.7000 (  2752 PWs)   bands (ev):

    -9.3229  -6.4240  -1.9750  -1.2129

          k = 0.4000 0.0000 0.6000 (  2753 PWs)   bands (ev):

    -9.4823  -6.1846  -1.8027  -1.0468

          k = 0.8000-0.2000 1.0000 (  2763 PWs)   bands (ev):

    -9.2991  -6.4575  -1.6381  -1.4878

          k = 0.7000-0.1000 0.9000 (  2752 PWs)   bands (ev):

    -9.1991  -6.5927  -1.8807  -1.5250

          k = 0.6000 0.0000 0.8000 (  2748 PWs)   bands (ev):

    -9.2101  -6.5739  -2.0379  -1.4114

          k =-0.2000-1.0000 0.0000 (  2758 PWs)   bands (ev):

    -9.1628  -6.6497  -1.6569  -1.6520

          k = 0.6000-0.2000 1.0000 (  2759 PWs)   bands (ev):

    -9.2576  -6.5083  -1.9155  -1.4844

          k = 0.5000-0.1000 0.9000 (  2744 PWs)   bands (ev):

    -9.1965  -6.5894  -1.9690  -1.5800

          k =-0.4000-1.0000 0.0000 (  2748 PWs)   bands (ev):

    -9.1599  -6.6384  -1.8035  -1.7985

     highest occupied level (ev):    -0.3218

!    total energy              =     -18.67055921 Ry
     estimated scf accuracy    <       0.00000036 Ry

     The total energy is the sum of the following terms:
     one-electron contribution =      -3.34057902 Ry
     hartree contribution      =       3.64134545 Ry
     xc contribution           =      -4.91575341 Ry
     ewald contribution        =     -14.05557223 Ry

     convergence has been achieved in  47 iterations
     Writing meta-gga kinetic term

     Writing all to output data dir ./input_pw/SiC/17/pwscf.save/
     Writing meta-gga kinetic term
 
     init_run     :      3.76s CPU      9.56s WALL (       1 calls)
     electrons    :    155.73s CPU    192.32s WALL (       1 calls)

     Called by init_run:
     wfcinit      :      3.59s CPU      9.09s WALL (       1 calls)
     potinit      :      0.05s CPU      0.20s WALL (       1 calls)
     hinit0       :      0.10s CPU      0.21s WALL (       1 calls)

     Called by electrons:
     c_bands      :    126.12s CPU    155.44s WALL (      47 calls)
     sum_band     :     25.75s CPU     32.07s WALL (      47 calls)
     v_of_rho     :      1.78s CPU      2.44s WALL (      48 calls)
     mix_rho      :      2.05s CPU      2.48s WALL (      47 calls)

     Called by c_bands:
     init_us_2    :      1.37s CPU      1.94s WALL (    4465 calls)
     init_us_2:cp :      1.36s CPU      1.93s WALL (    4465 calls)
     cegterg      :    124.85s CPU    153.81s WALL (    2209 calls)

     Called by *egterg:
     cdiaghg      :      0.41s CPU      0.50s WALL (    7079 calls)
     h_psi        :    125.84s CPU    159.47s WALL (    7126 calls)
     g_psi        :      0.12s CPU      0.18s WALL (    4870 calls)

     Called by h_psi:
     h_psi:calbec :      0.46s CPU      0.49s WALL (    7126 calls)
     vloc_psi     :     31.18s CPU     38.85s WALL (    7126 calls)
     add_vuspsi   :      0.40s CPU      0.52s WALL (    7126 calls)
     h_psi_meta   :     93.61s CPU    119.35s WALL (    7126 calls)

     General routines
     calbec       :      0.44s CPU      0.47s WALL (    7126 calls)
     fft          :      0.33s CPU      0.56s WALL (     573 calls)
     ffts         :      0.72s CPU      0.91s WALL (    1230 calls)
     fftw         :    128.68s CPU    163.01s WALL (  233432 calls)
     interpolate  :      0.01s CPU      0.01s WALL (      48 calls)
 
     Parallel routines
 
     PWSCF        :   2m39.54s CPU   3m21.99s WALL

 
   This run was terminated on:  12: 5:53  14Mar2023            

=------------------------------------------------------------------------------=
   JOB DONE.
=------------------------------------------------------------------------------=
