
     Program PWSCF v.7.0 starts on 29Mar2023 at 11:45:50 

     This program is part of the open-source Quantum ESPRESSO suite
     for quantum simulation of materials; please cite
         "P. Giannozzi et al., J. Phys.:Condens. Matter 21 395502 (2009);
         "P. Giannozzi et al., J. Phys.:Condens. Matter 29 465901 (2017);
         "P. Giannozzi et al., J. Chem. Phys. 152 154105 (2020);
          URL http://www.quantum-espresso.org", 
     in publications or presentations arising from this work. More details at
     http://www.quantum-espresso.org/quote

     Parallel version (MPI), running on     1 processors

     MPI processes distributed on     1 nodes
     23744 MiB available memory on the printing compute node when the environment starts
 
     Waiting for input...
     Reading input from standard input
Warning: card &CELL ignored
Warning: card / ignored

     Current dimensions of program PWSCF are:
     Max number of different atomic species (ntypx) = 10
     Max number of k-points (npk) =  40000
     Max angular momentum in pseudopotentials (lmaxx) =  4
     file Ge.SCAN.UPF2: wavefunction(s)  0D renormalized

     WARNING: the MGGA functional with ID    5 has been 
     read together with other dft terms, but it should 
     stand alone in order to work properly. The other 
     terms will be ignored.

     Subspace diagonalization in iterative solution of the eigenvalue problem:
     a serial algorithm will be used

 
     G-vector sticks info
     --------------------
     sticks:   dense  smooth     PW     G-vecs:    dense   smooth      PW
     Sum         847     847    253                16265    16265    2733
 
     Using Slab Decomposition
 


     bravais-lattice index     =            2
     lattice parameter (alat)  =      11.0595  a.u.
     unit-cell volume          =     338.1811 (a.u.)^3
     number of atoms/cell      =            2
     number of atomic types    =            1
     number of electrons       =         8.00
     number of Kohn-Sham states=            4
     kinetic-energy cutoff     =      50.0000  Ry
     charge density cutoff     =     200.0000  Ry
     scf convergence threshold =      1.0E-06
     mixing beta               =       0.0100
     number of iterations used =            8  local-TF  mixing
     Exchange-correlation= SLA  PW  SCAN SCAN
                           (   0   0   0   0   0 263 267)

     celldm(1)=  11.059524  celldm(2)=   0.000000  celldm(3)=   0.000000
     celldm(4)=   0.000000  celldm(5)=   0.000000  celldm(6)=   0.000000

     crystal axes: (cart. coord. in units of alat)
               a(1) = (  -0.500000   0.000000   0.500000 )  
               a(2) = (   0.000000   0.500000   0.500000 )  
               a(3) = (  -0.500000   0.500000   0.000000 )  

     reciprocal axes: (cart. coord. in units 2 pi/alat)
               b(1) = ( -1.000000 -1.000000  1.000000 )  
               b(2) = (  1.000000  1.000000  1.000000 )  
               b(3) = ( -1.000000  1.000000 -1.000000 )  


     PseudoPot. # 1 for Ge read from file:
     ~/Documents/TA/PWDFT.jl/pseudopotentials/scan_upf/Ge.SCAN.UPF2
     MD5 check sum: Not computed, couldn't open file
     Pseudo is Norm-conserving, Zval =  4.0
     Generated by new atomic code, or converted to UPF format
     Using radial grid of 1557 points,  2 beta functions with: 
                l(1) =   0
                l(2) =   1

     atomic species   valence    mass     pseudopotential
        Ge             4.00    72.64000     Ge( 1.00)

     48 Sym. Ops., with inversion, found (24 have fractional translation)



   Cartesian axes

     site n.     atom                  positions (alat units)
         1           Ge  tau(   1) = (   0.0000000   0.0000000   0.0000000  )
         2           Ge  tau(   2) = (   0.2500000   0.2500000   0.2500000  )

     number of k points=    47
                       cart. coord. in units 2pi/alat
        k(    1) = (   0.0000000   0.0000000   0.0000000), wk =   0.0020000
        k(    2) = (  -0.1000000   0.1000000  -0.1000000), wk =   0.0160000
        k(    3) = (  -0.2000000   0.2000000  -0.2000000), wk =   0.0160000
        k(    4) = (  -0.3000000   0.3000000  -0.3000000), wk =   0.0160000
        k(    5) = (  -0.4000000   0.4000000  -0.4000000), wk =   0.0160000
        k(    6) = (   0.5000000  -0.5000000   0.5000000), wk =   0.0080000
        k(    7) = (   0.0000000   0.2000000   0.0000000), wk =   0.0120000
        k(    8) = (  -0.1000000   0.3000000  -0.1000000), wk =   0.0480000
        k(    9) = (  -0.2000000   0.4000000  -0.2000000), wk =   0.0480000
        k(   10) = (  -0.3000000   0.5000000  -0.3000000), wk =   0.0480000
        k(   11) = (   0.6000000  -0.4000000   0.6000000), wk =   0.0480000
        k(   12) = (   0.5000000  -0.3000000   0.5000000), wk =   0.0480000
        k(   13) = (   0.4000000  -0.2000000   0.4000000), wk =   0.0480000
        k(   14) = (   0.3000000  -0.1000000   0.3000000), wk =   0.0480000
        k(   15) = (   0.2000000   0.0000000   0.2000000), wk =   0.0240000
        k(   16) = (   0.0000000   0.4000000   0.0000000), wk =   0.0120000
        k(   17) = (  -0.1000000   0.5000000  -0.1000000), wk =   0.0480000
        k(   18) = (  -0.2000000   0.6000000  -0.2000000), wk =   0.0480000
        k(   19) = (   0.7000000  -0.3000000   0.7000000), wk =   0.0480000
        k(   20) = (   0.6000000  -0.2000000   0.6000000), wk =   0.0480000
        k(   21) = (   0.5000000  -0.1000000   0.5000000), wk =   0.0480000
        k(   22) = (   0.4000000   0.0000000   0.4000000), wk =   0.0240000
        k(   23) = (   0.0000000   0.6000000   0.0000000), wk =   0.0120000
        k(   24) = (  -0.1000000   0.7000000  -0.1000000), wk =   0.0480000
        k(   25) = (   0.8000000  -0.2000000   0.8000000), wk =   0.0480000
        k(   26) = (   0.7000000  -0.1000000   0.7000000), wk =   0.0480000
        k(   27) = (   0.6000000  -0.0000000   0.6000000), wk =   0.0240000
        k(   28) = (   0.0000000   0.8000000   0.0000000), wk =   0.0120000
        k(   29) = (   0.9000000  -0.1000000   0.9000000), wk =   0.0480000
        k(   30) = (   0.8000000   0.0000000   0.8000000), wk =   0.0240000
        k(   31) = (   0.0000000  -1.0000000   0.0000000), wk =   0.0060000
        k(   32) = (  -0.2000000   0.4000000   0.0000000), wk =   0.0480000
        k(   33) = (  -0.3000000   0.5000000  -0.1000000), wk =   0.0960000
        k(   34) = (   0.6000000  -0.4000000   0.8000000), wk =   0.0960000
        k(   35) = (   0.5000000  -0.3000000   0.7000000), wk =   0.0480000
        k(   36) = (  -0.2000000   0.6000000   0.0000000), wk =   0.0480000
        k(   37) = (   0.7000000  -0.3000000   0.9000000), wk =   0.0960000
        k(   38) = (   0.6000000  -0.2000000   0.8000000), wk =   0.0960000
        k(   39) = (   0.5000000  -0.1000000   0.7000000), wk =   0.0960000
        k(   40) = (   0.4000000   0.0000000   0.6000000), wk =   0.0480000
        k(   41) = (   0.8000000  -0.2000000   1.0000000), wk =   0.0480000
        k(   42) = (   0.7000000  -0.1000000   0.9000000), wk =   0.0960000
        k(   43) = (   0.6000000   0.0000000   0.8000000), wk =   0.0480000
        k(   44) = (  -0.2000000  -1.0000000   0.0000000), wk =   0.0240000
        k(   45) = (   0.6000000  -0.2000000   1.0000000), wk =   0.0480000
        k(   46) = (   0.5000000  -0.1000000   0.9000000), wk =   0.0480000
        k(   47) = (  -0.4000000  -1.0000000   0.0000000), wk =   0.0240000

     Dense  grid:    16265 G-vectors     FFT dimensions: (  36,  36,  36)

     Estimated max dynamical RAM per process >      30.03 MB

     WARNING: libxc functional with ID  263 depends
      on external parameters: check the user_guide of
      QE if you need to modify them or to check their
      default values.

     Initial potential from superposition of free atoms

     starting charge       7.9987, renormalised to       8.0000
     Starting wfcs are   18 randomized atomic wfcs

     total cpu time spent up to now is        9.5 secs

     Self-consistent Calculation

     iteration #  1     ecut=    50.00 Ry     beta= 0.01
     Davidson diagonalization with overlap
     ethr =  1.00E-02,  avg # of iterations =  1.9

     Threshold (ethr) on eigenvalues was too large:
     Diagonalizing with lowered threshold

     Davidson diagonalization with overlap
     ethr =  3.30E-04,  avg # of iterations =  5.7

     total cpu time spent up to now is       28.2 secs

     total energy              =     -15.74604209 Ry
     estimated scf accuracy    <       0.03303991 Ry

     iteration #  2     ecut=    50.00 Ry     beta= 0.01
     Davidson diagonalization with overlap
     ethr =  4.13E-04,  avg # of iterations =  1.0

     total cpu time spent up to now is       33.5 secs

     total energy              =     -15.74836306 Ry
     estimated scf accuracy    <       0.03310001 Ry

     iteration #  3     ecut=    50.00 Ry     beta= 0.01
     Davidson diagonalization with overlap
     ethr =  4.13E-04,  avg # of iterations =  1.0

     total cpu time spent up to now is       38.8 secs

     total energy              =     -15.81843209 Ry
     estimated scf accuracy    <       0.03663267 Ry

     iteration #  4     ecut=    50.00 Ry     beta= 0.01
     Davidson diagonalization with overlap
     ethr =  4.13E-04,  avg # of iterations =  1.4

     total cpu time spent up to now is       44.4 secs

     total energy              =     -15.82053753 Ry
     estimated scf accuracy    <       0.00357102 Ry

     iteration #  5     ecut=    50.00 Ry     beta= 0.01
     Davidson diagonalization with overlap
     ethr =  4.46E-05,  avg # of iterations =  5.6

     total cpu time spent up to now is       55.6 secs

     total energy              =     -15.82309659 Ry
     estimated scf accuracy    <       0.00396786 Ry

     iteration #  6     ecut=    50.00 Ry     beta= 0.01
     Davidson diagonalization with overlap
     ethr =  4.46E-05,  avg # of iterations =  1.2

     total cpu time spent up to now is       61.0 secs

     total energy              =     -15.82252103 Ry
     estimated scf accuracy    <       0.00398742 Ry

     iteration #  7     ecut=    50.00 Ry     beta= 0.01
     Davidson diagonalization with overlap
     ethr =  4.46E-05,  avg # of iterations =  1.2

     total cpu time spent up to now is       66.4 secs

     total energy              =     -15.82242411 Ry
     estimated scf accuracy    <       0.00091140 Ry

     iteration #  8     ecut=    50.00 Ry     beta= 0.01
     Davidson diagonalization with overlap
     ethr =  1.14E-05,  avg # of iterations =  5.5

     total cpu time spent up to now is       76.2 secs

     total energy              =     -15.82306937 Ry
     estimated scf accuracy    <       0.00016412 Ry

     iteration #  9     ecut=    50.00 Ry     beta= 0.01
     Davidson diagonalization with overlap
     ethr =  2.05E-06,  avg # of iterations =  7.8

     total cpu time spent up to now is       89.8 secs

     total energy              =     -15.82328744 Ry
     estimated scf accuracy    <       0.00017249 Ry

     iteration # 10     ecut=    50.00 Ry     beta= 0.01
     Davidson diagonalization with overlap
     ethr =  2.05E-06,  avg # of iterations =  1.5

     total cpu time spent up to now is       95.7 secs

     total energy              =     -15.82330935 Ry
     estimated scf accuracy    <       0.00016110 Ry

     iteration # 11     ecut=    50.00 Ry     beta= 0.01
     Davidson diagonalization with overlap
     ethr =  2.01E-06,  avg # of iterations =  2.1

     total cpu time spent up to now is      101.3 secs

     total energy              =     -15.82326976 Ry
     estimated scf accuracy    <       0.00006835 Ry

     iteration # 12     ecut=    50.00 Ry     beta= 0.01
     Davidson diagonalization with overlap
     ethr =  8.54E-07,  avg # of iterations =  6.1

     total cpu time spent up to now is      113.7 secs

     total energy              =     -15.82333572 Ry
     estimated scf accuracy    <       0.00000620 Ry

     iteration # 13     ecut=    50.00 Ry     beta= 0.01
     Davidson diagonalization with overlap
     ethr =  7.75E-08,  avg # of iterations =  9.3

     total cpu time spent up to now is      130.4 secs

     total energy              =     -15.82335295 Ry
     estimated scf accuracy    <       0.00000661 Ry

     iteration # 14     ecut=    50.00 Ry     beta= 0.01
     Davidson diagonalization with overlap
     ethr =  7.75E-08,  avg # of iterations =  2.0

     total cpu time spent up to now is      135.4 secs

     total energy              =     -15.82336059 Ry
     estimated scf accuracy    <       0.00000685 Ry

     iteration # 15     ecut=    50.00 Ry     beta= 0.01
     Davidson diagonalization with overlap
     ethr =  7.75E-08,  avg # of iterations =  1.0

     total cpu time spent up to now is      139.6 secs

     total energy              =     -15.82334987 Ry
     estimated scf accuracy    <       0.00001356 Ry

     iteration # 16     ecut=    50.00 Ry     beta= 0.01
     Davidson diagonalization with overlap
     ethr =  7.75E-08,  avg # of iterations =  6.9

     total cpu time spent up to now is      148.9 secs

     total energy              =     -15.82336380 Ry
     estimated scf accuracy    <       0.00002351 Ry

     iteration # 17     ecut=    50.00 Ry     beta= 0.01
     Davidson diagonalization with overlap
     ethr =  7.75E-08,  avg # of iterations =  1.0

     total cpu time spent up to now is      153.1 secs

     total energy              =     -15.82336883 Ry
     estimated scf accuracy    <       0.00003011 Ry

     iteration # 18     ecut=    50.00 Ry     beta= 0.01
     Davidson diagonalization with overlap
     ethr =  7.75E-08,  avg # of iterations =  1.0

     total cpu time spent up to now is      157.1 secs

     total energy              =     -15.82330070 Ry
     estimated scf accuracy    <       0.00002648 Ry

     iteration # 19     ecut=    50.00 Ry     beta= 0.01
     Davidson diagonalization with overlap
     ethr =  7.75E-08,  avg # of iterations =  8.0

     total cpu time spent up to now is      167.1 secs

     total energy              =     -15.82330409 Ry
     estimated scf accuracy    <       0.00000905 Ry

     iteration # 20     ecut=    50.00 Ry     beta= 0.01
     Davidson diagonalization with overlap
     ethr =  7.75E-08,  avg # of iterations =  4.3

     total cpu time spent up to now is      172.2 secs

     total energy              =     -15.82331995 Ry
     estimated scf accuracy    <       0.00001734 Ry

     iteration # 21     ecut=    50.00 Ry     beta= 0.01
     Davidson diagonalization with overlap
     ethr =  7.75E-08,  avg # of iterations =  1.3

     total cpu time spent up to now is      175.5 secs

     total energy              =     -15.82334135 Ry
     estimated scf accuracy    <       0.00002195 Ry

     iteration # 22     ecut=    50.00 Ry     beta= 0.01
     Davidson diagonalization with overlap
     ethr =  7.75E-08,  avg # of iterations =  3.2

     total cpu time spent up to now is      179.7 secs

     total energy              =     -15.82334258 Ry
     estimated scf accuracy    <       0.00000566 Ry

     iteration # 23     ecut=    50.00 Ry     beta= 0.01
     Davidson diagonalization with overlap
     ethr =  7.08E-08,  avg # of iterations =  1.1

     total cpu time spent up to now is      182.9 secs

     total energy              =     -15.82333019 Ry
     estimated scf accuracy    <       0.00000908 Ry

     iteration # 24     ecut=    50.00 Ry     beta= 0.01
     Davidson diagonalization with overlap
     ethr =  7.08E-08,  avg # of iterations =  1.0

     total cpu time spent up to now is      185.8 secs

     total energy              =     -15.82332964 Ry
     estimated scf accuracy    <       0.00001487 Ry

     iteration # 25     ecut=    50.00 Ry     beta= 0.01
     Davidson diagonalization with overlap
     ethr =  7.08E-08,  avg # of iterations =  1.0

     total cpu time spent up to now is      188.8 secs

     total energy              =     -15.82334293 Ry
     estimated scf accuracy    <       0.00001582 Ry

     iteration # 26     ecut=    50.00 Ry     beta= 0.01
     Davidson diagonalization with overlap
     ethr =  7.08E-08,  avg # of iterations =  1.1

     total cpu time spent up to now is      192.1 secs

     total energy              =     -15.82333543 Ry
     estimated scf accuracy    <       0.00002041 Ry

     iteration # 27     ecut=    50.00 Ry     beta= 0.01
     Davidson diagonalization with overlap
     ethr =  7.08E-08,  avg # of iterations =  1.0

     total cpu time spent up to now is      195.2 secs

     total energy              =     -15.82335181 Ry
     estimated scf accuracy    <       0.00000667 Ry

     iteration # 28     ecut=    50.00 Ry     beta= 0.01
     Davidson diagonalization with overlap
     ethr =  7.08E-08,  avg # of iterations =  3.0

     total cpu time spent up to now is      199.9 secs

     total energy              =     -15.82336019 Ry
     estimated scf accuracy    <       0.00000638 Ry

     iteration # 29     ecut=    50.00 Ry     beta= 0.01
     Davidson diagonalization with overlap
     ethr =  7.08E-08,  avg # of iterations =  7.4

     total cpu time spent up to now is      207.5 secs

     total energy              =     -15.82336084 Ry
     estimated scf accuracy    <       0.00001970 Ry

     iteration # 30     ecut=    50.00 Ry     beta= 0.01
     Davidson diagonalization with overlap
     ethr =  7.08E-08,  avg # of iterations =  3.1

     total cpu time spent up to now is      211.3 secs

     End of self-consistent calculation

          k = 0.0000 0.0000 0.0000 (  1989 PWs)   bands (ev):

    -7.7693   4.1179   4.5212   4.5212

          k =-0.1000 0.1000-0.1000 (  2028 PWs)   bands (ev):

    -7.6561   2.5427   4.3257   4.3257

          k =-0.2000 0.2000-0.2000 (  2012 PWs)   bands (ev):

    -7.3240   0.7364   3.9355   3.9355

          k =-0.3000 0.3000-0.3000 (  2012 PWs)   bands (ev):

    -6.8049  -0.9029   3.5789   3.5789

          k =-0.4000 0.4000-0.4000 (  2033 PWs)   bands (ev):

    -6.2060  -2.1939   3.3463   3.3463

          k = 0.5000-0.5000 0.5000 (  2036 PWs)   bands (ev):

    -5.8787  -2.7546   3.2666   3.2666

          k = 0.0000 0.2000 0.0000 (  2025 PWs)   bands (ev):

    -7.6179   2.4352   3.9873   3.9873

          k =-0.1000 0.3000-0.1000 (  2015 PWs)   bands (ev):

    -7.3570   1.0858   3.5596   3.5760

          k =-0.2000 0.4000-0.2000 (  2013 PWs)   bands (ev):

    -6.8941  -0.4784   3.0855   3.2252

          k =-0.3000 0.5000-0.3000 (  2018 PWs)   bands (ev):

    -6.2989  -1.8522   2.6620   3.0520

          k = 0.6000-0.4000 0.6000 (  2013 PWs)   bands (ev):

    -5.8165  -2.6998   2.3904   3.0579

          k = 0.5000-0.3000 0.5000 (  2013 PWs)   bands (ev):

    -5.9367  -2.5043   2.3040   3.2362

          k = 0.4000-0.2000 0.4000 (  2018 PWs)   bands (ev):

    -6.5061  -1.4267   2.4248   3.5597

          k = 0.3000-0.1000 0.3000 (  2010 PWs)   bands (ev):

    -7.0705   0.0244   2.7821   3.9661

          k = 0.2000 0.0000 0.2000 (  2019 PWs)   bands (ev):

    -7.4692   1.5102   3.4474   4.3068

          k = 0.0000 0.4000 0.0000 (  2009 PWs)   bands (ev):

    -7.1670   0.6246   3.1083   3.1083

          k =-0.1000 0.5000-0.1000 (  2015 PWs)   bands (ev):

    -6.7664  -0.4740   2.5636   2.7600

          k =-0.2000 0.6000-0.2000 (  2009 PWs)   bands (ev):

    -6.1990  -1.6871   1.9223   2.5860

          k = 0.7000-0.3000 0.7000 (  2019 PWs)   bands (ev):

    -5.6228  -2.6474   1.4317   2.6079

          k = 0.6000-0.2000 0.6000 (  2013 PWs)   bands (ev):

    -5.5174  -2.7998   1.1859   2.8200

          k = 0.5000-0.1000 0.5000 (  2018 PWs)   bands (ev):

    -6.0217  -2.0153   1.2500   3.1890

          k = 0.4000 0.0000 0.4000 (  2013 PWs)   bands (ev):

    -6.6155  -0.9316   1.7409   3.6324

          k = 0.0000 0.6000 0.0000 (  2028 PWs)   bands (ev):

    -6.4268  -1.1007   2.3810   2.3810

          k =-0.1000 0.7000-0.1000 (  2028 PWs)   bands (ev):

    -5.9012  -2.0118   1.8332   2.1739

          k = 0.8000-0.2000 0.8000 (  2018 PWs)   bands (ev):

    -5.2837  -2.8807   1.1275   2.1681

          k = 0.7000-0.1000 0.7000 (  2019 PWs)   bands (ev):

    -4.9835  -3.2417   0.6661   2.3632

          k = 0.6000-0.0000 0.6000 (  2011 PWs)   bands (ev):

    -5.4206  -2.7211   0.6539   2.7298

          k = 0.0000 0.8000 0.0000 (  2020 PWs)   bands (ev):

    -5.4162  -2.7106   1.9219   1.9219

          k = 0.9000-0.1000 0.9000 (  2034 PWs)   bands (ev):

    -4.7921  -3.4679   1.4600   1.8700

          k = 0.8000 0.0000 0.8000 (  2043 PWs)   bands (ev):

    -4.4518  -3.8029   0.8510   2.0243

          k = 0.0000-1.0000 0.0000 (  2044 PWs)   bands (ev):

    -4.1643  -4.1643   1.7660   1.7660

          k =-0.2000 0.4000 0.0000 (  2012 PWs)   bands (ev):

    -7.0273   0.0840   2.5772   3.4928

          k =-0.3000 0.5000-0.1000 (  2019 PWs)   bands (ev):

    -6.5099  -1.1636   1.9438   3.1571

          k = 0.6000-0.4000 0.8000 (  2022 PWs)   bands (ev):

    -5.9055  -2.2982   1.6251   2.8546

          k = 0.5000-0.3000 0.7000 (  2018 PWs)   bands (ev):

    -5.5668  -2.8261   1.5297   2.7393

          k =-0.2000 0.6000 0.0000 (  2024 PWs)   bands (ev):

    -6.3056  -1.3707   1.8905   2.5145

          k = 0.7000-0.3000 0.9000 (  2021 PWs)   bands (ev):

    -5.7050  -2.3401   1.3087   2.2435

          k = 0.6000-0.2000 0.8000 (  2022 PWs)   bands (ev):

    -5.2026  -3.0258   0.9263   2.1950

          k = 0.5000-0.1000 0.7000 (  2022 PWs)   bands (ev):

    -5.3625  -2.8175   0.8291   2.4001

          k = 0.4000 0.0000 0.6000 (  2009 PWs)   bands (ev):

    -5.9555  -1.9982   1.1327   2.7822

          k = 0.8000-0.2000 1.0000 (  2020 PWs)   bands (ev):

    -5.3294  -2.7976   1.5097   1.8157

          k = 0.7000-0.1000 0.9000 (  2023 PWs)   bands (ev):

    -4.7265  -3.4874   0.9614   1.7339

          k = 0.6000 0.0000 0.8000 (  2024 PWs)   bands (ev):

    -4.7755  -3.4228   0.6261   1.9715

          k =-0.2000-1.0000 0.0000 (  2028 PWs)   bands (ev):

    -4.1402  -4.1402   1.4782   1.4782

          k = 0.6000-0.2000 1.0000 (  2016 PWs)   bands (ev):

    -5.0933  -3.0542   0.8977   1.7737

          k = 0.5000-0.1000 0.9000 (  2016 PWs)   bands (ev):

    -4.6824  -3.5041   0.7770   1.5625

          k =-0.4000-1.0000 0.0000 (  2012 PWs)   bands (ev):

    -4.0998  -4.0998   1.1051   1.1051

     highest occupied level (ev):     4.5212

!    total energy              =     -15.82336259 Ry
     estimated scf accuracy    <       0.00000034 Ry

     The total energy is the sum of the following terms:
     one-electron contribution =       3.03876496 Ry
     hartree contribution      =       1.29924897 Ry
     xc contribution           =      -4.57503306 Ry
     ewald contribution        =     -15.58634346 Ry

     convergence has been achieved in  30 iterations
     Writing meta-gga kinetic term

     Writing all to output data dir ./input_pw/Ge/6/pwscf.save/
     Writing meta-gga kinetic term
 
     init_run     :      4.52s CPU      9.41s WALL (       1 calls)
     electrons    :    131.38s CPU    201.82s WALL (       1 calls)

     Called by init_run:
     wfcinit      :      4.40s CPU      9.10s WALL (       1 calls)
     potinit      :      0.04s CPU      0.10s WALL (       1 calls)
     hinit0       :      0.07s CPU      0.17s WALL (       1 calls)

     Called by electrons:
     c_bands      :    110.79s CPU    171.55s WALL (      31 calls)
     sum_band     :     18.26s CPU     26.94s WALL (      31 calls)
     v_of_rho     :      1.10s CPU      1.62s WALL (      31 calls)
     mix_rho      :      1.21s CPU      1.74s WALL (      31 calls)

     Called by c_bands:
     init_us_2    :      0.87s CPU      1.40s WALL (    2961 calls)
     init_us_2:cp :      0.86s CPU      1.39s WALL (    2961 calls)
     cegterg      :    109.70s CPU    169.76s WALL (    1457 calls)

     Called by *egterg:
     cdiaghg      :      0.57s CPU      0.84s WALL (    6054 calls)
     h_psi        :    111.08s CPU    174.36s WALL (    6148 calls)
     g_psi        :      0.11s CPU      0.19s WALL (    4644 calls)

     Called by h_psi:
     h_psi:calbec :      0.68s CPU      1.03s WALL (    6148 calls)
     vloc_psi     :     27.87s CPU     44.20s WALL (    6148 calls)
     add_vuspsi   :      0.47s CPU      0.76s WALL (    6148 calls)
     h_psi_meta   :     81.85s CPU    128.09s WALL (    6148 calls)

     General routines
     calbec       :      0.65s CPU      1.01s WALL (    6148 calls)
     fft          :      0.23s CPU      0.33s WALL (     371 calls)
     ffts         :      0.34s CPU      0.51s WALL (     551 calls)
     fftw         :    103.58s CPU    162.24s WALL (  186832 calls)
     interpolate  :      0.00s CPU      0.00s WALL (      31 calls)
 
     Parallel routines
 
     PWSCF        :   2m15.96s CPU   3m31.34s WALL

 
   This run was terminated on:  11:49:21  29Mar2023            

=------------------------------------------------------------------------------=
   JOB DONE.
=------------------------------------------------------------------------------=
