
     Program PWSCF v.7.0 starts on 14Mar2023 at 11:36:59 

     This program is part of the open-source Quantum ESPRESSO suite
     for quantum simulation of materials; please cite
         "P. Giannozzi et al., J. Phys.:Condens. Matter 21 395502 (2009);
         "P. Giannozzi et al., J. Phys.:Condens. Matter 29 465901 (2017);
         "P. Giannozzi et al., J. Chem. Phys. 152 154105 (2020);
          URL http://www.quantum-espresso.org", 
     in publications or presentations arising from this work. More details at
     http://www.quantum-espresso.org/quote

     Parallel version (MPI), running on     1 processors

     MPI processes distributed on     1 nodes
     27387 MiB available memory on the printing compute node when the environment starts
 
     Waiting for input...
     Reading input from standard input
Warning: card &CELL ignored
Warning: card / ignored

     Current dimensions of program PWSCF are:
     Max number of different atomic species (ntypx) = 10
     Max number of k-points (npk) =  40000
     Max angular momentum in pseudopotentials (lmaxx) =  4
     file Ge.SCAN.UPF2: wavefunction(s)  0D renormalized

     WARNING: the MGGA functional with ID    5 has been 
     read together with other dft terms, but it should 
     stand alone in order to work properly. The other 
     terms will be ignored.

     Subspace diagonalization in iterative solution of the eigenvalue problem:
     a serial algorithm will be used

 
     G-vector sticks info
     --------------------
     sticks:   dense  smooth     PW     G-vecs:    dense   smooth      PW
     Sum         859     859    253                16625    16625    2741
 
     Using Slab Decomposition
 


     bravais-lattice index     =            2
     lattice parameter (alat)  =      11.1928  a.u.
     unit-cell volume          =     350.5551 (a.u.)^3
     number of atoms/cell      =            2
     number of atomic types    =            1
     number of electrons       =         8.00
     number of Kohn-Sham states=            4
     kinetic-energy cutoff     =      50.0000  Ry
     charge density cutoff     =     200.0000  Ry
     scf convergence threshold =      1.0E-06
     mixing beta               =       0.0100
     number of iterations used =            8  local-TF  mixing
     Exchange-correlation= SLA  PW  SCAN SCAN
                           (   0   0   0   0   0 263 267)

     celldm(1)=  11.192800  celldm(2)=   0.000000  celldm(3)=   0.000000
     celldm(4)=   0.000000  celldm(5)=   0.000000  celldm(6)=   0.000000

     crystal axes: (cart. coord. in units of alat)
               a(1) = (  -0.500000   0.000000   0.500000 )  
               a(2) = (   0.000000   0.500000   0.500000 )  
               a(3) = (  -0.500000   0.500000   0.000000 )  

     reciprocal axes: (cart. coord. in units 2 pi/alat)
               b(1) = ( -1.000000 -1.000000  1.000000 )  
               b(2) = (  1.000000  1.000000  1.000000 )  
               b(3) = ( -1.000000  1.000000 -1.000000 )  


     PseudoPot. # 1 for Ge read from file:
     ~/Documents/TA/PWDFT.jl/pseudopotentials/scan_upf/Ge.SCAN.UPF2
     MD5 check sum: Not computed, couldn't open file
     Pseudo is Norm-conserving, Zval =  4.0
     Generated by new atomic code, or converted to UPF format
     Using radial grid of 1557 points,  2 beta functions with: 
                l(1) =   0
                l(2) =   1

     atomic species   valence    mass     pseudopotential
        Ge             4.00    72.64000     Ge( 1.00)

     48 Sym. Ops., with inversion, found (24 have fractional translation)



   Cartesian axes

     site n.     atom                  positions (alat units)
         1           Ge  tau(   1) = (   0.0000000   0.0000000   0.0000000  )
         2           Ge  tau(   2) = (   0.2500000   0.2500000   0.2500000  )

     number of k points=    47
                       cart. coord. in units 2pi/alat
        k(    1) = (   0.0000000   0.0000000   0.0000000), wk =   0.0020000
        k(    2) = (  -0.1000000   0.1000000  -0.1000000), wk =   0.0160000
        k(    3) = (  -0.2000000   0.2000000  -0.2000000), wk =   0.0160000
        k(    4) = (  -0.3000000   0.3000000  -0.3000000), wk =   0.0160000
        k(    5) = (  -0.4000000   0.4000000  -0.4000000), wk =   0.0160000
        k(    6) = (   0.5000000  -0.5000000   0.5000000), wk =   0.0080000
        k(    7) = (   0.0000000   0.2000000   0.0000000), wk =   0.0120000
        k(    8) = (  -0.1000000   0.3000000  -0.1000000), wk =   0.0480000
        k(    9) = (  -0.2000000   0.4000000  -0.2000000), wk =   0.0480000
        k(   10) = (  -0.3000000   0.5000000  -0.3000000), wk =   0.0480000
        k(   11) = (   0.6000000  -0.4000000   0.6000000), wk =   0.0480000
        k(   12) = (   0.5000000  -0.3000000   0.5000000), wk =   0.0480000
        k(   13) = (   0.4000000  -0.2000000   0.4000000), wk =   0.0480000
        k(   14) = (   0.3000000  -0.1000000   0.3000000), wk =   0.0480000
        k(   15) = (   0.2000000   0.0000000   0.2000000), wk =   0.0240000
        k(   16) = (   0.0000000   0.4000000   0.0000000), wk =   0.0120000
        k(   17) = (  -0.1000000   0.5000000  -0.1000000), wk =   0.0480000
        k(   18) = (  -0.2000000   0.6000000  -0.2000000), wk =   0.0480000
        k(   19) = (   0.7000000  -0.3000000   0.7000000), wk =   0.0480000
        k(   20) = (   0.6000000  -0.2000000   0.6000000), wk =   0.0480000
        k(   21) = (   0.5000000  -0.1000000   0.5000000), wk =   0.0480000
        k(   22) = (   0.4000000   0.0000000   0.4000000), wk =   0.0240000
        k(   23) = (   0.0000000   0.6000000   0.0000000), wk =   0.0120000
        k(   24) = (  -0.1000000   0.7000000  -0.1000000), wk =   0.0480000
        k(   25) = (   0.8000000  -0.2000000   0.8000000), wk =   0.0480000
        k(   26) = (   0.7000000  -0.1000000   0.7000000), wk =   0.0480000
        k(   27) = (   0.6000000  -0.0000000   0.6000000), wk =   0.0240000
        k(   28) = (   0.0000000   0.8000000   0.0000000), wk =   0.0120000
        k(   29) = (   0.9000000  -0.1000000   0.9000000), wk =   0.0480000
        k(   30) = (   0.8000000   0.0000000   0.8000000), wk =   0.0240000
        k(   31) = (   0.0000000  -1.0000000   0.0000000), wk =   0.0060000
        k(   32) = (  -0.2000000   0.4000000   0.0000000), wk =   0.0480000
        k(   33) = (  -0.3000000   0.5000000  -0.1000000), wk =   0.0960000
        k(   34) = (   0.6000000  -0.4000000   0.8000000), wk =   0.0960000
        k(   35) = (   0.5000000  -0.3000000   0.7000000), wk =   0.0480000
        k(   36) = (  -0.2000000   0.6000000   0.0000000), wk =   0.0480000
        k(   37) = (   0.7000000  -0.3000000   0.9000000), wk =   0.0960000
        k(   38) = (   0.6000000  -0.2000000   0.8000000), wk =   0.0960000
        k(   39) = (   0.5000000  -0.1000000   0.7000000), wk =   0.0960000
        k(   40) = (   0.4000000   0.0000000   0.6000000), wk =   0.0480000
        k(   41) = (   0.8000000  -0.2000000   1.0000000), wk =   0.0480000
        k(   42) = (   0.7000000  -0.1000000   0.9000000), wk =   0.0960000
        k(   43) = (   0.6000000   0.0000000   0.8000000), wk =   0.0480000
        k(   44) = (  -0.2000000  -1.0000000   0.0000000), wk =   0.0240000
        k(   45) = (   0.6000000  -0.2000000   1.0000000), wk =   0.0480000
        k(   46) = (   0.5000000  -0.1000000   0.9000000), wk =   0.0480000
        k(   47) = (  -0.4000000  -1.0000000   0.0000000), wk =   0.0240000

     Dense  grid:    16625 G-vectors     FFT dimensions: (  36,  36,  36)

     Estimated max dynamical RAM per process >      30.66 MB

     WARNING: libxc functional with ID  263 depends
      on external parameters: check the user_guide of
      QE if you need to modify them or to check their
      default values.

     Initial potential from superposition of free atoms

     starting charge       7.9987, renormalised to       8.0000
     Starting wfcs are   18 randomized atomic wfcs

     total cpu time spent up to now is        9.3 secs

     Self-consistent Calculation

     iteration #  1     ecut=    50.00 Ry     beta= 0.01
     Davidson diagonalization with overlap
     ethr =  1.00E-02,  avg # of iterations =  1.9

     Threshold (ethr) on eigenvalues was too large:
     Diagonalizing with lowered threshold

     Davidson diagonalization with overlap
     ethr =  3.15E-04,  avg # of iterations =  5.7

     total cpu time spent up to now is       26.2 secs

     total energy              =     -15.74623583 Ry
     estimated scf accuracy    <       0.03147616 Ry

     iteration #  2     ecut=    50.00 Ry     beta= 0.01
     Davidson diagonalization with overlap
     ethr =  3.93E-04,  avg # of iterations =  1.0

     total cpu time spent up to now is       31.0 secs

     total energy              =     -15.74693392 Ry
     estimated scf accuracy    <       0.03151865 Ry

     iteration #  3     ecut=    50.00 Ry     beta= 0.01
     Davidson diagonalization with overlap
     ethr =  3.93E-04,  avg # of iterations =  1.0

     total cpu time spent up to now is       36.1 secs

     total energy              =     -15.81350652 Ry
     estimated scf accuracy    <       0.03395914 Ry

     iteration #  4     ecut=    50.00 Ry     beta= 0.01
     Davidson diagonalization with overlap
     ethr =  3.93E-04,  avg # of iterations =  1.4

     total cpu time spent up to now is       41.3 secs

     total energy              =     -15.81537279 Ry
     estimated scf accuracy    <       0.00323566 Ry

     iteration #  5     ecut=    50.00 Ry     beta= 0.01
     Davidson diagonalization with overlap
     ethr =  4.04E-05,  avg # of iterations =  6.1

     total cpu time spent up to now is       51.8 secs

     total energy              =     -15.81800991 Ry
     estimated scf accuracy    <       0.00375697 Ry

     iteration #  6     ecut=    50.00 Ry     beta= 0.01
     Davidson diagonalization with overlap
     ethr =  4.04E-05,  avg # of iterations =  1.2

     total cpu time spent up to now is       55.8 secs

     total energy              =     -15.81714910 Ry
     estimated scf accuracy    <       0.00406487 Ry

     iteration #  7     ecut=    50.00 Ry     beta= 0.01
     Davidson diagonalization with overlap
     ethr =  4.04E-05,  avg # of iterations =  1.7

     total cpu time spent up to now is       61.4 secs

     total energy              =     -15.81745030 Ry
     estimated scf accuracy    <       0.00021225 Ry

     iteration #  8     ecut=    50.00 Ry     beta= 0.01
     Davidson diagonalization with overlap
     ethr =  2.65E-06,  avg # of iterations = 11.3

     total cpu time spent up to now is       76.1 secs

     total energy              =     -15.81810325 Ry
     estimated scf accuracy    <       0.00015497 Ry

     iteration #  9     ecut=    50.00 Ry     beta= 0.01
     Davidson diagonalization with overlap
     ethr =  1.94E-06,  avg # of iterations =  2.1

     total cpu time spent up to now is       80.1 secs

     total energy              =     -15.81812571 Ry
     estimated scf accuracy    <       0.00022057 Ry

     iteration # 10     ecut=    50.00 Ry     beta= 0.01
     Davidson diagonalization with overlap
     ethr =  1.94E-06,  avg # of iterations =  1.0

     total cpu time spent up to now is       83.8 secs

     total energy              =     -15.81805432 Ry
     estimated scf accuracy    <       0.00021806 Ry

     iteration # 11     ecut=    50.00 Ry     beta= 0.01
     Davidson diagonalization with overlap
     ethr =  1.94E-06,  avg # of iterations =  5.4

     total cpu time spent up to now is       91.8 secs

     total energy              =     -15.81816279 Ry
     estimated scf accuracy    <       0.00004183 Ry

     iteration # 12     ecut=    50.00 Ry     beta= 0.01
     Davidson diagonalization with overlap
     ethr =  5.23E-07,  avg # of iterations =  5.3

     total cpu time spent up to now is       98.2 secs

     total energy              =     -15.81818860 Ry
     estimated scf accuracy    <       0.00003369 Ry

     iteration # 13     ecut=    50.00 Ry     beta= 0.01
     Davidson diagonalization with overlap
     ethr =  4.21E-07,  avg # of iterations =  1.4

     total cpu time spent up to now is      101.9 secs

     total energy              =     -15.81819203 Ry
     estimated scf accuracy    <       0.00003358 Ry

     iteration # 14     ecut=    50.00 Ry     beta= 0.01
     Davidson diagonalization with overlap
     ethr =  4.20E-07,  avg # of iterations =  1.0

     total cpu time spent up to now is      105.5 secs

     total energy              =     -15.81819336 Ry
     estimated scf accuracy    <       0.00003359 Ry

     iteration # 15     ecut=    50.00 Ry     beta= 0.01
     Davidson diagonalization with overlap
     ethr =  4.20E-07,  avg # of iterations =  1.0

     total cpu time spent up to now is      109.0 secs

     total energy              =     -15.81820144 Ry
     estimated scf accuracy    <       0.00001484 Ry

     iteration # 16     ecut=    50.00 Ry     beta= 0.01
     Davidson diagonalization with overlap
     ethr =  1.85E-07,  avg # of iterations =  1.7

     total cpu time spent up to now is      112.6 secs

     total energy              =     -15.81819872 Ry
     estimated scf accuracy    <       0.00001290 Ry

     iteration # 17     ecut=    50.00 Ry     beta= 0.01
     Davidson diagonalization with overlap
     ethr =  1.61E-07,  avg # of iterations =  1.2

     total cpu time spent up to now is      116.1 secs

     total energy              =     -15.81819384 Ry
     estimated scf accuracy    <       0.00000928 Ry

     iteration # 18     ecut=    50.00 Ry     beta= 0.01
     Davidson diagonalization with overlap
     ethr =  1.16E-07,  avg # of iterations =  6.6

     total cpu time spent up to now is      124.6 secs

     total energy              =     -15.81820966 Ry
     estimated scf accuracy    <       0.00000176 Ry

     iteration # 19     ecut=    50.00 Ry     beta= 0.01
     Davidson diagonalization with overlap
     ethr =  2.20E-08,  avg # of iterations =  4.8

     total cpu time spent up to now is      130.1 secs

     End of self-consistent calculation

          k = 0.0000 0.0000 0.0000 (  2085 PWs)   bands (ev):

    -7.8666   3.4512   4.2051   4.2052

          k =-0.1000 0.1000-0.1000 (  2085 PWs)   bands (ev):

    -7.7571   2.1008   4.0181   4.0181

          k =-0.2000 0.2000-0.2000 (  2088 PWs)   bands (ev):

    -7.4364   0.3852   3.6425   3.6425

          k =-0.3000 0.3000-0.3000 (  2081 PWs)   bands (ev):

    -6.9361  -1.1860   3.2975   3.2975

          k =-0.4000 0.4000-0.4000 (  2078 PWs)   bands (ev):

    -6.3623  -2.4239   3.0719   3.0719

          k = 0.5000-0.5000 0.5000 (  2060 PWs)   bands (ev):

    -6.0516  -2.9589   2.9945   2.9945

          k = 0.0000 0.2000 0.0000 (  2085 PWs)   bands (ev):

    -7.7202   1.9745   3.6958   3.6958

          k =-0.1000 0.3000-0.1000 (  2083 PWs)   bands (ev):

    -7.4680   0.6992   3.2841   3.2879

          k =-0.2000 0.4000-0.2000 (  2087 PWs)   bands (ev):

    -7.0215  -0.7917   2.8049   2.9603

          k =-0.3000 0.5000-0.3000 (  2089 PWs)   bands (ev):

    -6.4498  -2.1066   2.3914   2.7913

          k = 0.6000-0.4000 0.6000 (  2092 PWs)   bands (ev):

    -5.9902  -2.9156   2.1290   2.7953

          k = 0.5000-0.3000 0.5000 (  2088 PWs)   bands (ev):

    -6.1043  -2.7294   2.0493   2.9661

          k = 0.4000-0.2000 0.4000 (  2080 PWs)   bands (ev):

    -6.6485  -1.6992   2.1736   3.2774

          k = 0.3000-0.1000 0.3000 (  2085 PWs)   bands (ev):

    -7.1916  -0.3108   2.5295   3.6687

          k = 0.2000 0.0000 0.2000 (  2095 PWs)   bands (ev):

    -7.5765   1.1093   3.1784   3.9971

          k = 0.0000 0.4000 0.0000 (  2073 PWs)   bands (ev):

    -7.2842   0.2348   2.8501   2.8501

          k =-0.1000 0.5000-0.1000 (  2074 PWs)   bands (ev):

    -6.8974  -0.8167   2.3202   2.5134

          k =-0.2000 0.6000-0.2000 (  2088 PWs)   bands (ev):

    -6.3512  -1.9759   1.6955   2.3442

          k = 0.7000-0.3000 0.7000 (  2090 PWs)   bands (ev):

    -5.8001  -2.8917   1.2192   2.3640

          k = 0.6000-0.2000 0.6000 (  2092 PWs)   bands (ev):

    -5.7005  -3.0360   0.9846   2.5673

          k = 0.5000-0.1000 0.5000 (  2095 PWs)   bands (ev):

    -6.1821  -2.2878   1.0544   2.9218

          k = 0.4000 0.0000 0.4000 (  2095 PWs)   bands (ev):

    -6.7530  -1.2460   1.5339   3.3478

          k = 0.0000 0.6000 0.0000 (  2072 PWs)   bands (ev):

    -6.5691  -1.4296   2.1477   2.1477

          k =-0.1000 0.7000-0.1000 (  2093 PWs)   bands (ev):

    -6.0621  -2.3070   1.6210   1.9471

          k = 0.8000-0.2000 0.8000 (  2103 PWs)   bands (ev):

    -5.4691  -3.1417   0.9434   1.9407

          k = 0.7000-0.1000 0.7000 (  2100 PWs)   bands (ev):

    -5.1847  -3.4850   0.5014   2.1281

          k = 0.6000-0.0000 0.6000 (  2097 PWs)   bands (ev):

    -5.6043  -2.9819   0.4901   2.4808

          k = 0.0000 0.8000 0.0000 (  2092 PWs)   bands (ev):

    -5.5932  -2.9828   1.7037   1.7037

          k = 0.9000-0.1000 0.9000 (  2097 PWs)   bands (ev):

    -4.9919  -3.7137   1.2628   1.6532

          k = 0.8000 0.0000 0.8000 (  2097 PWs)   bands (ev):

    -4.6696  -4.0335   0.6820   1.8018

          k = 0.0000-1.0000 0.0000 (  2100 PWs)   bands (ev):

    -4.3851  -4.3851   1.5529   1.5529

          k =-0.2000 0.4000 0.0000 (  2085 PWs)   bands (ev):

    -7.1496  -0.2708   2.3399   3.2111

          k =-0.3000 0.5000-0.1000 (  2086 PWs)   bands (ev):

    -6.6510  -1.4669   1.7217   2.8899

          k = 0.6000-0.4000 0.8000 (  2079 PWs)   bands (ev):

    -6.0714  -2.5507   1.4037   2.6013

          k = 0.5000-0.3000 0.7000 (  2092 PWs)   bands (ev):

    -5.7493  -3.0529   1.3073   2.4915

          k =-0.2000 0.6000 0.0000 (  2090 PWs)   bands (ev):

    -6.4528  -1.6845   1.6770   2.2753

          k = 0.7000-0.3000 0.9000 (  2092 PWs)   bands (ev):

    -5.8752  -2.6168   1.1144   2.0166

          k = 0.6000-0.2000 0.8000 (  2101 PWs)   bands (ev):

    -5.3955  -3.2717   0.7445   1.9704

          k = 0.5000-0.1000 0.7000 (  2092 PWs)   bands (ev):

    -5.5487  -3.0721   0.6537   2.1666

          k = 0.4000 0.0000 0.6000 (  2093 PWs)   bands (ev):

    -6.1173  -2.2835   0.9486   2.5322

          k = 0.8000-0.2000 1.0000 (  2093 PWs)   bands (ev):

    -5.5109  -3.0668   1.3099   1.6057

          k = 0.7000-0.1000 0.9000 (  2110 PWs)   bands (ev):

    -4.9325  -3.7322   0.7869   1.5269

          k = 0.6000 0.0000 0.8000 (  2109 PWs)   bands (ev):

    -4.9833  -3.6662   0.4662   1.7551

          k =-0.2000-1.0000 0.0000 (  2108 PWs)   bands (ev):

    -4.3636  -4.3636   1.2805   1.2805

          k = 0.6000-0.2000 1.0000 (  2107 PWs)   bands (ev):

    -5.2868  -3.3130   0.7247   1.5680

          k = 0.5000-0.1000 0.9000 (  2108 PWs)   bands (ev):

    -4.8928  -3.7473   0.6099   1.3658

          k =-0.4000-1.0000 0.0000 (  2106 PWs)   bands (ev):

    -4.3277  -4.3277   0.9265   0.9265

     highest occupied level (ev):     4.2052

!    total energy              =     -15.81821266 Ry
     estimated scf accuracy    <       0.00000042 Ry

     The total energy is the sum of the following terms:
     one-electron contribution =       2.78958398 Ry
     hartree contribution      =       1.33521952 Ry
     xc contribution           =      -4.54226409 Ry
     ewald contribution        =     -15.40075207 Ry

     convergence has been achieved in  19 iterations
     Writing meta-gga kinetic term

     Writing all to output data dir ./input_pw/Ge/6/pwscf.save/
     Writing meta-gga kinetic term
 
     init_run     :      4.40s CPU      9.22s WALL (       1 calls)
     electrons    :     78.85s CPU    120.87s WALL (       1 calls)

     Called by init_run:
     wfcinit      :      4.27s CPU      8.70s WALL (       1 calls)
     potinit      :      0.04s CPU      0.11s WALL (       1 calls)
     hinit0       :      0.07s CPU      0.31s WALL (       1 calls)

     Called by electrons:
     c_bands      :     66.41s CPU    102.75s WALL (      20 calls)
     sum_band     :     11.13s CPU     16.22s WALL (      20 calls)
     v_of_rho     :      0.67s CPU      1.00s WALL (      20 calls)
     mix_rho      :      0.64s CPU      0.92s WALL (      20 calls)

     Called by c_bands:
     init_us_2    :      0.55s CPU      0.86s WALL (    1927 calls)
     init_us_2:cp :      0.54s CPU      0.85s WALL (    1927 calls)
     cegterg      :     65.73s CPU    101.60s WALL (     940 calls)

     Called by *egterg:
     cdiaghg      :      0.32s CPU      0.51s WALL (    3844 calls)
     h_psi        :     68.20s CPU    107.44s WALL (    3938 calls)
     g_psi        :      0.07s CPU      0.12s WALL (    2951 calls)

     Called by h_psi:
     h_psi:calbec :      0.38s CPU      0.52s WALL (    3938 calls)
     vloc_psi     :     16.97s CPU     26.92s WALL (    3938 calls)
     add_vuspsi   :      0.27s CPU      0.42s WALL (    3938 calls)
     h_psi_meta   :     50.46s CPU     79.33s WALL (    3938 calls)

     General routines
     calbec       :      0.37s CPU      0.50s WALL (    3938 calls)
     fft          :      0.14s CPU      0.36s WALL (     239 calls)
     ffts         :      0.20s CPU      0.33s WALL (     342 calls)
     fftw         :     65.15s CPU    102.52s WALL (  121192 calls)
     interpolate  :      0.00s CPU      0.00s WALL (      20 calls)
 
     Parallel routines
 
     PWSCF        :   1m23.29s CPU   2m10.17s WALL

 
   This run was terminated on:  11:39: 9  14Mar2023            

=------------------------------------------------------------------------------=
   JOB DONE.
=------------------------------------------------------------------------------=
