
     Program PWSCF v.7.0 starts on  7Jul2023 at 14:25:48 

     This program is part of the open-source Quantum ESPRESSO suite
     for quantum simulation of materials; please cite
         "P. Giannozzi et al., J. Phys.:Condens. Matter 21 395502 (2009);
         "P. Giannozzi et al., J. Phys.:Condens. Matter 29 465901 (2017);
         "P. Giannozzi et al., J. Chem. Phys. 152 154105 (2020);
          URL http://www.quantum-espresso.org", 
     in publications or presentations arising from this work. More details at
     http://www.quantum-espresso.org/quote

     Parallel version (MPI), running on     1 processors

     MPI processes distributed on     1 nodes
     27538 MiB available memory on the printing compute node when the environment starts
 
     Waiting for input...
     Reading input from standard input
Warning: card &CELL ignored
Warning: card / ignored

     Current dimensions of program PWSCF are:
     Max number of different atomic species (ntypx) = 10
     Max number of k-points (npk) =  40000
     Max angular momentum in pseudopotentials (lmaxx) =  4
     file Ge.SCAN.UPF2: wavefunction(s)  0D renormalized

     WARNING: the MGGA functional with ID    5 has been 
     read together with other dft terms, but it should 
     stand alone in order to work properly. The other 
     terms will be ignored.

     Subspace diagonalization in iterative solution of the eigenvalue problem:
     a serial algorithm will be used

 
     G-vector sticks info
     --------------------
     sticks:   dense  smooth     PW     G-vecs:    dense   smooth      PW
     Sum         847     847    253                16265    16265    2733
 
     Using Slab Decomposition
 


     bravais-lattice index     =            2
     lattice parameter (alat)  =      11.0595  a.u.
     unit-cell volume          =     338.1811 (a.u.)^3
     number of atoms/cell      =            2
     number of atomic types    =            1
     number of electrons       =         8.00
     number of Kohn-Sham states=            4
     kinetic-energy cutoff     =      50.0000  Ry
     charge density cutoff     =     200.0000  Ry
     scf convergence threshold =      2.0E-05
     mixing beta               =       0.2000
     number of iterations used =            8  local-TF  mixing
     Exchange-correlation= SLA  PW  SCAN SCAN
                           (   0   0   0   0   0 263 267)

     celldm(1)=  11.059524  celldm(2)=   0.000000  celldm(3)=   0.000000
     celldm(4)=   0.000000  celldm(5)=   0.000000  celldm(6)=   0.000000

     crystal axes: (cart. coord. in units of alat)
               a(1) = (  -0.500000   0.000000   0.500000 )  
               a(2) = (   0.000000   0.500000   0.500000 )  
               a(3) = (  -0.500000   0.500000   0.000000 )  

     reciprocal axes: (cart. coord. in units 2 pi/alat)
               b(1) = ( -1.000000 -1.000000  1.000000 )  
               b(2) = (  1.000000  1.000000  1.000000 )  
               b(3) = ( -1.000000  1.000000 -1.000000 )  


     PseudoPot. # 1 for Ge read from file:
     ~/Documents/TA/PWDFT.jl/pseudopotentials/scan_upf/Ge.SCAN.UPF2
     MD5 check sum: Not computed, couldn't open file
     Pseudo is Norm-conserving, Zval =  4.0
     Generated by new atomic code, or converted to UPF format
     Using radial grid of 1557 points,  2 beta functions with: 
                l(1) =   0
                l(2) =   1

     atomic species   valence    mass     pseudopotential
        Ge             4.00    72.64000     Ge( 1.00)

     48 Sym. Ops., with inversion, found (24 have fractional translation)



   Cartesian axes

     site n.     atom                  positions (alat units)
         1           Ge  tau(   1) = (   0.0000000   0.0000000   0.0000000  )
         2           Ge  tau(   2) = (   0.2500000   0.2500000   0.2500000  )

     number of k points=    47
                       cart. coord. in units 2pi/alat
        k(    1) = (   0.0000000   0.0000000   0.0000000), wk =   0.0020000
        k(    2) = (  -0.1000000   0.1000000  -0.1000000), wk =   0.0160000
        k(    3) = (  -0.2000000   0.2000000  -0.2000000), wk =   0.0160000
        k(    4) = (  -0.3000000   0.3000000  -0.3000000), wk =   0.0160000
        k(    5) = (  -0.4000000   0.4000000  -0.4000000), wk =   0.0160000
        k(    6) = (   0.5000000  -0.5000000   0.5000000), wk =   0.0080000
        k(    7) = (   0.0000000   0.2000000   0.0000000), wk =   0.0120000
        k(    8) = (  -0.1000000   0.3000000  -0.1000000), wk =   0.0480000
        k(    9) = (  -0.2000000   0.4000000  -0.2000000), wk =   0.0480000
        k(   10) = (  -0.3000000   0.5000000  -0.3000000), wk =   0.0480000
        k(   11) = (   0.6000000  -0.4000000   0.6000000), wk =   0.0480000
        k(   12) = (   0.5000000  -0.3000000   0.5000000), wk =   0.0480000
        k(   13) = (   0.4000000  -0.2000000   0.4000000), wk =   0.0480000
        k(   14) = (   0.3000000  -0.1000000   0.3000000), wk =   0.0480000
        k(   15) = (   0.2000000   0.0000000   0.2000000), wk =   0.0240000
        k(   16) = (   0.0000000   0.4000000   0.0000000), wk =   0.0120000
        k(   17) = (  -0.1000000   0.5000000  -0.1000000), wk =   0.0480000
        k(   18) = (  -0.2000000   0.6000000  -0.2000000), wk =   0.0480000
        k(   19) = (   0.7000000  -0.3000000   0.7000000), wk =   0.0480000
        k(   20) = (   0.6000000  -0.2000000   0.6000000), wk =   0.0480000
        k(   21) = (   0.5000000  -0.1000000   0.5000000), wk =   0.0480000
        k(   22) = (   0.4000000   0.0000000   0.4000000), wk =   0.0240000
        k(   23) = (   0.0000000   0.6000000   0.0000000), wk =   0.0120000
        k(   24) = (  -0.1000000   0.7000000  -0.1000000), wk =   0.0480000
        k(   25) = (   0.8000000  -0.2000000   0.8000000), wk =   0.0480000
        k(   26) = (   0.7000000  -0.1000000   0.7000000), wk =   0.0480000
        k(   27) = (   0.6000000  -0.0000000   0.6000000), wk =   0.0240000
        k(   28) = (   0.0000000   0.8000000   0.0000000), wk =   0.0120000
        k(   29) = (   0.9000000  -0.1000000   0.9000000), wk =   0.0480000
        k(   30) = (   0.8000000   0.0000000   0.8000000), wk =   0.0240000
        k(   31) = (   0.0000000  -1.0000000   0.0000000), wk =   0.0060000
        k(   32) = (  -0.2000000   0.4000000   0.0000000), wk =   0.0480000
        k(   33) = (  -0.3000000   0.5000000  -0.1000000), wk =   0.0960000
        k(   34) = (   0.6000000  -0.4000000   0.8000000), wk =   0.0960000
        k(   35) = (   0.5000000  -0.3000000   0.7000000), wk =   0.0480000
        k(   36) = (  -0.2000000   0.6000000   0.0000000), wk =   0.0480000
        k(   37) = (   0.7000000  -0.3000000   0.9000000), wk =   0.0960000
        k(   38) = (   0.6000000  -0.2000000   0.8000000), wk =   0.0960000
        k(   39) = (   0.5000000  -0.1000000   0.7000000), wk =   0.0960000
        k(   40) = (   0.4000000   0.0000000   0.6000000), wk =   0.0480000
        k(   41) = (   0.8000000  -0.2000000   1.0000000), wk =   0.0480000
        k(   42) = (   0.7000000  -0.1000000   0.9000000), wk =   0.0960000
        k(   43) = (   0.6000000   0.0000000   0.8000000), wk =   0.0480000
        k(   44) = (  -0.2000000  -1.0000000   0.0000000), wk =   0.0240000
        k(   45) = (   0.6000000  -0.2000000   1.0000000), wk =   0.0480000
        k(   46) = (   0.5000000  -0.1000000   0.9000000), wk =   0.0480000
        k(   47) = (  -0.4000000  -1.0000000   0.0000000), wk =   0.0240000

     Dense  grid:    16265 G-vectors     FFT dimensions: (  36,  36,  36)

     Estimated max dynamical RAM per process >      30.03 MB

     WARNING: libxc functional with ID  263 depends
      on external parameters: check the user_guide of
      QE if you need to modify them or to check their
      default values.

     Initial potential from superposition of free atoms

     starting charge       7.9987, renormalised to       8.0000
     Starting wfcs are   18 randomized atomic wfcs

     total cpu time spent up to now is        9.6 secs

     Self-consistent Calculation

     iteration #  1     ecut=    50.00 Ry     beta= 0.20
     Davidson diagonalization with overlap
     ethr =  1.00E-02,  avg # of iterations =  1.9

     Threshold (ethr) on eigenvalues was too large:
     Diagonalizing with lowered threshold

     Davidson diagonalization with overlap
     ethr =  3.30E-04,  avg # of iterations =  5.7

     total cpu time spent up to now is       27.3 secs

     total energy              =     -15.76967962 Ry
     estimated scf accuracy    <       0.03303991 Ry

     iteration #  2     ecut=    50.00 Ry     beta= 0.20
     Davidson diagonalization with overlap
     ethr =  4.13E-04,  avg # of iterations =  1.7

     total cpu time spent up to now is       33.1 secs

     total energy              =     -15.81781677 Ry
     estimated scf accuracy    <       0.02582506 Ry

     iteration #  3     ecut=    50.00 Ry     beta= 0.20
     Davidson diagonalization with overlap
     ethr =  3.23E-04,  avg # of iterations =  1.1

     total cpu time spent up to now is       38.7 secs

     total energy              =     -15.81980950 Ry
     estimated scf accuracy    <       0.00185295 Ry

     iteration #  4     ecut=    50.00 Ry     beta= 0.20
     Davidson diagonalization with overlap
     ethr =  2.32E-05,  avg # of iterations =  8.8

     total cpu time spent up to now is       53.3 secs

     total energy              =     -15.82271890 Ry
     estimated scf accuracy    <       0.00236943 Ry

     iteration #  5     ecut=    50.00 Ry     beta= 0.20
     Davidson diagonalization with overlap
     ethr =  2.32E-05,  avg # of iterations =  2.3

     total cpu time spent up to now is       58.0 secs

     total energy              =     -15.82283730 Ry
     estimated scf accuracy    <       0.00037843 Ry

     iteration #  6     ecut=    50.00 Ry     beta= 0.20
     Davidson diagonalization with overlap
     ethr =  4.73E-06,  avg # of iterations =  6.7

     total cpu time spent up to now is       68.9 secs

     total energy              =     -15.82323930 Ry
     estimated scf accuracy    <       0.00004374 Ry

     iteration #  7     ecut=    50.00 Ry     beta= 0.20
     Davidson diagonalization with overlap
     ethr =  5.47E-07,  avg # of iterations =  8.2

     total cpu time spent up to now is       81.5 secs

     total energy              =     -15.82333559 Ry
     estimated scf accuracy    <       0.00002558 Ry

     iteration #  8     ecut=    50.00 Ry     beta= 0.20
     Davidson diagonalization with overlap
     ethr =  3.20E-07,  avg # of iterations =  5.0

     total cpu time spent up to now is       89.3 secs

     End of self-consistent calculation

          k = 0.0000 0.0000 0.0000 (  1989 PWs)   bands (ev):

    -7.7652   4.1232   4.5292   4.5292

          k =-0.1000 0.1000-0.1000 (  2028 PWs)   bands (ev):

    -7.6520   2.5489   4.3332   4.3332

          k =-0.2000 0.2000-0.2000 (  2012 PWs)   bands (ev):

    -7.3198   0.7421   3.9423   3.9423

          k =-0.3000 0.3000-0.3000 (  2012 PWs)   bands (ev):

    -6.8005  -0.8978   3.5853   3.5853

          k =-0.4000 0.4000-0.4000 (  2033 PWs)   bands (ev):

    -6.2013  -2.1892   3.3525   3.3525

          k = 0.5000-0.5000 0.5000 (  2036 PWs)   bands (ev):

    -5.8739  -2.7502   3.2727   3.2727

          k = 0.0000 0.2000 0.0000 (  2025 PWs)   bands (ev):

    -7.6138   2.4416   3.9940   3.9940

          k =-0.1000 0.3000-0.1000 (  2015 PWs)   bands (ev):

    -7.3528   1.0919   3.5656   3.5819

          k =-0.2000 0.4000-0.2000 (  2013 PWs)   bands (ev):

    -6.8898  -0.4729   3.0908   3.2309

          k =-0.3000 0.5000-0.3000 (  2018 PWs)   bands (ev):

    -6.2943  -1.8473   2.6670   3.0577

          k = 0.6000-0.4000 0.6000 (  2013 PWs)   bands (ev):

    -5.8117  -2.6953   2.3952   3.0637

          k = 0.5000-0.3000 0.5000 (  2013 PWs)   bands (ev):

    -5.9319  -2.4997   2.3087   3.2423

          k = 0.4000-0.2000 0.4000 (  2018 PWs)   bands (ev):

    -6.5016  -1.4216   2.4296   3.5662

          k = 0.3000-0.1000 0.3000 (  2010 PWs)   bands (ev):

    -7.0662   0.0300   2.7871   3.9731

          k = 0.2000 0.0000 0.2000 (  2019 PWs)   bands (ev):

    -7.4650   1.5162   3.4530   4.3145

          k = 0.0000 0.4000 0.0000 (  2009 PWs)   bands (ev):

    -7.1627   0.6308   3.1139   3.1139

          k =-0.1000 0.5000-0.1000 (  2015 PWs)   bands (ev):

    -6.7620  -0.4681   2.5685   2.7652

          k =-0.2000 0.6000-0.2000 (  2009 PWs)   bands (ev):

    -6.1944  -1.6817   1.9266   2.5912

          k = 0.7000-0.3000 0.7000 (  2019 PWs)   bands (ev):

    -5.6180  -2.6424   1.4357   2.6132

          k = 0.6000-0.2000 0.6000 (  2013 PWs)   bands (ev):

    -5.5125  -2.7949   1.1898   2.8255

          k = 0.5000-0.1000 0.5000 (  2018 PWs)   bands (ev):

    -6.0170  -2.0101   1.2538   3.1949

          k = 0.4000 0.0000 0.4000 (  2013 PWs)   bands (ev):

    -6.6111  -0.9260   1.7448   3.6388

          k = 0.0000 0.6000 0.0000 (  2028 PWs)   bands (ev):

    -6.4224  -1.0949   2.3860   2.3860

          k =-0.1000 0.7000-0.1000 (  2028 PWs)   bands (ev):

    -5.8966  -2.0062   1.8376   2.1788

          k = 0.8000-0.2000 0.8000 (  2018 PWs)   bands (ev):

    -5.2788  -2.8753   1.1312   2.1730

          k = 0.7000-0.1000 0.7000 (  2019 PWs)   bands (ev):

    -4.9785  -3.2366   0.6695   2.3683

          k = 0.6000-0.0000 0.6000 (  2011 PWs)   bands (ev):

    -5.4158  -2.7158   0.6572   2.7353

          k = 0.0000 0.8000 0.0000 (  2020 PWs)   bands (ev):

    -5.4115  -2.7052   1.9266   1.9267

          k = 0.9000-0.1000 0.9000 (  2034 PWs)   bands (ev):

    -4.7872  -3.4626   1.4642   1.8747

          k = 0.8000 0.0000 0.8000 (  2043 PWs)   bands (ev):

    -4.4466  -3.7978   0.8546   2.0291

          k = 0.0000-1.0000 0.0000 (  2044 PWs)   bands (ev):

    -4.1593  -4.1592   1.7706   1.7707

          k =-0.2000 0.4000 0.0000 (  2012 PWs)   bands (ev):

    -7.0230   0.0899   2.5819   3.4989

          k =-0.3000 0.5000-0.1000 (  2019 PWs)   bands (ev):

    -6.5054  -1.1581   1.9481   3.1628

          k = 0.6000-0.4000 0.8000 (  2022 PWs)   bands (ev):

    -5.9008  -2.2931   1.6293   2.8600

          k = 0.5000-0.3000 0.7000 (  2018 PWs)   bands (ev):

    -5.5620  -2.8213   1.5338   2.7446

          k =-0.2000 0.6000 0.0000 (  2024 PWs)   bands (ev):

    -6.3011  -1.3649   1.8948   2.5195

          k = 0.7000-0.3000 0.9000 (  2021 PWs)   bands (ev):

    -5.7003  -2.3347   1.3126   2.2482

          k = 0.6000-0.2000 0.8000 (  2022 PWs)   bands (ev):

    -5.1977  -3.0207   0.9299   2.1998

          k = 0.5000-0.1000 0.7000 (  2022 PWs)   bands (ev):

    -5.3576  -2.8123   0.8326   2.4050

          k = 0.4000 0.0000 0.6000 (  2009 PWs)   bands (ev):

    -5.9509  -1.9928   1.1364   2.7875

          k = 0.8000-0.2000 1.0000 (  2020 PWs)   bands (ev):

    -5.3246  -2.7921   1.5138   1.8202

          k = 0.7000-0.1000 0.9000 (  2023 PWs)   bands (ev):

    -4.7215  -3.4822   0.9650   1.7382

          k = 0.6000 0.0000 0.8000 (  2024 PWs)   bands (ev):

    -4.7705  -3.4175   0.6294   1.9760

          k =-0.2000-1.0000 0.0000 (  2028 PWs)   bands (ev):

    -4.1351  -4.1351   1.4824   1.4824

          k = 0.6000-0.2000 1.0000 (  2016 PWs)   bands (ev):

    -5.0883  -3.0488   0.9012   1.7779

          k = 0.5000-0.1000 0.9000 (  2016 PWs)   bands (ev):

    -4.6773  -3.4988   0.7804   1.5665

          k =-0.4000-1.0000 0.0000 (  2012 PWs)   bands (ev):

    -4.0946  -4.0946   1.1088   1.1088

     highest occupied level (ev):     4.5292

!    total energy              =     -15.82335380 Ry
     estimated scf accuracy    <       0.00000167 Ry

     The total energy is the sum of the following terms:
     one-electron contribution =       3.03860109 Ry
     hartree contribution      =       1.29942783 Ry
     xc contribution           =      -4.57503926 Ry
     ewald contribution        =     -15.58634346 Ry

     convergence has been achieved in   8 iterations
     Writing meta-gga kinetic term

     Writing all to output data dir ./input_pw/Ge/6/pwscf.save/
     Writing meta-gga kinetic term
 
     init_run     :      4.46s CPU      9.50s WALL (       1 calls)
     electrons    :     45.78s CPU     79.73s WALL (       1 calls)

     Called by init_run:
     wfcinit      :      4.34s CPU      9.21s WALL (       1 calls)
     potinit      :      0.03s CPU      0.10s WALL (       1 calls)
     hinit0       :      0.07s CPU      0.15s WALL (       1 calls)

     Called by electrons:
     c_bands      :     40.07s CPU     69.50s WALL (       9 calls)
     sum_band     :      5.20s CPU      9.31s WALL (       9 calls)
     v_of_rho     :      0.30s CPU      0.58s WALL (       9 calls)
     mix_rho      :      0.22s CPU      0.42s WALL (       9 calls)

     Called by c_bands:
     init_us_2    :      0.25s CPU      0.42s WALL (     893 calls)
     init_us_2:cp :      0.24s CPU      0.41s WALL (     893 calls)
     cegterg      :     39.78s CPU     68.98s WALL (     423 calls)

     Called by *egterg:
     cdiaghg      :      0.21s CPU      0.31s WALL (    2323 calls)
     h_psi        :     42.92s CPU     76.09s WALL (    2417 calls)
     g_psi        :      0.04s CPU      0.06s WALL (    1947 calls)

     Called by h_psi:
     h_psi:calbec :      0.24s CPU      0.33s WALL (    2417 calls)
     vloc_psi     :     10.70s CPU     19.43s WALL (    2417 calls)
     add_vuspsi   :      0.17s CPU      0.31s WALL (    2417 calls)
     h_psi_meta   :     31.73s CPU     55.88s WALL (    2417 calls)

     General routines
     calbec       :      0.23s CPU      0.32s WALL (    2417 calls)
     fft          :      0.06s CPU      0.14s WALL (     107 calls)
     ffts         :      0.08s CPU      0.16s WALL (     135 calls)
     fftw         :     39.31s CPU     70.12s WALL (   71824 calls)
     interpolate  :      0.00s CPU      0.00s WALL (       9 calls)
 
     Parallel routines
 
     PWSCF        :     50.29s CPU   1m29.35s WALL

 
   This run was terminated on:  14:27:18   7Jul2023            

=------------------------------------------------------------------------------=
   JOB DONE.
=------------------------------------------------------------------------------=
