
     Program PWSCF v.7.0 starts on  7Jul2023 at 14:25:49 

     This program is part of the open-source Quantum ESPRESSO suite
     for quantum simulation of materials; please cite
         "P. Giannozzi et al., J. Phys.:Condens. Matter 21 395502 (2009);
         "P. Giannozzi et al., J. Phys.:Condens. Matter 29 465901 (2017);
         "P. Giannozzi et al., J. Chem. Phys. 152 154105 (2020);
          URL http://www.quantum-espresso.org", 
     in publications or presentations arising from this work. More details at
     http://www.quantum-espresso.org/quote

     Parallel version (MPI), running on     1 processors

     MPI processes distributed on     1 nodes
     27015 MiB available memory on the printing compute node when the environment starts
 
     Waiting for input...
     Reading input from standard input
Warning: card &CELL ignored
Warning: card / ignored

     Current dimensions of program PWSCF are:
     Max number of different atomic species (ntypx) = 10
     Max number of k-points (npk) =  40000
     Max angular momentum in pseudopotentials (lmaxx) =  4
     file Ge.SCAN.UPF2: wavefunction(s)  0D renormalized

     WARNING: the MGGA functional with ID    5 has been 
     read together with other dft terms, but it should 
     stand alone in order to work properly. The other 
     terms will be ignored.

     Subspace diagonalization in iterative solution of the eigenvalue problem:
     a serial algorithm will be used

 
     G-vector sticks info
     --------------------
     sticks:   dense  smooth     PW     G-vecs:    dense   smooth      PW
     Sum         889     889    265                17477    17477    2891
 
     Using Slab Decomposition
 


     bravais-lattice index     =            2
     lattice parameter (alat)  =      11.3667  a.u.
     unit-cell volume          =     367.1529 (a.u.)^3
     number of atoms/cell      =            2
     number of atomic types    =            1
     number of electrons       =         8.00
     number of Kohn-Sham states=            4
     kinetic-energy cutoff     =      50.0000  Ry
     charge density cutoff     =     200.0000  Ry
     scf convergence threshold =      2.0E-05
     mixing beta               =       0.2000
     number of iterations used =            8  local-TF  mixing
     Exchange-correlation= SLA  PW  SCAN SCAN
                           (   0   0   0   0   0 263 267)

     celldm(1)=  11.366733  celldm(2)=   0.000000  celldm(3)=   0.000000
     celldm(4)=   0.000000  celldm(5)=   0.000000  celldm(6)=   0.000000

     crystal axes: (cart. coord. in units of alat)
               a(1) = (  -0.500000   0.000000   0.500000 )  
               a(2) = (   0.000000   0.500000   0.500000 )  
               a(3) = (  -0.500000   0.500000   0.000000 )  

     reciprocal axes: (cart. coord. in units 2 pi/alat)
               b(1) = ( -1.000000 -1.000000  1.000000 )  
               b(2) = (  1.000000  1.000000  1.000000 )  
               b(3) = ( -1.000000  1.000000 -1.000000 )  


     PseudoPot. # 1 for Ge read from file:
     ~/Documents/TA/PWDFT.jl/pseudopotentials/scan_upf/Ge.SCAN.UPF2
     MD5 check sum: Not computed, couldn't open file
     Pseudo is Norm-conserving, Zval =  4.0
     Generated by new atomic code, or converted to UPF format
     Using radial grid of 1557 points,  2 beta functions with: 
                l(1) =   0
                l(2) =   1

     atomic species   valence    mass     pseudopotential
        Ge             4.00    72.64000     Ge( 1.00)

     48 Sym. Ops., with inversion, found (24 have fractional translation)



   Cartesian axes

     site n.     atom                  positions (alat units)
         1           Ge  tau(   1) = (   0.0000000   0.0000000   0.0000000  )
         2           Ge  tau(   2) = (   0.2500000   0.2500000   0.2500000  )

     number of k points=    47
                       cart. coord. in units 2pi/alat
        k(    1) = (   0.0000000   0.0000000   0.0000000), wk =   0.0020000
        k(    2) = (  -0.1000000   0.1000000  -0.1000000), wk =   0.0160000
        k(    3) = (  -0.2000000   0.2000000  -0.2000000), wk =   0.0160000
        k(    4) = (  -0.3000000   0.3000000  -0.3000000), wk =   0.0160000
        k(    5) = (  -0.4000000   0.4000000  -0.4000000), wk =   0.0160000
        k(    6) = (   0.5000000  -0.5000000   0.5000000), wk =   0.0080000
        k(    7) = (   0.0000000   0.2000000   0.0000000), wk =   0.0120000
        k(    8) = (  -0.1000000   0.3000000  -0.1000000), wk =   0.0480000
        k(    9) = (  -0.2000000   0.4000000  -0.2000000), wk =   0.0480000
        k(   10) = (  -0.3000000   0.5000000  -0.3000000), wk =   0.0480000
        k(   11) = (   0.6000000  -0.4000000   0.6000000), wk =   0.0480000
        k(   12) = (   0.5000000  -0.3000000   0.5000000), wk =   0.0480000
        k(   13) = (   0.4000000  -0.2000000   0.4000000), wk =   0.0480000
        k(   14) = (   0.3000000  -0.1000000   0.3000000), wk =   0.0480000
        k(   15) = (   0.2000000   0.0000000   0.2000000), wk =   0.0240000
        k(   16) = (   0.0000000   0.4000000   0.0000000), wk =   0.0120000
        k(   17) = (  -0.1000000   0.5000000  -0.1000000), wk =   0.0480000
        k(   18) = (  -0.2000000   0.6000000  -0.2000000), wk =   0.0480000
        k(   19) = (   0.7000000  -0.3000000   0.7000000), wk =   0.0480000
        k(   20) = (   0.6000000  -0.2000000   0.6000000), wk =   0.0480000
        k(   21) = (   0.5000000  -0.1000000   0.5000000), wk =   0.0480000
        k(   22) = (   0.4000000   0.0000000   0.4000000), wk =   0.0240000
        k(   23) = (   0.0000000   0.6000000   0.0000000), wk =   0.0120000
        k(   24) = (  -0.1000000   0.7000000  -0.1000000), wk =   0.0480000
        k(   25) = (   0.8000000  -0.2000000   0.8000000), wk =   0.0480000
        k(   26) = (   0.7000000  -0.1000000   0.7000000), wk =   0.0480000
        k(   27) = (   0.6000000  -0.0000000   0.6000000), wk =   0.0240000
        k(   28) = (   0.0000000   0.8000000   0.0000000), wk =   0.0120000
        k(   29) = (   0.9000000  -0.1000000   0.9000000), wk =   0.0480000
        k(   30) = (   0.8000000   0.0000000   0.8000000), wk =   0.0240000
        k(   31) = (   0.0000000  -1.0000000   0.0000000), wk =   0.0060000
        k(   32) = (  -0.2000000   0.4000000   0.0000000), wk =   0.0480000
        k(   33) = (  -0.3000000   0.5000000  -0.1000000), wk =   0.0960000
        k(   34) = (   0.6000000  -0.4000000   0.8000000), wk =   0.0960000
        k(   35) = (   0.5000000  -0.3000000   0.7000000), wk =   0.0480000
        k(   36) = (  -0.2000000   0.6000000   0.0000000), wk =   0.0480000
        k(   37) = (   0.7000000  -0.3000000   0.9000000), wk =   0.0960000
        k(   38) = (   0.6000000  -0.2000000   0.8000000), wk =   0.0960000
        k(   39) = (   0.5000000  -0.1000000   0.7000000), wk =   0.0960000
        k(   40) = (   0.4000000   0.0000000   0.6000000), wk =   0.0480000
        k(   41) = (   0.8000000  -0.2000000   1.0000000), wk =   0.0480000
        k(   42) = (   0.7000000  -0.1000000   0.9000000), wk =   0.0960000
        k(   43) = (   0.6000000   0.0000000   0.8000000), wk =   0.0480000
        k(   44) = (  -0.2000000  -1.0000000   0.0000000), wk =   0.0240000
        k(   45) = (   0.6000000  -0.2000000   1.0000000), wk =   0.0480000
        k(   46) = (   0.5000000  -0.1000000   0.9000000), wk =   0.0480000
        k(   47) = (  -0.4000000  -1.0000000   0.0000000), wk =   0.0240000

     Dense  grid:    17477 G-vectors     FFT dimensions: (  40,  40,  40)

     Estimated max dynamical RAM per process >      33.91 MB

     WARNING: libxc functional with ID  263 depends
      on external parameters: check the user_guide of
      QE if you need to modify them or to check their
      default values.

     Initial potential from superposition of free atoms

     starting charge       7.9987, renormalised to       8.0000
     Starting wfcs are   18 randomized atomic wfcs

     total cpu time spent up to now is       12.3 secs

     Self-consistent Calculation

     iteration #  1     ecut=    50.00 Ry     beta= 0.20
     Davidson diagonalization with overlap
     ethr =  1.00E-02,  avg # of iterations =  1.8

     Threshold (ethr) on eigenvalues was too large:
     Diagonalizing with lowered threshold

     Davidson diagonalization with overlap
     ethr =  2.93E-04,  avg # of iterations =  5.8

     total cpu time spent up to now is       37.4 secs

     total energy              =     -15.76054760 Ry
     estimated scf accuracy    <       0.02966243 Ry

     iteration #  2     ecut=    50.00 Ry     beta= 0.20
     Davidson diagonalization with overlap
     ethr =  3.71E-04,  avg # of iterations =  1.6

     total cpu time spent up to now is       44.7 secs

     total energy              =     -15.80436701 Ry
     estimated scf accuracy    <       0.02299425 Ry

     iteration #  3     ecut=    50.00 Ry     beta= 0.20
     Davidson diagonalization with overlap
     ethr =  2.87E-04,  avg # of iterations =  1.2

     total cpu time spent up to now is       51.9 secs

     total energy              =     -15.80589679 Ry
     estimated scf accuracy    <       0.00159151 Ry

     iteration #  4     ecut=    50.00 Ry     beta= 0.20
     Davidson diagonalization with overlap
     ethr =  1.99E-05,  avg # of iterations =  9.0

     total cpu time spent up to now is       74.0 secs

     total energy              =     -15.80846603 Ry
     estimated scf accuracy    <       0.00195222 Ry

     iteration #  5     ecut=    50.00 Ry     beta= 0.20
     Davidson diagonalization with overlap
     ethr =  1.99E-05,  avg # of iterations =  1.8

     total cpu time spent up to now is       82.1 secs

     total energy              =     -15.80851376 Ry
     estimated scf accuracy    <       0.00039239 Ry

     iteration #  6     ecut=    50.00 Ry     beta= 0.20
     Davidson diagonalization with overlap
     ethr =  4.90E-06,  avg # of iterations =  6.4

     total cpu time spent up to now is       95.6 secs

     total energy              =     -15.80879852 Ry
     estimated scf accuracy    <       0.00007648 Ry

     iteration #  7     ecut=    50.00 Ry     beta= 0.20
     Davidson diagonalization with overlap
     ethr =  9.56E-07,  avg # of iterations =  6.4

     total cpu time spent up to now is      108.1 secs

     total energy              =     -15.80887607 Ry
     estimated scf accuracy    <       0.00002214 Ry

     iteration #  8     ecut=    50.00 Ry     beta= 0.20
     Davidson diagonalization with overlap
     ethr =  2.77E-07,  avg # of iterations =  5.9

     total cpu time spent up to now is      116.8 secs

     End of self-consistent calculation

          k = 0.0000 0.0000 0.0000 (  2133 PWs)   bands (ev):

    -7.9801   2.6515   3.8126   3.8126

          k =-0.1000 0.1000-0.1000 (  2175 PWs)   bands (ev):

    -7.8754   1.5354   3.6353   3.6354

          k =-0.2000 0.2000-0.2000 (  2196 PWs)   bands (ev):

    -7.5687  -0.0577   3.2771   3.2771

          k =-0.3000 0.3000-0.3000 (  2184 PWs)   bands (ev):

    -7.0917  -1.5409   2.9463   2.9463

          k =-0.4000 0.4000-0.4000 (  2195 PWs)   bands (ev):

    -6.5483  -2.7121   2.7294   2.7294

          k = 0.5000-0.5000 0.5000 (  2186 PWs)   bands (ev):

    -6.2571  -3.2159   2.6549   2.6549

          k = 0.0000 0.2000 0.0000 (  2165 PWs)   bands (ev):

    -7.8400   1.3957   3.3319   3.3319

          k =-0.1000 0.3000-0.1000 (  2176 PWs)   bands (ev):

    -7.5987   0.2153   2.9305   2.9396

          k =-0.2000 0.4000-0.2000 (  2187 PWs)   bands (ev):

    -7.1725  -1.1830   2.4577   2.6288

          k =-0.3000 0.5000-0.3000 (  2188 PWs)   bands (ev):

    -6.6294  -2.4241   2.0566   2.4652

          k = 0.6000-0.4000 0.6000 (  2192 PWs)   bands (ev):

    -6.1971  -3.1858   1.8052   2.4670

          k = 0.5000-0.3000 0.5000 (  2192 PWs)   bands (ev):

    -6.3039  -3.0109   1.7335   2.6287

          k = 0.4000-0.2000 0.4000 (  2179 PWs)   bands (ev):

    -6.8178  -2.0393   1.8614   2.9253

          k = 0.3000-0.1000 0.3000 (  2181 PWs)   bands (ev):

    -7.3348  -0.7295   2.2144   3.2986

          k = 0.2000 0.0000 0.2000 (  2171 PWs)   bands (ev):

    -7.7025   0.6057   2.8420   3.6120

          k = 0.0000 0.4000 0.0000 (  2185 PWs)   bands (ev):

    -7.4227  -0.2462   2.5266   2.5266

          k =-0.1000 0.5000-0.1000 (  2190 PWs)   bands (ev):

    -7.0530  -1.2389   2.0162   2.2041

          k =-0.2000 0.6000-0.2000 (  2172 PWs)   bands (ev):

    -6.5328  -2.3317   1.4134   2.0409

          k = 0.7000-0.3000 0.7000 (  2194 PWs)   bands (ev):

    -6.0120  -3.1938   0.9554   2.0581

          k = 0.6000-0.2000 0.6000 (  2200 PWs)   bands (ev):

    -5.9192  -3.3283   0.7344   2.2508

          k = 0.5000-0.1000 0.5000 (  2192 PWs)   bands (ev):

    -6.3736  -2.6239   0.8099   2.5879

          k = 0.4000 0.0000 0.4000 (  2199 PWs)   bands (ev):

    -6.9162  -1.6343   1.2742   2.9929

          k = 0.0000 0.6000 0.0000 (  2177 PWs)   bands (ev):

    -6.7386  -1.8319   1.8548   1.8548

          k =-0.1000 0.7000-0.1000 (  2181 PWs)   bands (ev):

    -6.2546  -2.6671   1.3543   1.6622

          k = 0.8000-0.2000 0.8000 (  2183 PWs)   bands (ev):

    -5.6916  -3.4597   0.7114   1.6551

          k = 0.7000-0.1000 0.7000 (  2193 PWs)   bands (ev):

    -5.4257  -3.7818   0.2931   1.8332

          k = 0.6000-0.0000 0.6000 (  2193 PWs)   bands (ev):

    -5.8241  -3.3007   0.2830   2.1688

          k = 0.0000 0.8000 0.0000 (  2176 PWs)   bands (ev):

    -5.8058  -3.3137   1.4294   1.4294

          k = 0.9000-0.1000 0.9000 (  2195 PWs)   bands (ev):

    -5.2326  -4.0116   1.0142   1.3806

          k = 0.8000 0.0000 0.8000 (  2199 PWs)   bands (ev):

    -4.9316  -4.3132   0.4677   1.5222

          k = 0.0000-1.0000 0.0000 (  2200 PWs)   bands (ev):

    -4.6521  -4.6521   1.2847   1.2847

          k =-0.2000 0.4000 0.0000 (  2192 PWs)   bands (ev):

    -7.2944  -0.7105   2.0425   2.8602

          k =-0.3000 0.5000-0.1000 (  2188 PWs)   bands (ev):

    -6.8189  -1.8420   1.4445   2.5564

          k = 0.6000-0.4000 0.8000 (  2188 PWs)   bands (ev):

    -6.2694  -2.8637   1.1291   2.2843

          k = 0.5000-0.3000 0.7000 (  2198 PWs)   bands (ev):

    -5.9669  -3.3349   1.0322   2.1811

          k =-0.2000 0.6000 0.0000 (  2197 PWs)   bands (ev):

    -6.6285  -2.0690   1.4089   1.9753

          k = 0.7000-0.3000 0.9000 (  2193 PWs)   bands (ev):

    -6.0790  -2.9551   0.8706   1.7316

          k = 0.6000-0.2000 0.8000 (  2205 PWs)   bands (ev):

    -5.6264  -3.5729   0.5167   1.6880

          k = 0.5000-0.1000 0.7000 (  2210 PWs)   bands (ev):

    -5.7716  -3.3838   0.4333   1.8735

          k = 0.4000 0.0000 0.6000 (  2191 PWs)   bands (ev):

    -6.3106  -2.6332   0.7169   2.2193

          k = 0.8000-0.2000 1.0000 (  2194 PWs)   bands (ev):

    -5.7289  -3.3940   1.0585   1.3410

          k = 0.7000-0.1000 0.9000 (  2199 PWs)   bands (ev):

    -5.1802  -4.0288   0.5662   1.2661

          k = 0.6000 0.0000 0.8000 (  2208 PWs)   bands (ev):

    -5.2327  -3.9619   0.2632   1.4828

          k =-0.2000-1.0000 0.0000 (  2206 PWs)   bands (ev):

    -4.6335  -4.6335   1.0311   1.0311

          k = 0.6000-0.2000 1.0000 (  2188 PWs)   bands (ev):

    -5.5189  -3.6274   0.5060   1.3087

          k = 0.5000-0.1000 0.9000 (  2202 PWs)   bands (ev):

    -5.1454  -4.0423   0.3983   1.1174

          k =-0.4000-1.0000 0.0000 (  2192 PWs)   bands (ev):

    -4.6026  -4.6026   0.7005   0.7005

     highest occupied level (ev):     3.8126

!    total energy              =     -15.80889395 Ry
     estimated scf accuracy    <       0.00000312 Ry

     The total energy is the sum of the following terms:
     one-electron contribution =       2.47546300 Ry
     hartree contribution      =       1.38057770 Ry
     xc contribution           =      -4.49984370 Ry
     ewald contribution        =     -15.16509095 Ry

     convergence has been achieved in   8 iterations
     Writing meta-gga kinetic term

     Writing all to output data dir ./input_pw/Ge/7/pwscf.save/
     Writing meta-gga kinetic term
 
     init_run     :      6.07s CPU     12.31s WALL (       1 calls)
     electrons    :     61.70s CPU    104.48s WALL (       1 calls)

     Called by init_run:
     wfcinit      :      5.93s CPU     12.14s WALL (       1 calls)
     potinit      :      0.05s CPU      0.06s WALL (       1 calls)
     hinit0       :      0.07s CPU      0.08s WALL (       1 calls)

     Called by electrons:
     c_bands      :     53.68s CPU     90.94s WALL (       9 calls)
     sum_band     :      7.34s CPU     12.42s WALL (       9 calls)
     v_of_rho     :      0.42s CPU      0.68s WALL (       9 calls)
     mix_rho      :      0.28s CPU      0.45s WALL (       9 calls)

     Called by c_bands:
     init_us_2    :      0.27s CPU      0.47s WALL (     893 calls)
     init_us_2:cp :      0.27s CPU      0.47s WALL (     893 calls)
     cegterg      :     53.36s CPU     90.38s WALL (     423 calls)

     Called by *egterg:
     cdiaghg      :      0.20s CPU      0.39s WALL (    2254 calls)
     h_psi        :     58.02s CPU    100.23s WALL (    2348 calls)
     g_psi        :      0.04s CPU      0.10s WALL (    1878 calls)

     Called by h_psi:
     h_psi:calbec :      0.27s CPU      0.50s WALL (    2348 calls)
     vloc_psi     :     14.38s CPU     25.43s WALL (    2348 calls)
     add_vuspsi   :      0.19s CPU      0.29s WALL (    2348 calls)
     h_psi_meta   :     43.10s CPU     73.85s WALL (    2348 calls)

     General routines
     calbec       :      0.26s CPU      0.49s WALL (    2348 calls)
     fft          :      0.08s CPU      0.14s WALL (     107 calls)
     ffts         :      0.11s CPU      0.21s WALL (     135 calls)
     fftw         :     51.76s CPU     90.16s WALL (   69352 calls)
     interpolate  :      0.00s CPU      0.00s WALL (       9 calls)
 
     Parallel routines
 
     PWSCF        :   1m 7.80s CPU   1m56.86s WALL

 
   This run was terminated on:  14:27:46   7Jul2023            

=------------------------------------------------------------------------------=
   JOB DONE.
=------------------------------------------------------------------------------=
