
     Program PWSCF v.7.0 starts on 29Mar2023 at 11:45:51 

     This program is part of the open-source Quantum ESPRESSO suite
     for quantum simulation of materials; please cite
         "P. Giannozzi et al., J. Phys.:Condens. Matter 21 395502 (2009);
         "P. Giannozzi et al., J. Phys.:Condens. Matter 29 465901 (2017);
         "P. Giannozzi et al., J. Chem. Phys. 152 154105 (2020);
          URL http://www.quantum-espresso.org", 
     in publications or presentations arising from this work. More details at
     http://www.quantum-espresso.org/quote

     Parallel version (MPI), running on     1 processors

     MPI processes distributed on     1 nodes
     23289 MiB available memory on the printing compute node when the environment starts
 
     Waiting for input...
     Reading input from standard input
Warning: card &CELL ignored
Warning: card / ignored

     Current dimensions of program PWSCF are:
     Max number of different atomic species (ntypx) = 10
     Max number of k-points (npk) =  40000
     Max angular momentum in pseudopotentials (lmaxx) =  4
     file Ge.SCAN.UPF2: wavefunction(s)  0D renormalized

     WARNING: the MGGA functional with ID    5 has been 
     read together with other dft terms, but it should 
     stand alone in order to work properly. The other 
     terms will be ignored.

     Subspace diagonalization in iterative solution of the eigenvalue problem:
     a serial algorithm will be used

 
     G-vector sticks info
     --------------------
     sticks:   dense  smooth     PW     G-vecs:    dense   smooth      PW
     Sum         889     889    265                17477    17477    2891
 
     Using Slab Decomposition
 


     bravais-lattice index     =            2
     lattice parameter (alat)  =      11.3667  a.u.
     unit-cell volume          =     367.1529 (a.u.)^3
     number of atoms/cell      =            2
     number of atomic types    =            1
     number of electrons       =         8.00
     number of Kohn-Sham states=            4
     kinetic-energy cutoff     =      50.0000  Ry
     charge density cutoff     =     200.0000  Ry
     scf convergence threshold =      1.0E-06
     mixing beta               =       0.0100
     number of iterations used =            8  local-TF  mixing
     Exchange-correlation= SLA  PW  SCAN SCAN
                           (   0   0   0   0   0 263 267)

     celldm(1)=  11.366733  celldm(2)=   0.000000  celldm(3)=   0.000000
     celldm(4)=   0.000000  celldm(5)=   0.000000  celldm(6)=   0.000000

     crystal axes: (cart. coord. in units of alat)
               a(1) = (  -0.500000   0.000000   0.500000 )  
               a(2) = (   0.000000   0.500000   0.500000 )  
               a(3) = (  -0.500000   0.500000   0.000000 )  

     reciprocal axes: (cart. coord. in units 2 pi/alat)
               b(1) = ( -1.000000 -1.000000  1.000000 )  
               b(2) = (  1.000000  1.000000  1.000000 )  
               b(3) = ( -1.000000  1.000000 -1.000000 )  


     PseudoPot. # 1 for Ge read from file:
     ~/Documents/TA/PWDFT.jl/pseudopotentials/scan_upf/Ge.SCAN.UPF2
     MD5 check sum: Not computed, couldn't open file
     Pseudo is Norm-conserving, Zval =  4.0
     Generated by new atomic code, or converted to UPF format
     Using radial grid of 1557 points,  2 beta functions with: 
                l(1) =   0
                l(2) =   1

     atomic species   valence    mass     pseudopotential
        Ge             4.00    72.64000     Ge( 1.00)

     48 Sym. Ops., with inversion, found (24 have fractional translation)



   Cartesian axes

     site n.     atom                  positions (alat units)
         1           Ge  tau(   1) = (   0.0000000   0.0000000   0.0000000  )
         2           Ge  tau(   2) = (   0.2500000   0.2500000   0.2500000  )

     number of k points=    47
                       cart. coord. in units 2pi/alat
        k(    1) = (   0.0000000   0.0000000   0.0000000), wk =   0.0020000
        k(    2) = (  -0.1000000   0.1000000  -0.1000000), wk =   0.0160000
        k(    3) = (  -0.2000000   0.2000000  -0.2000000), wk =   0.0160000
        k(    4) = (  -0.3000000   0.3000000  -0.3000000), wk =   0.0160000
        k(    5) = (  -0.4000000   0.4000000  -0.4000000), wk =   0.0160000
        k(    6) = (   0.5000000  -0.5000000   0.5000000), wk =   0.0080000
        k(    7) = (   0.0000000   0.2000000   0.0000000), wk =   0.0120000
        k(    8) = (  -0.1000000   0.3000000  -0.1000000), wk =   0.0480000
        k(    9) = (  -0.2000000   0.4000000  -0.2000000), wk =   0.0480000
        k(   10) = (  -0.3000000   0.5000000  -0.3000000), wk =   0.0480000
        k(   11) = (   0.6000000  -0.4000000   0.6000000), wk =   0.0480000
        k(   12) = (   0.5000000  -0.3000000   0.5000000), wk =   0.0480000
        k(   13) = (   0.4000000  -0.2000000   0.4000000), wk =   0.0480000
        k(   14) = (   0.3000000  -0.1000000   0.3000000), wk =   0.0480000
        k(   15) = (   0.2000000   0.0000000   0.2000000), wk =   0.0240000
        k(   16) = (   0.0000000   0.4000000   0.0000000), wk =   0.0120000
        k(   17) = (  -0.1000000   0.5000000  -0.1000000), wk =   0.0480000
        k(   18) = (  -0.2000000   0.6000000  -0.2000000), wk =   0.0480000
        k(   19) = (   0.7000000  -0.3000000   0.7000000), wk =   0.0480000
        k(   20) = (   0.6000000  -0.2000000   0.6000000), wk =   0.0480000
        k(   21) = (   0.5000000  -0.1000000   0.5000000), wk =   0.0480000
        k(   22) = (   0.4000000   0.0000000   0.4000000), wk =   0.0240000
        k(   23) = (   0.0000000   0.6000000   0.0000000), wk =   0.0120000
        k(   24) = (  -0.1000000   0.7000000  -0.1000000), wk =   0.0480000
        k(   25) = (   0.8000000  -0.2000000   0.8000000), wk =   0.0480000
        k(   26) = (   0.7000000  -0.1000000   0.7000000), wk =   0.0480000
        k(   27) = (   0.6000000  -0.0000000   0.6000000), wk =   0.0240000
        k(   28) = (   0.0000000   0.8000000   0.0000000), wk =   0.0120000
        k(   29) = (   0.9000000  -0.1000000   0.9000000), wk =   0.0480000
        k(   30) = (   0.8000000   0.0000000   0.8000000), wk =   0.0240000
        k(   31) = (   0.0000000  -1.0000000   0.0000000), wk =   0.0060000
        k(   32) = (  -0.2000000   0.4000000   0.0000000), wk =   0.0480000
        k(   33) = (  -0.3000000   0.5000000  -0.1000000), wk =   0.0960000
        k(   34) = (   0.6000000  -0.4000000   0.8000000), wk =   0.0960000
        k(   35) = (   0.5000000  -0.3000000   0.7000000), wk =   0.0480000
        k(   36) = (  -0.2000000   0.6000000   0.0000000), wk =   0.0480000
        k(   37) = (   0.7000000  -0.3000000   0.9000000), wk =   0.0960000
        k(   38) = (   0.6000000  -0.2000000   0.8000000), wk =   0.0960000
        k(   39) = (   0.5000000  -0.1000000   0.7000000), wk =   0.0960000
        k(   40) = (   0.4000000   0.0000000   0.6000000), wk =   0.0480000
        k(   41) = (   0.8000000  -0.2000000   1.0000000), wk =   0.0480000
        k(   42) = (   0.7000000  -0.1000000   0.9000000), wk =   0.0960000
        k(   43) = (   0.6000000   0.0000000   0.8000000), wk =   0.0480000
        k(   44) = (  -0.2000000  -1.0000000   0.0000000), wk =   0.0240000
        k(   45) = (   0.6000000  -0.2000000   1.0000000), wk =   0.0480000
        k(   46) = (   0.5000000  -0.1000000   0.9000000), wk =   0.0480000
        k(   47) = (  -0.4000000  -1.0000000   0.0000000), wk =   0.0240000

     Dense  grid:    17477 G-vectors     FFT dimensions: (  40,  40,  40)

     Estimated max dynamical RAM per process >      33.91 MB

     WARNING: libxc functional with ID  263 depends
      on external parameters: check the user_guide of
      QE if you need to modify them or to check their
      default values.

     Initial potential from superposition of free atoms

     starting charge       7.9987, renormalised to       8.0000
     Starting wfcs are   18 randomized atomic wfcs

     total cpu time spent up to now is       12.2 secs

     Self-consistent Calculation

     iteration #  1     ecut=    50.00 Ry     beta= 0.01
     Davidson diagonalization with overlap
     ethr =  1.00E-02,  avg # of iterations =  1.8

     Threshold (ethr) on eigenvalues was too large:
     Diagonalizing with lowered threshold

     Davidson diagonalization with overlap
     ethr =  2.93E-04,  avg # of iterations =  5.8

     total cpu time spent up to now is       37.3 secs

     total energy              =     -15.74351955 Ry
     estimated scf accuracy    <       0.02966243 Ry

     iteration #  2     ecut=    50.00 Ry     beta= 0.01
     Davidson diagonalization with overlap
     ethr =  3.71E-04,  avg # of iterations =  1.0

     total cpu time spent up to now is       44.6 secs

     total energy              =     -15.74347844 Ry
     estimated scf accuracy    <       0.02968140 Ry

     iteration #  3     ecut=    50.00 Ry     beta= 0.01
     Davidson diagonalization with overlap
     ethr =  3.71E-04,  avg # of iterations =  1.0

     total cpu time spent up to now is       51.6 secs

     total energy              =     -15.80463869 Ry
     estimated scf accuracy    <       0.03082436 Ry

     iteration #  4     ecut=    50.00 Ry     beta= 0.01
     Davidson diagonalization with overlap
     ethr =  3.71E-04,  avg # of iterations =  1.5

     total cpu time spent up to now is       59.0 secs

     total energy              =     -15.80647758 Ry
     estimated scf accuracy    <       0.00316111 Ry

     iteration #  5     ecut=    50.00 Ry     beta= 0.01
     Davidson diagonalization with overlap
     ethr =  3.95E-05,  avg # of iterations =  6.1

     total cpu time spent up to now is       74.5 secs

     total energy              =     -15.80892787 Ry
     estimated scf accuracy    <       0.00356245 Ry

     iteration #  6     ecut=    50.00 Ry     beta= 0.01
     Davidson diagonalization with overlap
     ethr =  3.95E-05,  avg # of iterations =  1.3

     total cpu time spent up to now is       81.7 secs

     total energy              =     -15.80819597 Ry
     estimated scf accuracy    <       0.00377088 Ry

     iteration #  7     ecut=    50.00 Ry     beta= 0.01
     Davidson diagonalization with overlap
     ethr =  3.95E-05,  avg # of iterations =  1.2

     total cpu time spent up to now is       88.1 secs

     total energy              =     -15.80839266 Ry
     estimated scf accuracy    <       0.00046465 Ry

     iteration #  8     ecut=    50.00 Ry     beta= 0.01
     Davidson diagonalization with overlap
     ethr =  5.81E-06,  avg # of iterations =  6.9

     total cpu time spent up to now is      102.1 secs

     total energy              =     -15.80890482 Ry
     estimated scf accuracy    <       0.00043033 Ry

     iteration #  9     ecut=    50.00 Ry     beta= 0.01
     Davidson diagonalization with overlap
     ethr =  5.38E-06,  avg # of iterations =  1.4

     total cpu time spent up to now is      108.4 secs

     total energy              =     -15.80893009 Ry
     estimated scf accuracy    <       0.00043902 Ry

     iteration # 10     ecut=    50.00 Ry     beta= 0.01
     Davidson diagonalization with overlap
     ethr =  5.38E-06,  avg # of iterations =  1.0

     total cpu time spent up to now is      115.8 secs

     total energy              =     -15.80876320 Ry
     estimated scf accuracy    <       0.00042321 Ry

     iteration # 11     ecut=    50.00 Ry     beta= 0.01
     Davidson diagonalization with overlap
     ethr =  5.29E-06,  avg # of iterations =  1.9

     total cpu time spent up to now is      123.2 secs

     total energy              =     -15.80882126 Ry
     estimated scf accuracy    <       0.00010687 Ry

     iteration # 12     ecut=    50.00 Ry     beta= 0.01
     Davidson diagonalization with overlap
     ethr =  1.34E-06,  avg # of iterations =  5.3

     total cpu time spent up to now is      133.7 secs

     total energy              =     -15.80885465 Ry
     estimated scf accuracy    <       0.00008056 Ry

     iteration # 13     ecut=    50.00 Ry     beta= 0.01
     Davidson diagonalization with overlap
     ethr =  1.01E-06,  avg # of iterations =  3.2

     total cpu time spent up to now is      141.1 secs

     total energy              =     -15.80886701 Ry
     estimated scf accuracy    <       0.00005465 Ry

     iteration # 14     ecut=    50.00 Ry     beta= 0.01
     Davidson diagonalization with overlap
     ethr =  6.83E-07,  avg # of iterations =  2.1

     total cpu time spent up to now is      147.6 secs

     total energy              =     -15.80875960 Ry
     estimated scf accuracy    <       0.00005105 Ry

     iteration # 15     ecut=    50.00 Ry     beta= 0.01
     Davidson diagonalization with overlap
     ethr =  6.38E-07,  avg # of iterations =  3.6

     total cpu time spent up to now is      153.9 secs

     total energy              =     -15.80881360 Ry
     estimated scf accuracy    <       0.00006328 Ry

     iteration # 16     ecut=    50.00 Ry     beta= 0.01
     Davidson diagonalization with overlap
     ethr =  6.38E-07,  avg # of iterations =  1.1

     total cpu time spent up to now is      158.7 secs

     total energy              =     -15.80887983 Ry
     estimated scf accuracy    <       0.00004916 Ry

     iteration # 17     ecut=    50.00 Ry     beta= 0.01
     Davidson diagonalization with overlap
     ethr =  6.15E-07,  avg # of iterations =  1.0

     total cpu time spent up to now is      163.5 secs

     total energy              =     -15.80887720 Ry
     estimated scf accuracy    <       0.00002793 Ry

     iteration # 18     ecut=    50.00 Ry     beta= 0.01
     Davidson diagonalization with overlap
     ethr =  3.49E-07,  avg # of iterations =  1.0

     total cpu time spent up to now is      168.6 secs

     total energy              =     -15.80888952 Ry
     estimated scf accuracy    <       0.00002642 Ry

     iteration # 19     ecut=    50.00 Ry     beta= 0.01
     Davidson diagonalization with overlap
     ethr =  3.30E-07,  avg # of iterations =  1.1

     total cpu time spent up to now is      173.8 secs

     total energy              =     -15.80893053 Ry
     estimated scf accuracy    <       0.00002164 Ry

     iteration # 20     ecut=    50.00 Ry     beta= 0.01
     Davidson diagonalization with overlap
     ethr =  2.70E-07,  avg # of iterations =  3.8

     total cpu time spent up to now is      182.2 secs

     total energy              =     -15.80888991 Ry
     estimated scf accuracy    <       0.00015320 Ry

     iteration # 21     ecut=    50.00 Ry     beta= 0.01
     Davidson diagonalization with overlap
     ethr =  2.70E-07,  avg # of iterations =  1.4

     total cpu time spent up to now is      186.9 secs

     total energy              =     -15.80889627 Ry
     estimated scf accuracy    <       0.00005086 Ry

     iteration # 22     ecut=    50.00 Ry     beta= 0.01
     Davidson diagonalization with overlap
     ethr =  2.70E-07,  avg # of iterations =  1.0

     total cpu time spent up to now is      191.2 secs

     total energy              =     -15.80888926 Ry
     estimated scf accuracy    <       0.00003327 Ry

     iteration # 23     ecut=    50.00 Ry     beta= 0.01
     Davidson diagonalization with overlap
     ethr =  2.70E-07,  avg # of iterations =  1.5

     total cpu time spent up to now is      196.1 secs

     total energy              =     -15.80889117 Ry
     estimated scf accuracy    <       0.00000233 Ry

     iteration # 24     ecut=    50.00 Ry     beta= 0.01
     Davidson diagonalization with overlap
     ethr =  2.91E-08,  avg # of iterations =  9.3

     total cpu time spent up to now is      209.5 secs

     End of self-consistent calculation

          k = 0.0000 0.0000 0.0000 (  2133 PWs)   bands (ev):

    -7.9862   2.6443   3.8050   3.8050

          k =-0.1000 0.1000-0.1000 (  2175 PWs)   bands (ev):

    -7.8815   1.5282   3.6280   3.6280

          k =-0.2000 0.2000-0.2000 (  2196 PWs)   bands (ev):

    -7.5748  -0.0645   3.2701   3.2701

          k =-0.3000 0.3000-0.3000 (  2184 PWs)   bands (ev):

    -7.0980  -1.5474   2.9395   2.9396

          k =-0.4000 0.4000-0.4000 (  2195 PWs)   bands (ev):

    -6.5547  -2.7184   2.7227   2.7227

          k = 0.5000-0.5000 0.5000 (  2186 PWs)   bands (ev):

    -6.2635  -3.2221   2.6482   2.6482

          k = 0.0000 0.2000 0.0000 (  2165 PWs)   bands (ev):

    -7.8461   1.3885   3.3250   3.3250

          k =-0.1000 0.3000-0.1000 (  2176 PWs)   bands (ev):

    -7.6049   0.2082   2.9240   2.9330

          k =-0.2000 0.4000-0.2000 (  2187 PWs)   bands (ev):

    -7.1787  -1.1898   2.4515   2.6223

          k =-0.3000 0.5000-0.3000 (  2188 PWs)   bands (ev):

    -6.6357  -2.4305   2.0506   2.4588

          k = 0.6000-0.4000 0.6000 (  2192 PWs)   bands (ev):

    -6.2035  -3.1921   1.7993   2.4605

          k = 0.5000-0.3000 0.5000 (  2192 PWs)   bands (ev):

    -6.3103  -3.0173   1.7277   2.6221

          k = 0.4000-0.2000 0.4000 (  2179 PWs)   bands (ev):

    -6.8241  -2.0459   1.8556   2.9185

          k = 0.3000-0.1000 0.3000 (  2181 PWs)   bands (ev):

    -7.3410  -0.7364   2.2085   3.2914

          k = 0.2000 0.0000 0.2000 (  2171 PWs)   bands (ev):

    -7.7087   0.5986   2.8357   3.6046

          k = 0.0000 0.4000 0.0000 (  2185 PWs)   bands (ev):

    -7.4289  -0.2533   2.5203   2.5203

          k =-0.1000 0.5000-0.1000 (  2190 PWs)   bands (ev):

    -7.0592  -1.2458   2.0103   2.1979

          k =-0.2000 0.6000-0.2000 (  2172 PWs)   bands (ev):

    -6.5391  -2.3385   1.4078   2.0347

          k = 0.7000-0.3000 0.7000 (  2194 PWs)   bands (ev):

    -6.0184  -3.2003   0.9500   2.0519

          k = 0.6000-0.2000 0.6000 (  2200 PWs)   bands (ev):

    -5.9257  -3.3347   0.7291   2.2445

          k = 0.5000-0.1000 0.5000 (  2192 PWs)   bands (ev):

    -6.3800  -2.6306   0.8046   2.5813

          k = 0.4000 0.0000 0.4000 (  2199 PWs)   bands (ev):

    -6.9225  -1.6411   1.2688   2.9860

          k = 0.0000 0.6000 0.0000 (  2177 PWs)   bands (ev):

    -6.7448  -1.8389   1.8487   1.8487

          k =-0.1000 0.7000-0.1000 (  2181 PWs)   bands (ev):

    -6.2610  -2.6739   1.3486   1.6562

          k = 0.8000-0.2000 0.8000 (  2183 PWs)   bands (ev):

    -5.6981  -3.4664   0.7061   1.6491

          k = 0.7000-0.1000 0.7000 (  2193 PWs)   bands (ev):

    -5.4322  -3.7884   0.2880   1.8271

          k = 0.6000-0.0000 0.6000 (  2193 PWs)   bands (ev):

    -5.8306  -3.3074   0.2779   2.1625

          k = 0.0000 0.8000 0.0000 (  2176 PWs)   bands (ev):

    -5.8122  -3.3205   1.4234   1.4234

          k = 0.9000-0.1000 0.9000 (  2195 PWs)   bands (ev):

    -5.2391  -4.0183   1.0086   1.3747

          k = 0.8000 0.0000 0.8000 (  2199 PWs)   bands (ev):

    -4.9382  -4.3198   0.4626   1.5162

          k = 0.0000-1.0000 0.0000 (  2200 PWs)   bands (ev):

    -4.6587  -4.6587   1.2788   1.2788

          k =-0.2000 0.4000 0.0000 (  2192 PWs)   bands (ev):

    -7.3006  -0.7175   2.0366   2.8536

          k =-0.3000 0.5000-0.1000 (  2188 PWs)   bands (ev):

    -6.8252  -1.8488   1.4390   2.5499

          k = 0.6000-0.4000 0.8000 (  2188 PWs)   bands (ev):

    -6.2758  -2.8703   1.1236   2.2780

          k = 0.5000-0.3000 0.7000 (  2198 PWs)   bands (ev):

    -5.9734  -3.3413   1.0267   2.1748

          k =-0.2000 0.6000 0.0000 (  2197 PWs)   bands (ev):

    -6.6348  -2.0759   1.4032   1.9693

          k = 0.7000-0.3000 0.9000 (  2193 PWs)   bands (ev):

    -6.0854  -2.9619   0.8652   1.7257

          k = 0.6000-0.2000 0.8000 (  2205 PWs)   bands (ev):

    -5.6329  -3.5795   0.5115   1.6821

          k = 0.5000-0.1000 0.7000 (  2210 PWs)   bands (ev):

    -5.7781  -3.3905   0.4282   1.8675

          k = 0.4000 0.0000 0.6000 (  2191 PWs)   bands (ev):

    -6.3170  -2.6400   0.7117   2.2131

          k = 0.8000-0.2000 1.0000 (  2194 PWs)   bands (ev):

    -5.7353  -3.4008   1.0529   1.3352

          k = 0.7000-0.1000 0.9000 (  2199 PWs)   bands (ev):

    -5.1868  -4.0355   0.5610   1.2604

          k = 0.6000 0.0000 0.8000 (  2208 PWs)   bands (ev):

    -5.2393  -3.9685   0.2582   1.4770

          k =-0.2000-1.0000 0.0000 (  2206 PWs)   bands (ev):

    -4.6401  -4.6401   1.0255   1.0255

          k = 0.6000-0.2000 1.0000 (  2188 PWs)   bands (ev):

    -5.5255  -3.6342   0.5008   1.3030

          k = 0.5000-0.1000 0.9000 (  2202 PWs)   bands (ev):

    -5.1520  -4.0490   0.3932   1.1119

          k =-0.4000-1.0000 0.0000 (  2192 PWs)   bands (ev):

    -4.6092  -4.6092   0.6952   0.6952

     highest occupied level (ev):     3.8050

!    total energy              =     -15.80889792 Ry
     estimated scf accuracy    <       0.00000080 Ry

     The total energy is the sum of the following terms:
     one-electron contribution =       2.47524887 Ry
     hartree contribution      =       1.38096298 Ry
     xc contribution           =      -4.50001882 Ry
     ewald contribution        =     -15.16509095 Ry

     convergence has been achieved in  24 iterations
     Writing meta-gga kinetic term

     Writing all to output data dir ./input_pw/Ge/7/pwscf.save/
     Writing meta-gga kinetic term
 
     init_run     :      5.88s CPU     12.16s WALL (       1 calls)
     electrons    :    130.19s CPU    197.25s WALL (       1 calls)

     Called by init_run:
     wfcinit      :      5.73s CPU     11.81s WALL (       1 calls)
     potinit      :      0.05s CPU      0.20s WALL (       1 calls)
     hinit0       :      0.08s CPU      0.10s WALL (       1 calls)

     Called by electrons:
     c_bands      :    107.27s CPU    162.43s WALL (      25 calls)
     sum_band     :     20.59s CPU     31.34s WALL (      25 calls)
     v_of_rho     :      1.19s CPU      1.83s WALL (      25 calls)
     mix_rho      :      1.11s CPU      1.68s WALL (      25 calls)

     Called by c_bands:
     init_us_2    :      0.74s CPU      1.28s WALL (    2397 calls)
     init_us_2:cp :      0.73s CPU      1.28s WALL (    2397 calls)
     cegterg      :    106.34s CPU    160.94s WALL (    1175 calls)

     Called by *egterg:
     cdiaghg      :      0.39s CPU      0.61s WALL (    4246 calls)
     h_psi        :    109.87s CPU    169.32s WALL (    4340 calls)
     g_psi        :      0.08s CPU      0.09s WALL (    3118 calls)

     Called by h_psi:
     h_psi:calbec :      0.52s CPU      0.79s WALL (    4340 calls)
     vloc_psi     :     27.36s CPU     41.74s WALL (    4340 calls)
     add_vuspsi   :      0.35s CPU      0.52s WALL (    4340 calls)
     h_psi_meta   :     81.47s CPU    125.98s WALL (    4340 calls)

     General routines
     calbec       :      0.50s CPU      0.75s WALL (    4340 calls)
     fft          :      0.24s CPU      0.38s WALL (     299 calls)
     ffts         :      0.35s CPU      0.48s WALL (     437 calls)
     fftw         :    102.62s CPU    158.91s WALL (  136448 calls)
     interpolate  :      0.00s CPU      0.00s WALL (      25 calls)
 
     Parallel routines
 
     PWSCF        :   2m16.11s CPU   3m29.49s WALL

 
   This run was terminated on:  11:49:20  29Mar2023            

=------------------------------------------------------------------------------=
   JOB DONE.
=------------------------------------------------------------------------------=
