
     Program PWSCF v.7.0 starts on 14Mar2023 at 11:36:59 

     This program is part of the open-source Quantum ESPRESSO suite
     for quantum simulation of materials; please cite
         "P. Giannozzi et al., J. Phys.:Condens. Matter 21 395502 (2009);
         "P. Giannozzi et al., J. Phys.:Condens. Matter 29 465901 (2017);
         "P. Giannozzi et al., J. Chem. Phys. 152 154105 (2020);
          URL http://www.quantum-espresso.org", 
     in publications or presentations arising from this work. More details at
     http://www.quantum-espresso.org/quote

     Parallel version (MPI), running on     1 processors

     MPI processes distributed on     1 nodes
     27485 MiB available memory on the printing compute node when the environment starts
 
     Waiting for input...
     Reading input from standard input
Warning: card &CELL ignored
Warning: card / ignored

     Current dimensions of program PWSCF are:
     Max number of different atomic species (ntypx) = 10
     Max number of k-points (npk) =  40000
     Max angular momentum in pseudopotentials (lmaxx) =  4
     file Ge.SCAN.UPF2: wavefunction(s)  0D renormalized

     WARNING: the MGGA functional with ID    5 has been 
     read together with other dft terms, but it should 
     stand alone in order to work properly. The other 
     terms will be ignored.

     Subspace diagonalization in iterative solution of the eigenvalue problem:
     a serial algorithm will be used

 
     G-vector sticks info
     --------------------
     sticks:   dense  smooth     PW     G-vecs:    dense   smooth      PW
     Sum         925     925    283                18197    18197    3071
 
     Using Slab Decomposition
 


     bravais-lattice index     =            2
     lattice parameter (alat)  =      11.5220  a.u.
     unit-cell volume          =     382.4051 (a.u.)^3
     number of atoms/cell      =            2
     number of atomic types    =            1
     number of electrons       =         8.00
     number of Kohn-Sham states=            4
     kinetic-energy cutoff     =      50.0000  Ry
     charge density cutoff     =     200.0000  Ry
     scf convergence threshold =      1.0E-06
     mixing beta               =       0.0100
     number of iterations used =            8  local-TF  mixing
     Exchange-correlation= SLA  PW  SCAN SCAN
                           (   0   0   0   0   0 263 267)

     celldm(1)=  11.522000  celldm(2)=   0.000000  celldm(3)=   0.000000
     celldm(4)=   0.000000  celldm(5)=   0.000000  celldm(6)=   0.000000

     crystal axes: (cart. coord. in units of alat)
               a(1) = (  -0.500000   0.000000   0.500000 )  
               a(2) = (   0.000000   0.500000   0.500000 )  
               a(3) = (  -0.500000   0.500000   0.000000 )  

     reciprocal axes: (cart. coord. in units 2 pi/alat)
               b(1) = ( -1.000000 -1.000000  1.000000 )  
               b(2) = (  1.000000  1.000000  1.000000 )  
               b(3) = ( -1.000000  1.000000 -1.000000 )  


     PseudoPot. # 1 for Ge read from file:
     ~/Documents/TA/PWDFT.jl/pseudopotentials/scan_upf/Ge.SCAN.UPF2
     MD5 check sum: Not computed, couldn't open file
     Pseudo is Norm-conserving, Zval =  4.0
     Generated by new atomic code, or converted to UPF format
     Using radial grid of 1557 points,  2 beta functions with: 
                l(1) =   0
                l(2) =   1

     atomic species   valence    mass     pseudopotential
        Ge             4.00    72.64000     Ge( 1.00)

     48 Sym. Ops., with inversion, found (24 have fractional translation)



   Cartesian axes

     site n.     atom                  positions (alat units)
         1           Ge  tau(   1) = (   0.0000000   0.0000000   0.0000000  )
         2           Ge  tau(   2) = (   0.2500000   0.2500000   0.2500000  )

     number of k points=    47
                       cart. coord. in units 2pi/alat
        k(    1) = (   0.0000000   0.0000000   0.0000000), wk =   0.0020000
        k(    2) = (  -0.1000000   0.1000000  -0.1000000), wk =   0.0160000
        k(    3) = (  -0.2000000   0.2000000  -0.2000000), wk =   0.0160000
        k(    4) = (  -0.3000000   0.3000000  -0.3000000), wk =   0.0160000
        k(    5) = (  -0.4000000   0.4000000  -0.4000000), wk =   0.0160000
        k(    6) = (   0.5000000  -0.5000000   0.5000000), wk =   0.0080000
        k(    7) = (   0.0000000   0.2000000   0.0000000), wk =   0.0120000
        k(    8) = (  -0.1000000   0.3000000  -0.1000000), wk =   0.0480000
        k(    9) = (  -0.2000000   0.4000000  -0.2000000), wk =   0.0480000
        k(   10) = (  -0.3000000   0.5000000  -0.3000000), wk =   0.0480000
        k(   11) = (   0.6000000  -0.4000000   0.6000000), wk =   0.0480000
        k(   12) = (   0.5000000  -0.3000000   0.5000000), wk =   0.0480000
        k(   13) = (   0.4000000  -0.2000000   0.4000000), wk =   0.0480000
        k(   14) = (   0.3000000  -0.1000000   0.3000000), wk =   0.0480000
        k(   15) = (   0.2000000   0.0000000   0.2000000), wk =   0.0240000
        k(   16) = (   0.0000000   0.4000000   0.0000000), wk =   0.0120000
        k(   17) = (  -0.1000000   0.5000000  -0.1000000), wk =   0.0480000
        k(   18) = (  -0.2000000   0.6000000  -0.2000000), wk =   0.0480000
        k(   19) = (   0.7000000  -0.3000000   0.7000000), wk =   0.0480000
        k(   20) = (   0.6000000  -0.2000000   0.6000000), wk =   0.0480000
        k(   21) = (   0.5000000  -0.1000000   0.5000000), wk =   0.0480000
        k(   22) = (   0.4000000   0.0000000   0.4000000), wk =   0.0240000
        k(   23) = (   0.0000000   0.6000000   0.0000000), wk =   0.0120000
        k(   24) = (  -0.1000000   0.7000000  -0.1000000), wk =   0.0480000
        k(   25) = (   0.8000000  -0.2000000   0.8000000), wk =   0.0480000
        k(   26) = (   0.7000000  -0.1000000   0.7000000), wk =   0.0480000
        k(   27) = (   0.6000000  -0.0000000   0.6000000), wk =   0.0240000
        k(   28) = (   0.0000000   0.8000000   0.0000000), wk =   0.0120000
        k(   29) = (   0.9000000  -0.1000000   0.9000000), wk =   0.0480000
        k(   30) = (   0.8000000   0.0000000   0.8000000), wk =   0.0240000
        k(   31) = (   0.0000000  -1.0000000   0.0000000), wk =   0.0060000
        k(   32) = (  -0.2000000   0.4000000   0.0000000), wk =   0.0480000
        k(   33) = (  -0.3000000   0.5000000  -0.1000000), wk =   0.0960000
        k(   34) = (   0.6000000  -0.4000000   0.8000000), wk =   0.0960000
        k(   35) = (   0.5000000  -0.3000000   0.7000000), wk =   0.0480000
        k(   36) = (  -0.2000000   0.6000000   0.0000000), wk =   0.0480000
        k(   37) = (   0.7000000  -0.3000000   0.9000000), wk =   0.0960000
        k(   38) = (   0.6000000  -0.2000000   0.8000000), wk =   0.0960000
        k(   39) = (   0.5000000  -0.1000000   0.7000000), wk =   0.0960000
        k(   40) = (   0.4000000   0.0000000   0.6000000), wk =   0.0480000
        k(   41) = (   0.8000000  -0.2000000   1.0000000), wk =   0.0480000
        k(   42) = (   0.7000000  -0.1000000   0.9000000), wk =   0.0960000
        k(   43) = (   0.6000000   0.0000000   0.8000000), wk =   0.0480000
        k(   44) = (  -0.2000000  -1.0000000   0.0000000), wk =   0.0240000
        k(   45) = (   0.6000000  -0.2000000   1.0000000), wk =   0.0480000
        k(   46) = (   0.5000000  -0.1000000   0.9000000), wk =   0.0480000
        k(   47) = (  -0.4000000  -1.0000000   0.0000000), wk =   0.0240000

     Dense  grid:    18197 G-vectors     FFT dimensions: (  40,  40,  40)

     Estimated max dynamical RAM per process >      35.01 MB

     WARNING: libxc functional with ID  263 depends
      on external parameters: check the user_guide of
      QE if you need to modify them or to check their
      default values.

     Initial potential from superposition of free atoms

     starting charge       7.9987, renormalised to       8.0000
     Starting wfcs are   18 randomized atomic wfcs

     total cpu time spent up to now is       11.8 secs

     Self-consistent Calculation

     iteration #  1     ecut=    50.00 Ry     beta= 0.01
     Davidson diagonalization with overlap
     ethr =  1.00E-02,  avg # of iterations =  1.8

     Threshold (ethr) on eigenvalues was too large:
     Diagonalizing with lowered threshold

     Davidson diagonalization with overlap
     ethr =  2.77E-04,  avg # of iterations =  5.7

     total cpu time spent up to now is       34.8 secs

     total energy              =     -15.74001784 Ry
     estimated scf accuracy    <       0.02816102 Ry

     iteration #  2     ecut=    50.00 Ry     beta= 0.01
     Davidson diagonalization with overlap
     ethr =  3.52E-04,  avg # of iterations =  1.0

     total cpu time spent up to now is       41.1 secs

     total energy              =     -15.74591641 Ry
     estimated scf accuracy    <       0.02825543 Ry

     iteration #  3     ecut=    50.00 Ry     beta= 0.01
     Davidson diagonalization with overlap
     ethr =  3.52E-04,  avg # of iterations =  1.0

     total cpu time spent up to now is       47.0 secs

     total energy              =     -15.79588695 Ry
     estimated scf accuracy    <       0.03310845 Ry

     iteration #  4     ecut=    50.00 Ry     beta= 0.01
     Davidson diagonalization with overlap
     ethr =  3.52E-04,  avg # of iterations =  1.8

     total cpu time spent up to now is       53.5 secs

     total energy              =     -15.79810987 Ry
     estimated scf accuracy    <       0.00293464 Ry

     iteration #  5     ecut=    50.00 Ry     beta= 0.01
     Davidson diagonalization with overlap
     ethr =  3.67E-05,  avg # of iterations =  5.1

     total cpu time spent up to now is       64.7 secs

     total energy              =     -15.79971140 Ry
     estimated scf accuracy    <       0.00346579 Ry

     iteration #  6     ecut=    50.00 Ry     beta= 0.01
     Davidson diagonalization with overlap
     ethr =  3.67E-05,  avg # of iterations =  1.3

     total cpu time spent up to now is       69.9 secs

     total energy              =     -15.79943969 Ry
     estimated scf accuracy    <       0.00356226 Ry

     iteration #  7     ecut=    50.00 Ry     beta= 0.01
     Davidson diagonalization with overlap
     ethr =  3.67E-05,  avg # of iterations =  1.0

     total cpu time spent up to now is       74.5 secs

     total energy              =     -15.79908424 Ry
     estimated scf accuracy    <       0.00154894 Ry

     iteration #  8     ecut=    50.00 Ry     beta= 0.01
     Davidson diagonalization with overlap
     ethr =  1.94E-05,  avg # of iterations =  2.9

     total cpu time spent up to now is       81.0 secs

     total energy              =     -15.79930716 Ry
     estimated scf accuracy    <       0.00019191 Ry

     iteration #  9     ecut=    50.00 Ry     beta= 0.01
     Davidson diagonalization with overlap
     ethr =  2.40E-06,  avg # of iterations =  9.6

     total cpu time spent up to now is       96.0 secs

     total energy              =     -15.79965742 Ry
     estimated scf accuracy    <       0.00010024 Ry

     iteration # 10     ecut=    50.00 Ry     beta= 0.01
     Davidson diagonalization with overlap
     ethr =  1.25E-06,  avg # of iterations =  3.7

     total cpu time spent up to now is      102.4 secs

     total energy              =     -15.79968110 Ry
     estimated scf accuracy    <       0.00007845 Ry

     iteration # 11     ecut=    50.00 Ry     beta= 0.01
     Davidson diagonalization with overlap
     ethr =  9.81E-07,  avg # of iterations =  3.1

     total cpu time spent up to now is      108.6 secs

     total energy              =     -15.79973705 Ry
     estimated scf accuracy    <       0.00000796 Ry

     iteration # 12     ecut=    50.00 Ry     beta= 0.01
     Davidson diagonalization with overlap
     ethr =  9.95E-08,  avg # of iterations = 11.8

     total cpu time spent up to now is      125.8 secs

     total energy              =     -15.79976782 Ry
     estimated scf accuracy    <       0.00014412 Ry

     iteration # 13     ecut=    50.00 Ry     beta= 0.01
     Davidson diagonalization with overlap
     ethr =  9.95E-08,  avg # of iterations =  1.1

     total cpu time spent up to now is      129.8 secs

     total energy              =     -15.79971626 Ry
     estimated scf accuracy    <       0.00013095 Ry

     iteration # 14     ecut=    50.00 Ry     beta= 0.01
     Davidson diagonalization with overlap
     ethr =  9.95E-08,  avg # of iterations =  6.2

     total cpu time spent up to now is      135.9 secs

     total energy              =     -15.79972890 Ry
     estimated scf accuracy    <       0.00000187 Ry

     iteration # 15     ecut=    50.00 Ry     beta= 0.01
     Davidson diagonalization with overlap
     ethr =  2.34E-08,  avg # of iterations =  3.0

     total cpu time spent up to now is      138.4 secs

     End of self-consistent calculation

          k = 0.0000 0.0000 0.0000 (  2277 PWs)   bands (ev):

    -8.0877   1.9552   3.4711   3.4711

          k =-0.1000 0.1000-0.1000 (  2283 PWs)   bands (ev):

    -7.9870   1.0149   3.3029   3.3029

          k =-0.2000 0.2000-0.2000 (  2283 PWs)   bands (ev):

    -7.6926  -0.4624   2.9605   2.9605

          k =-0.3000 0.3000-0.3000 (  2271 PWs)   bands (ev):

    -7.2361  -1.8650   2.6425   2.6425

          k =-0.4000 0.4000-0.4000 (  2277 PWs)   bands (ev):

    -6.7190  -2.9766   2.4333   2.4333

          k = 0.5000-0.5000 0.5000 (  2276 PWs)   bands (ev):

    -6.4445  -3.4529   2.3614   2.3614

          k = 0.0000 0.2000 0.0000 (  2273 PWs)   bands (ev):

    -7.9530   0.8705   3.0165   3.0165

          k =-0.1000 0.3000-0.1000 (  2271 PWs)   bands (ev):

    -7.7213  -0.2240   2.6227   2.6416

          k =-0.2000 0.4000-0.2000 (  2275 PWs)   bands (ev):

    -7.3128  -1.5390   2.1592   2.3423

          k =-0.3000 0.5000-0.3000 (  2287 PWs)   bands (ev):

    -6.7946  -2.7142   1.7686   2.1835

          k = 0.6000-0.4000 0.6000 (  2299 PWs)   bands (ev):

    -6.3858  -3.4344   1.5266   2.1834

          k = 0.5000-0.3000 0.5000 (  2283 PWs)   bands (ev):

    -6.4864  -3.2694   1.4618   2.3372

          k = 0.4000-0.2000 0.4000 (  2281 PWs)   bands (ev):

    -6.9741  -2.3495   1.5930   2.6207

          k = 0.3000-0.1000 0.3000 (  2264 PWs)   bands (ev):

    -7.4683  -1.1100   1.9432   2.9778

          k = 0.2000 0.0000 0.2000 (  2277 PWs)   bands (ev):

    -7.8210   0.1474   2.5512   3.2777

          k = 0.0000 0.4000 0.0000 (  2269 PWs)   bands (ev):

    -7.5521  -0.6785   2.2472   2.2472

          k =-0.1000 0.5000-0.1000 (  2284 PWs)   bands (ev):

    -7.1974  -1.6189   1.7546   1.9372

          k =-0.2000 0.6000-0.2000 (  2288 PWs)   bands (ev):

    -6.6998  -2.6538   1.1716   1.7792

          k = 0.7000-0.3000 0.7000 (  2295 PWs)   bands (ev):

    -6.2051  -3.4690   0.7297   1.7943

          k = 0.6000-0.2000 0.6000 (  2288 PWs)   bands (ev):

    -6.1182  -3.5951   0.5204   1.9776

          k = 0.5000-0.1000 0.5000 (  2295 PWs)   bands (ev):

    -6.5492  -2.9286   0.6003   2.2994

          k = 0.4000 0.0000 0.4000 (  2291 PWs)   bands (ev):

    -7.0673  -1.9850   1.0508   2.6858

          k = 0.0000 0.6000 0.0000 (  2277 PWs)   bands (ev):

    -6.8952  -2.1931   1.6022   1.6022

          k =-0.1000 0.7000-0.1000 (  2295 PWs)   bands (ev):

    -6.4313  -2.9909   1.1246   1.4167

          k = 0.8000-0.2000 0.8000 (  2295 PWs)   bands (ev):

    -5.8944  -3.7466   0.5121   1.4090

          k = 0.7000-0.1000 0.7000 (  2285 PWs)   bands (ev):

    -5.6442  -4.0506   0.1143   1.5789

          k = 0.6000-0.0000 0.6000 (  2301 PWs)   bands (ev):

    -6.0243  -3.5887   0.1051   1.8996

          k = 0.0000 0.8000 0.0000 (  2289 PWs)   bands (ev):

    -6.0002  -3.6117   1.1930   1.1930

          k = 0.9000-0.1000 0.9000 (  2285 PWs)   bands (ev):

    -5.4515  -4.2806   0.8001   1.1458

          k = 0.8000 0.0000 0.8000 (  2283 PWs)   bands (ev):

    -5.1686  -4.5664   0.2833   1.2812

          k = 0.0000-1.0000 0.0000 (  2272 PWs)   bands (ev):

    -4.8940  -4.8940   1.0538   1.0538

          k =-0.2000 0.4000 0.0000 (  2271 PWs)   bands (ev):

    -7.4292  -1.1075   1.7860   2.5573

          k =-0.3000 0.5000-0.1000 (  2288 PWs)   bands (ev):

    -6.9740  -2.1816   1.2066   2.2684

          k = 0.6000-0.4000 0.8000 (  2281 PWs)   bands (ev):

    -6.4506  -3.1489   0.8940   2.0106

          k = 0.5000-0.3000 0.7000 (  2290 PWs)   bands (ev):

    -6.1649  -3.5934   0.7968   1.9129

          k =-0.2000 0.6000 0.0000 (  2285 PWs)   bands (ev):

    -6.7904  -2.4148   1.1781   1.7167

          k = 0.7000-0.3000 0.9000 (  2281 PWs)   bands (ev):

    -6.2654  -3.2604   0.6613   1.4857

          k = 0.6000-0.2000 0.8000 (  2275 PWs)   bands (ev):

    -5.8362  -3.8460   0.3215   1.4444

          k = 0.5000-0.1000 0.7000 (  2284 PWs)   bands (ev):

    -5.9744  -3.6660   0.2444   1.6206

          k = 0.4000 0.0000 0.6000 (  2287 PWs)   bands (ev):

    -6.4878  -2.9486   0.5178   1.9492

          k = 0.8000-0.2000 1.0000 (  2296 PWs)   bands (ev):

    -5.9278  -3.6887   0.8421   1.1128

          k = 0.7000-0.1000 0.9000 (  2288 PWs)   bands (ev):

    -5.4049  -4.2965   0.3764   1.0414

          k = 0.6000 0.0000 0.8000 (  2281 PWs)   bands (ev):

    -5.4585  -4.2290   0.0887   1.2481

          k =-0.2000-1.0000 0.0000 (  2272 PWs)   bands (ev):

    -4.8777  -4.8777   0.8164   0.8164

          k = 0.6000-0.2000 1.0000 (  2286 PWs)   bands (ev):

    -5.7301  -3.9108   0.3181   1.0851

          k = 0.5000-0.1000 0.9000 (  2270 PWs)   bands (ev):

    -5.3742  -4.3087   0.2164   0.9033

          k =-0.4000-1.0000 0.0000 (  2272 PWs)   bands (ev):

    -4.8509  -4.8509   0.5058   0.5058

     highest occupied level (ev):     3.4711

!    total energy              =     -15.79972946 Ry
     estimated scf accuracy    <       0.00000027 Ry

     The total energy is the sum of the following terms:
     one-electron contribution =       2.20359327 Ry
     hartree contribution      =       1.42189924 Ry
     xc contribution           =      -4.46449138 Ry
     ewald contribution        =     -14.96073058 Ry

     convergence has been achieved in  15 iterations
     Writing meta-gga kinetic term

     Writing all to output data dir ./input_pw/Ge/7/pwscf.save/
     Writing meta-gga kinetic term
 
     init_run     :      5.73s CPU     11.66s WALL (       1 calls)
     electrons    :     91.02s CPU    126.64s WALL (       1 calls)

     Called by init_run:
     wfcinit      :      5.59s CPU     11.12s WALL (       1 calls)
     potinit      :      0.05s CPU      0.12s WALL (       1 calls)
     hinit0       :      0.07s CPU      0.31s WALL (       1 calls)

     Called by electrons:
     c_bands      :     78.39s CPU    109.14s WALL (      16 calls)
     sum_band     :     11.38s CPU     15.72s WALL (      16 calls)
     v_of_rho     :      0.70s CPU      0.99s WALL (      16 calls)
     mix_rho      :      0.57s CPU      0.84s WALL (      16 calls)

     Called by c_bands:
     init_us_2    :      0.45s CPU      0.60s WALL (    1551 calls)
     init_us_2:cp :      0.44s CPU      0.60s WALL (    1551 calls)
     cegterg      :     77.83s CPU    108.30s WALL (     752 calls)

     Called by *egterg:
     cdiaghg      :      0.29s CPU      0.45s WALL (    3526 calls)
     h_psi        :     81.67s CPU    117.00s WALL (    3620 calls)
     g_psi        :      0.07s CPU      0.13s WALL (    2821 calls)

     Called by h_psi:
     h_psi:calbec :      0.37s CPU      0.44s WALL (    3620 calls)
     vloc_psi     :     20.28s CPU     29.08s WALL (    3620 calls)
     add_vuspsi   :      0.26s CPU      0.37s WALL (    3620 calls)
     h_psi_meta   :     60.64s CPU     86.87s WALL (    3620 calls)

     General routines
     calbec       :      0.36s CPU      0.43s WALL (    3620 calls)
     fft          :      0.13s CPU      0.36s WALL (     191 calls)
     ffts         :      0.20s CPU      0.33s WALL (     272 calls)
     fftw         :     75.16s CPU    108.30s WALL (  109248 calls)
     interpolate  :      0.00s CPU      0.00s WALL (      16 calls)
 
     Parallel routines
 
     PWSCF        :   1m36.77s CPU   2m18.44s WALL

 
   This run was terminated on:  11:39:17  14Mar2023            

=------------------------------------------------------------------------------=
   JOB DONE.
=------------------------------------------------------------------------------=
