
     Program PWSCF v.7.0 starts on  4Apr2023 at  8:56:52 

     This program is part of the open-source Quantum ESPRESSO suite
     for quantum simulation of materials; please cite
         "P. Giannozzi et al., J. Phys.:Condens. Matter 21 395502 (2009);
         "P. Giannozzi et al., J. Phys.:Condens. Matter 29 465901 (2017);
         "P. Giannozzi et al., J. Chem. Phys. 152 154105 (2020);
          URL http://www.quantum-espresso.org", 
     in publications or presentations arising from this work. More details at
     http://www.quantum-espresso.org/quote

     Parallel version (MPI), running on     1 processors

     MPI processes distributed on     1 nodes
     19213 MiB available memory on the printing compute node when the environment starts
 
     Waiting for input...
     Reading input from standard input
Warning: card &CELL ignored
Warning: card / ignored

     Current dimensions of program PWSCF are:
     Max number of different atomic species (ntypx) = 10
     Max number of k-points (npk) =  40000
     Max angular momentum in pseudopotentials (lmaxx) =  4
     file Al.SCAN.UPF2: wavefunction(s)  0D renormalized

     WARNING: the MGGA functional with ID    5 has been 
     read together with other dft terms, but it should 
     stand alone in order to work properly. The other 
     terms will be ignored.

     Subspace diagonalization in iterative solution of the eigenvalue problem:
     a serial algorithm will be used

 
     G-vector sticks info
     --------------------
     sticks:   dense  smooth     PW     G-vecs:    dense   smooth      PW
     Sum         925     925    283                18643    18643    3119
 
     Using Slab Decomposition
 


     bravais-lattice index     =            2
     lattice parameter (alat)  =      10.5825  a.u.
     unit-cell volume          =     296.2789 (a.u.)^3
     number of atoms/cell      =            1
     number of atomic types    =            1
     number of electrons       =         3.00
     number of Kohn-Sham states=            6
     kinetic-energy cutoff     =      60.0000  Ry
     charge density cutoff     =     240.0000  Ry
     scf convergence threshold =      1.0E-06
     mixing beta               =       0.0100
     number of iterations used =            8  local-TF  mixing
     Exchange-correlation= SLA  PW   SCAN SCAN
                           (   0   0   0   0   0 263 267)

     celldm(1)=  10.582466  celldm(2)=   0.000000  celldm(3)=   0.000000
     celldm(4)=   0.000000  celldm(5)=   0.000000  celldm(6)=   0.000000

     crystal axes: (cart. coord. in units of alat)
               a(1) = (  -0.500000   0.000000   0.500000 )  
               a(2) = (   0.000000   0.500000   0.500000 )  
               a(3) = (  -0.500000   0.500000   0.000000 )  

     reciprocal axes: (cart. coord. in units 2 pi/alat)
               b(1) = ( -1.000000 -1.000000  1.000000 )  
               b(2) = (  1.000000  1.000000  1.000000 )  
               b(3) = ( -1.000000  1.000000 -1.000000 )  


     PseudoPot. # 1 for Al read from file:
     ~/Documents/TA/PWDFT.jl/pseudopotentials/scan_upf/Al.SCAN.UPF2
     MD5 check sum: Not computed, couldn't open file
     Pseudo is Norm-conserving, Zval =  3.0
     Generated by new atomic code, or converted to UPF format
     Using radial grid of 1467 points,  2 beta functions with: 
                l(1) =   0
                l(2) =   1

     atomic species   valence    mass     pseudopotential
        Al             3.00    26.98154     Al( 1.00)

     48 Sym. Ops., with inversion, found



   Cartesian axes

     site n.     atom                  positions (alat units)
         1           Al  tau(   1) = (   0.0000000   0.0000000   0.0000000  )

     number of k points=    47  Gaussian smearing, width (Ry)=  0.1000
                       cart. coord. in units 2pi/alat
        k(    1) = (   0.0000000   0.0000000   0.0000000), wk =   0.0020000
        k(    2) = (  -0.1000000   0.1000000  -0.1000000), wk =   0.0160000
        k(    3) = (  -0.2000000   0.2000000  -0.2000000), wk =   0.0160000
        k(    4) = (  -0.3000000   0.3000000  -0.3000000), wk =   0.0160000
        k(    5) = (  -0.4000000   0.4000000  -0.4000000), wk =   0.0160000
        k(    6) = (   0.5000000  -0.5000000   0.5000000), wk =   0.0080000
        k(    7) = (   0.0000000   0.2000000   0.0000000), wk =   0.0120000
        k(    8) = (  -0.1000000   0.3000000  -0.1000000), wk =   0.0480000
        k(    9) = (  -0.2000000   0.4000000  -0.2000000), wk =   0.0480000
        k(   10) = (  -0.3000000   0.5000000  -0.3000000), wk =   0.0480000
        k(   11) = (   0.6000000  -0.4000000   0.6000000), wk =   0.0480000
        k(   12) = (   0.5000000  -0.3000000   0.5000000), wk =   0.0480000
        k(   13) = (   0.4000000  -0.2000000   0.4000000), wk =   0.0480000
        k(   14) = (   0.3000000  -0.1000000   0.3000000), wk =   0.0480000
        k(   15) = (   0.2000000   0.0000000   0.2000000), wk =   0.0240000
        k(   16) = (   0.0000000   0.4000000   0.0000000), wk =   0.0120000
        k(   17) = (  -0.1000000   0.5000000  -0.1000000), wk =   0.0480000
        k(   18) = (  -0.2000000   0.6000000  -0.2000000), wk =   0.0480000
        k(   19) = (   0.7000000  -0.3000000   0.7000000), wk =   0.0480000
        k(   20) = (   0.6000000  -0.2000000   0.6000000), wk =   0.0480000
        k(   21) = (   0.5000000  -0.1000000   0.5000000), wk =   0.0480000
        k(   22) = (   0.4000000   0.0000000   0.4000000), wk =   0.0240000
        k(   23) = (   0.0000000   0.6000000   0.0000000), wk =   0.0120000
        k(   24) = (  -0.1000000   0.7000000  -0.1000000), wk =   0.0480000
        k(   25) = (   0.8000000  -0.2000000   0.8000000), wk =   0.0480000
        k(   26) = (   0.7000000  -0.1000000   0.7000000), wk =   0.0480000
        k(   27) = (   0.6000000  -0.0000000   0.6000000), wk =   0.0240000
        k(   28) = (   0.0000000   0.8000000   0.0000000), wk =   0.0120000
        k(   29) = (   0.9000000  -0.1000000   0.9000000), wk =   0.0480000
        k(   30) = (   0.8000000   0.0000000   0.8000000), wk =   0.0240000
        k(   31) = (   0.0000000  -1.0000000   0.0000000), wk =   0.0060000
        k(   32) = (  -0.2000000   0.4000000   0.0000000), wk =   0.0480000
        k(   33) = (  -0.3000000   0.5000000  -0.1000000), wk =   0.0960000
        k(   34) = (   0.6000000  -0.4000000   0.8000000), wk =   0.0960000
        k(   35) = (   0.5000000  -0.3000000   0.7000000), wk =   0.0480000
        k(   36) = (  -0.2000000   0.6000000   0.0000000), wk =   0.0480000
        k(   37) = (   0.7000000  -0.3000000   0.9000000), wk =   0.0960000
        k(   38) = (   0.6000000  -0.2000000   0.8000000), wk =   0.0960000
        k(   39) = (   0.5000000  -0.1000000   0.7000000), wk =   0.0960000
        k(   40) = (   0.4000000   0.0000000   0.6000000), wk =   0.0480000
        k(   41) = (   0.8000000  -0.2000000   1.0000000), wk =   0.0480000
        k(   42) = (   0.7000000  -0.1000000   0.9000000), wk =   0.0960000
        k(   43) = (   0.6000000   0.0000000   0.8000000), wk =   0.0480000
        k(   44) = (  -0.2000000  -1.0000000   0.0000000), wk =   0.0240000
        k(   45) = (   0.6000000  -0.2000000   1.0000000), wk =   0.0480000
        k(   46) = (   0.5000000  -0.1000000   0.9000000), wk =   0.0480000
        k(   47) = (  -0.4000000  -1.0000000   0.0000000), wk =   0.0240000

     Dense  grid:    18643 G-vectors     FFT dimensions: (  40,  40,  40)

     Estimated max dynamical RAM per process >      38.91 MB

     WARNING: libxc functional with ID  263 depends
      on external parameters: check the user_guide of
      QE if you need to modify them or to check their
      default values.

     Initial potential from superposition of free atoms

     starting charge       2.9979, renormalised to       3.0000
     Starting wfcs are    9 randomized atomic wfcs

     total cpu time spent up to now is        6.0 secs

     Self-consistent Calculation

     iteration #  1     ecut=    60.00 Ry     beta= 0.01
     Davidson diagonalization with overlap
     ethr =  1.00E-02,  avg # of iterations =  3.0

     Threshold (ethr) on eigenvalues was too large:
     Diagonalizing with lowered threshold

     Davidson diagonalization with overlap
     ethr =  1.37E-04,  avg # of iterations =  2.2

     total cpu time spent up to now is       29.3 secs

     total energy              =      -4.04256356 Ry
     estimated scf accuracy    <       0.00394196 Ry

     iteration #  2     ecut=    60.00 Ry     beta= 0.01
     Davidson diagonalization with overlap
     ethr =  1.31E-04,  avg # of iterations =  1.0

     total cpu time spent up to now is       39.8 secs

     total energy              =      -4.04587943 Ry
     estimated scf accuracy    <       0.00384776 Ry

     iteration #  3     ecut=    60.00 Ry     beta= 0.01
     Davidson diagonalization with overlap
     ethr =  1.28E-04,  avg # of iterations =  2.0

     total cpu time spent up to now is       50.5 secs

     total energy              =      -4.04658608 Ry
     estimated scf accuracy    <       0.00040188 Ry

     iteration #  4     ecut=    60.00 Ry     beta= 0.01
     Davidson diagonalization with overlap
     ethr =  1.34E-05,  avg # of iterations =  2.3

     total cpu time spent up to now is       61.5 secs

     total energy              =      -4.04674411 Ry
     estimated scf accuracy    <       0.00010922 Ry

     iteration #  5     ecut=    60.00 Ry     beta= 0.01
     Davidson diagonalization with overlap
     ethr =  3.64E-06,  avg # of iterations =  1.3

     total cpu time spent up to now is       69.2 secs

     total energy              =      -4.04676126 Ry
     estimated scf accuracy    <       0.00012675 Ry

     iteration #  6     ecut=    60.00 Ry     beta= 0.01
     Davidson diagonalization with overlap
     ethr =  3.64E-06,  avg # of iterations =  1.0

     total cpu time spent up to now is       77.7 secs

     total energy              =      -4.04679258 Ry
     estimated scf accuracy    <       0.00006492 Ry

     iteration #  7     ecut=    60.00 Ry     beta= 0.01
     Davidson diagonalization with overlap
     ethr =  2.16E-06,  avg # of iterations =  2.3

     total cpu time spent up to now is       90.2 secs

     End of self-consistent calculation

          k = 0.0000 0.0000 0.0000 (  2277 PWs)   bands (ev):

    -5.5891   6.6726   6.6726   6.6726   9.9750   9.9750

          k =-0.1000 0.1000-0.1000 (  2319 PWs)   bands (ev):

    -5.4484   5.6244   6.5142   6.5142   9.7399  10.2676

          k =-0.2000 0.2000-0.2000 (  2319 PWs)   bands (ev):

    -5.0310   3.7105   6.2000   6.2000   9.2477  10.5611

          k =-0.3000 0.3000-0.3000 (  2325 PWs)   bands (ev):

    -4.3579   1.8014   5.9249   5.9249   8.8697  10.0952

          k =-0.4000 0.4000-0.4000 (  2334 PWs)   bands (ev):

    -3.5105   0.1764   5.7571   5.7571   8.6584   9.6091

          k = 0.5000-0.5000 0.5000 (  2332 PWs)   bands (ev):

    -2.9520  -0.6457   5.7026   5.7026   8.5931   9.4288

          k = 0.0000 0.2000 0.0000 (  2317 PWs)   bands (ev):

    -5.4014   6.0096   6.1015   6.1015   9.1201  10.7800

          k =-0.1000 0.3000-0.1000 (  2311 PWs)   bands (ev):

    -5.0758   4.3984   5.6701   5.9890   8.9623  10.5496

          k =-0.2000 0.4000-0.2000 (  2324 PWs)   bands (ev):

    -4.4855   2.5014   5.3771   5.5906   8.8659  10.0824

          k =-0.3000 0.5000-0.3000 (  2335 PWs)   bands (ev):

    -3.6809   0.7759   5.1681   5.2740   8.5783   9.8210

          k = 0.6000-0.4000 0.6000 (  2324 PWs)   bands (ev):

    -2.9202  -0.4156   4.8299   5.3641   8.5434   9.6608

          k = 0.5000-0.3000 0.5000 (  2342 PWs)   bands (ev):

    -3.1265  -0.1214   4.6353   5.6212   8.8302   9.6256

          k = 0.4000-0.2000 0.4000 (  2331 PWs)   bands (ev):

    -3.9671   1.3204   4.6292   5.9913   9.3347   9.8023

          k = 0.3000-0.1000 0.3000 (  2329 PWs)   bands (ev):

    -4.7108   3.1266   4.8452   6.3830   9.7229  10.3552

          k = 0.2000 0.0000 0.2000 (  2309 PWs)   bands (ev):

    -5.2152   4.8501   5.4325   6.6296   9.8274  10.3592

          k = 0.0000 0.4000 0.0000 (  2297 PWs)   bands (ev):

    -4.8432   4.6167   5.1460   5.1460   7.8998   9.1677

          k =-0.1000 0.5000-0.1000 (  2320 PWs)   bands (ev):

    -4.3425   3.2135   4.6753   4.7861   7.8115   8.6645

          k =-0.2000 0.6000-0.2000 (  2329 PWs)   bands (ev):

    -3.6076   1.5645   3.9921   4.6426   7.5548   9.6925

          k = 0.7000-0.3000 0.7000 (  2326 PWs)   bands (ev):

    -2.7872   0.2032   3.4047   4.7275   7.5246  10.8147

          k = 0.6000-0.2000 0.6000 (  2318 PWs)   bands (ev):

    -2.5995  -0.0529   3.0171   5.0288   7.8336  11.0874

          k = 0.5000-0.1000 0.5000 (  2328 PWs)   bands (ev):

    -3.3406   1.0978   2.8856   5.5044   8.4563  11.0389

          k = 0.4000 0.0000 0.4000 (  2331 PWs)   bands (ev):

    -4.1298   2.5191   3.2586   6.0447   9.3345  10.7066

          k = 0.0000 0.6000 0.0000 (  2329 PWs)   bands (ev):

    -3.9340   2.9255   4.3523   4.3523   6.9537   7.3630

          k =-0.1000 0.7000-0.1000 (  2336 PWs)   bands (ev):

    -3.2864   1.8976   3.4691   4.1397   6.7877   7.6531

          k = 0.8000-0.2000 0.8000 (  2332 PWs)   bands (ev):

    -2.5017   0.8593   2.3647   4.1666   6.7321   9.2171

          k = 0.7000-0.1000 0.7000 (  2323 PWs)   bands (ev):

    -2.0607   0.3949   1.6285   4.4299   7.0052  11.0460

          k = 0.6000-0.0000 0.6000 (  2323 PWs)   bands (ev):

    -2.5712   1.0309   1.4744   4.9029   7.5916  12.5559

          k = 0.0000 0.8000 0.0000 (  2337 PWs)   bands (ev):

    -2.7420   1.1384   3.8518   3.8518   6.3423   6.3726

          k = 0.9000-0.1000 0.9000 (  2325 PWs)   bands (ev):

    -2.0880   0.4278   2.9089   3.8054   6.2488   7.2231

          k = 0.8000 0.0000 0.8000 (  2324 PWs)   bands (ev):

    -1.7550   0.3626   1.6713   4.0035   6.4705   9.0474

          k = 0.0000-1.0000 0.0000 (  2346 PWs)   bands (ev):

    -1.8172  -0.0125   3.6819   3.6819   6.0222   6.1774

          k =-0.2000 0.4000 0.0000 (  2321 PWs)   bands (ev):

    -4.6626   3.6336   4.3824   5.8714   8.9764   9.6871

          k =-0.3000 0.5000-0.1000 (  2327 PWs)   bands (ev):

    -3.9974   2.0600   3.8379   5.4180   8.9215   9.8570

          k = 0.6000-0.4000 0.8000 (  2334 PWs)   bands (ev):

    -3.1647   0.5083   3.7011   4.9536   8.7234   9.6402

          k = 0.5000-0.3000 0.7000 (  2328 PWs)   bands (ev):

    -2.6231  -0.2837   3.6870   4.7570   8.6940   9.4329

          k =-0.2000 0.6000 0.0000 (  2335 PWs)   bands (ev):

    -3.7664   2.4722   3.5356   4.4502   8.1160   8.1651

          k = 0.7000-0.3000 0.9000 (  2336 PWs)   bands (ev):

    -2.9918   1.2616   2.8629   3.9595   7.9808   9.4833

          k = 0.6000-0.2000 0.8000 (  2326 PWs)   bands (ev):

    -2.2903   0.2638   2.4202   3.8942   8.1129  10.5270

          k = 0.5000-0.1000 0.7000 (  2321 PWs)   bands (ev):

    -2.4922   0.5617   2.1525   4.2215   8.4998  10.4476

          k = 0.4000 0.0000 0.6000 (  2328 PWs)   bands (ev):

    -3.2832   1.6402   2.3751   4.8035   9.0303  10.2835

          k = 0.8000-0.2000 1.0000 (  2325 PWs)   bands (ev):

    -2.6078   1.1451   3.0075   3.3670   7.3542   7.5743

          k = 0.7000-0.1000 0.9000 (  2324 PWs)   bands (ev):

    -1.9381   0.6185   1.8852   3.2741   7.5380   9.1761

          k = 0.6000 0.0000 0.8000 (  2321 PWs)   bands (ev):

    -1.8926   0.9204   1.0211   3.6144   7.9115  10.9947

          k =-0.2000-1.0000 0.0000 (  2328 PWs)   bands (ev):

    -1.7521   0.1752   2.8291   3.0304   7.1023   7.3909

          k = 0.6000-0.2000 1.0000 (  2312 PWs)   bands (ev):

    -2.2579   1.0333   1.8294   3.1325   9.0555   9.8101

          k = 0.5000-0.1000 0.9000 (  2310 PWs)   bands (ev):

    -1.8290   0.7295   1.5392   2.8079   9.2054  10.4918

          k =-0.4000-1.0000 0.0000 (  2318 PWs)   bands (ev):

    -1.6353   0.7342   1.6456   2.3449   8.9822   9.6443

     the Fermi energy is     0.9066 ev

!    total energy              =      -4.04681766 Ry
     estimated scf accuracy    <       0.00000089 Ry
     smearing contrib. (-TS)   =      -0.05052910 Ry
     internal energy E=F+TS    =      -3.99628856 Ry

     The total energy is F=E-TS. E is the sum of the following terms:
     one-electron contribution =       1.05109034 Ry
     hartree contribution      =       0.11042115 Ry
     xc contribution           =      -1.25854278 Ry
     ewald contribution        =      -3.89925727 Ry

     convergence has been achieved in   7 iterations
     Writing meta-gga kinetic term

     Writing all to output data dir ./input_pw/Al/5/pwscf.save/
     Writing meta-gga kinetic term
 
     init_run     :      3.00s CPU      5.87s WALL (       1 calls)
     electrons    :     47.72s CPU     84.28s WALL (       1 calls)

     Called by init_run:
     wfcinit      :      2.86s CPU      5.48s WALL (       1 calls)
     potinit      :      0.04s CPU      0.15s WALL (       1 calls)
     hinit0       :      0.07s CPU      0.19s WALL (       1 calls)

     Called by electrons:
     c_bands      :     38.48s CPU     67.37s WALL (       8 calls)
     sum_band     :      8.73s CPU     15.92s WALL (       8 calls)
     v_of_rho     :      0.34s CPU      0.72s WALL (       8 calls)
     mix_rho      :      0.19s CPU      0.39s WALL (       8 calls)

     Called by c_bands:
     init_us_2    :      0.22s CPU      0.39s WALL (     799 calls)
     init_us_2:cp :      0.21s CPU      0.39s WALL (     799 calls)
     cegterg      :     38.25s CPU     66.97s WALL (     376 calls)

     Called by *egterg:
     cdiaghg      :      0.11s CPU      0.17s WALL (    1039 calls)
     h_psi        :     40.37s CPU     71.06s WALL (    1133 calls)
     g_psi        :      0.03s CPU      0.06s WALL (     710 calls)

     Called by h_psi:
     h_psi:calbec :      0.12s CPU      0.17s WALL (    1133 calls)
     vloc_psi     :     10.01s CPU     17.71s WALL (    1133 calls)
     add_vuspsi   :      0.08s CPU      0.17s WALL (    1133 calls)
     h_psi_meta   :     30.11s CPU     52.93s WALL (    1133 calls)

     General routines
     calbec       :      0.11s CPU      0.17s WALL (    1133 calls)
     fft          :      0.07s CPU      0.18s WALL (      95 calls)
     ffts         :      0.08s CPU      0.14s WALL (     106 calls)
     fftw         :     39.81s CPU     70.87s WALL (   57272 calls)
     interpolate  :      0.00s CPU      0.00s WALL (       8 calls)
 
     Parallel routines
 
     PWSCF        :     50.76s CPU   1m30.33s WALL

 
   This run was terminated on:   8:58:22   4Apr2023            

=------------------------------------------------------------------------------=
   JOB DONE.
=------------------------------------------------------------------------------=
