
     Program PWSCF v.7.0 starts on 21Mar2023 at 13:11:34 

     This program is part of the open-source Quantum ESPRESSO suite
     for quantum simulation of materials; please cite
         "P. Giannozzi et al., J. Phys.:Condens. Matter 21 395502 (2009);
         "P. Giannozzi et al., J. Phys.:Condens. Matter 29 465901 (2017);
         "P. Giannozzi et al., J. Chem. Phys. 152 154105 (2020);
          URL http://www.quantum-espresso.org", 
     in publications or presentations arising from this work. More details at
     http://www.quantum-espresso.org/quote

     Parallel version (MPI), running on     1 processors

     MPI processes distributed on     1 nodes
     24712 MiB available memory on the printing compute node when the environment starts
 
     Waiting for input...
     Reading input from standard input
Warning: card &CELL ignored
Warning: card / ignored

     Current dimensions of program PWSCF are:
     Max number of different atomic species (ntypx) = 10
     Max number of k-points (npk) =  40000
     Max angular momentum in pseudopotentials (lmaxx) =  4
     file Al.SCAN.UPF2: wavefunction(s)  0D renormalized

     WARNING: the MGGA functional with ID    5 has been 
     read together with other dft terms, but it should 
     stand alone in order to work properly. The other 
     terms will be ignored.

     Subspace diagonalization in iterative solution of the eigenvalue problem:
     a serial algorithm will be used

 
     G-vector sticks info
     --------------------
     sticks:   dense  smooth     PW     G-vecs:    dense   smooth      PW
     Sum        1531    1531    439                39357    39357    6183
 
     Using Slab Decomposition
 


     bravais-lattice index     =            2
     lattice parameter (alat)  =      13.5947  a.u.
     unit-cell volume          =     628.1276 (a.u.)^3
     number of atoms/cell      =            1
     number of atomic types    =            1
     number of electrons       =         3.00
     number of Kohn-Sham states=            6
     kinetic-energy cutoff     =      60.0000  Ry
     charge density cutoff     =     240.0000  Ry
     scf convergence threshold =      1.0E-06
     mixing beta               =       0.0100
     number of iterations used =            8  local-TF  mixing
     Exchange-correlation= SLA  PW   SCAN SCAN
                           (   0   0   0   0   0 263 267)

     celldm(1)=  13.594690  celldm(2)=   0.000000  celldm(3)=   0.000000
     celldm(4)=   0.000000  celldm(5)=   0.000000  celldm(6)=   0.000000

     crystal axes: (cart. coord. in units of alat)
               a(1) = (  -0.500000   0.000000   0.500000 )  
               a(2) = (   0.000000   0.500000   0.500000 )  
               a(3) = (  -0.500000   0.500000   0.000000 )  

     reciprocal axes: (cart. coord. in units 2 pi/alat)
               b(1) = ( -1.000000 -1.000000  1.000000 )  
               b(2) = (  1.000000  1.000000  1.000000 )  
               b(3) = ( -1.000000  1.000000 -1.000000 )  


     PseudoPot. # 1 for Al read from file:
     ~/Documents/TA/PWDFT.jl/pseudopotentials/scan_upf/Al.SCAN.UPF2
     MD5 check sum: Not computed, couldn't open file
     Pseudo is Norm-conserving, Zval =  3.0
     Generated by new atomic code, or converted to UPF format
     Using radial grid of 1467 points,  2 beta functions with: 
                l(1) =   0
                l(2) =   1

     atomic species   valence    mass     pseudopotential
        Al             3.00    26.98154     Al( 1.00)

     48 Sym. Ops., with inversion, found



   Cartesian axes

     site n.     atom                  positions (alat units)
         1           Al  tau(   1) = (   0.0000000   0.0000000   0.0000000  )

     number of k points=    47  Gaussian smearing, width (Ry)=  0.1000
                       cart. coord. in units 2pi/alat
        k(    1) = (   0.0000000   0.0000000   0.0000000), wk =   0.0020000
        k(    2) = (  -0.1000000   0.1000000  -0.1000000), wk =   0.0160000
        k(    3) = (  -0.2000000   0.2000000  -0.2000000), wk =   0.0160000
        k(    4) = (  -0.3000000   0.3000000  -0.3000000), wk =   0.0160000
        k(    5) = (  -0.4000000   0.4000000  -0.4000000), wk =   0.0160000
        k(    6) = (   0.5000000  -0.5000000   0.5000000), wk =   0.0080000
        k(    7) = (   0.0000000   0.2000000   0.0000000), wk =   0.0120000
        k(    8) = (  -0.1000000   0.3000000  -0.1000000), wk =   0.0480000
        k(    9) = (  -0.2000000   0.4000000  -0.2000000), wk =   0.0480000
        k(   10) = (  -0.3000000   0.5000000  -0.3000000), wk =   0.0480000
        k(   11) = (   0.6000000  -0.4000000   0.6000000), wk =   0.0480000
        k(   12) = (   0.5000000  -0.3000000   0.5000000), wk =   0.0480000
        k(   13) = (   0.4000000  -0.2000000   0.4000000), wk =   0.0480000
        k(   14) = (   0.3000000  -0.1000000   0.3000000), wk =   0.0480000
        k(   15) = (   0.2000000   0.0000000   0.2000000), wk =   0.0240000
        k(   16) = (   0.0000000   0.4000000   0.0000000), wk =   0.0120000
        k(   17) = (  -0.1000000   0.5000000  -0.1000000), wk =   0.0480000
        k(   18) = (  -0.2000000   0.6000000  -0.2000000), wk =   0.0480000
        k(   19) = (   0.7000000  -0.3000000   0.7000000), wk =   0.0480000
        k(   20) = (   0.6000000  -0.2000000   0.6000000), wk =   0.0480000
        k(   21) = (   0.5000000  -0.1000000   0.5000000), wk =   0.0480000
        k(   22) = (   0.4000000   0.0000000   0.4000000), wk =   0.0240000
        k(   23) = (   0.0000000   0.6000000   0.0000000), wk =   0.0120000
        k(   24) = (  -0.1000000   0.7000000  -0.1000000), wk =   0.0480000
        k(   25) = (   0.8000000  -0.2000000   0.8000000), wk =   0.0480000
        k(   26) = (   0.7000000  -0.1000000   0.7000000), wk =   0.0480000
        k(   27) = (   0.6000000  -0.0000000   0.6000000), wk =   0.0240000
        k(   28) = (   0.0000000   0.8000000   0.0000000), wk =   0.0120000
        k(   29) = (   0.9000000  -0.1000000   0.9000000), wk =   0.0480000
        k(   30) = (   0.8000000   0.0000000   0.8000000), wk =   0.0240000
        k(   31) = (   0.0000000  -1.0000000   0.0000000), wk =   0.0060000
        k(   32) = (  -0.2000000   0.4000000   0.0000000), wk =   0.0480000
        k(   33) = (  -0.3000000   0.5000000  -0.1000000), wk =   0.0960000
        k(   34) = (   0.6000000  -0.4000000   0.8000000), wk =   0.0960000
        k(   35) = (   0.5000000  -0.3000000   0.7000000), wk =   0.0480000
        k(   36) = (  -0.2000000   0.6000000   0.0000000), wk =   0.0480000
        k(   37) = (   0.7000000  -0.3000000   0.9000000), wk =   0.0960000
        k(   38) = (   0.6000000  -0.2000000   0.8000000), wk =   0.0960000
        k(   39) = (   0.5000000  -0.1000000   0.7000000), wk =   0.0960000
        k(   40) = (   0.4000000   0.0000000   0.6000000), wk =   0.0480000
        k(   41) = (   0.8000000  -0.2000000   1.0000000), wk =   0.0480000
        k(   42) = (   0.7000000  -0.1000000   0.9000000), wk =   0.0960000
        k(   43) = (   0.6000000   0.0000000   0.8000000), wk =   0.0480000
        k(   44) = (  -0.2000000  -1.0000000   0.0000000), wk =   0.0240000
        k(   45) = (   0.6000000  -0.2000000   1.0000000), wk =   0.0480000
        k(   46) = (   0.5000000  -0.1000000   0.9000000), wk =   0.0480000
        k(   47) = (  -0.4000000  -1.0000000   0.0000000), wk =   0.0240000

     Dense  grid:    39357 G-vectors     FFT dimensions: (  48,  48,  48)

     Estimated max dynamical RAM per process >      79.32 MB

     WARNING: libxc functional with ID  263 depends
      on external parameters: check the user_guide of
      QE if you need to modify them or to check their
      default values.

     Initial potential from superposition of free atoms

     starting charge       2.9979, renormalised to       3.0000
     Starting wfcs are    9 randomized atomic wfcs

     total cpu time spent up to now is       14.0 secs

     Self-consistent Calculation

     iteration #  1     ecut=    60.00 Ry     beta= 0.01
     Davidson diagonalization with overlap
     ethr =  1.00E-02,  avg # of iterations =  2.4

     Threshold (ethr) on eigenvalues was too large:
     Diagonalizing with lowered threshold

     Davidson diagonalization with overlap
     ethr =  1.01E-04,  avg # of iterations =  3.1

     total cpu time spent up to now is       75.0 secs

     total energy              =      -3.97039216 Ry
     estimated scf accuracy    <       0.00320251 Ry

     iteration #  2     ecut=    60.00 Ry     beta= 0.01
     Davidson diagonalization with overlap
     ethr =  1.07E-04,  avg # of iterations =  1.0

     total cpu time spent up to now is      100.8 secs

     total energy              =      -3.98076670 Ry
     estimated scf accuracy    <       0.00315370 Ry

     iteration #  3     ecut=    60.00 Ry     beta= 0.01
     Davidson diagonalization with overlap
     ethr =  1.05E-04,  avg # of iterations =  2.0

     total cpu time spent up to now is      134.6 secs

     total energy              =      -3.98203206 Ry
     estimated scf accuracy    <       0.00006932 Ry

     iteration #  4     ecut=    60.00 Ry     beta= 0.01
     Davidson diagonalization with overlap
     ethr =  2.31E-06,  avg # of iterations =  4.6

     total cpu time spent up to now is      176.1 secs

     total energy              =      -3.98187064 Ry
     estimated scf accuracy    <       0.00004982 Ry

     iteration #  5     ecut=    60.00 Ry     beta= 0.01
     Davidson diagonalization with overlap
     ethr =  1.66E-06,  avg # of iterations =  2.1

     total cpu time spent up to now is      207.7 secs

     total energy              =      -3.98199239 Ry
     estimated scf accuracy    <       0.00006833 Ry

     iteration #  6     ecut=    60.00 Ry     beta= 0.01
     Davidson diagonalization with overlap
     ethr =  1.66E-06,  avg # of iterations =  2.0

     total cpu time spent up to now is      234.5 secs

     total energy              =      -3.98198802 Ry
     estimated scf accuracy    <       0.00004163 Ry

     iteration #  7     ecut=    60.00 Ry     beta= 0.01
     Davidson diagonalization with overlap
     ethr =  1.39E-06,  avg # of iterations =  2.0

     total cpu time spent up to now is      267.9 secs

     End of self-consistent calculation

          k = 0.0000 0.0000 0.0000 (  4957 PWs)   bands (ev):

    -6.2217   1.1604   1.1604   1.1604   3.3641   5.5572

          k =-0.1000 0.1000-0.1000 (  4960 PWs)   bands (ev):

    -6.1680   0.7375   1.1234   1.1234   3.6973   5.3353

          k =-0.2000 0.2000-0.2000 (  4906 PWs)   bands (ev):

    -6.0164  -0.0689   1.0338   1.0338   3.9893   5.4126

          k =-0.3000 0.3000-0.3000 (  4921 PWs)   bands (ev):

    -5.8014  -0.8534   0.9351   0.9351   3.8415   5.5546

          k =-0.4000 0.4000-0.4000 (  4931 PWs)   bands (ev):

    -5.5949  -1.4288   0.8631   0.8631   3.6727   5.3143

          k = 0.5000-0.5000 0.5000 (  4940 PWs)   bands (ev):

    -5.5051  -1.6453   0.8372   0.8372   3.6111   5.2241

          k = 0.0000 0.2000 0.0000 (  4933 PWs)   bands (ev):

    -6.1500   0.7568   1.0305   1.0305   3.8305   5.0831

          k =-0.1000 0.3000-0.1000 (  4903 PWs)   bands (ev):

    -6.0309   0.1494   0.9029   0.9558   4.2026   4.8882

          k =-0.2000 0.4000-0.2000 (  4911 PWs)   bands (ev):

    -5.8356  -0.6013   0.7944   0.8298   4.1334   5.2409

          k =-0.3000 0.5000-0.3000 (  4931 PWs)   bands (ev):

    -5.6215  -1.2270   0.6790   0.7401   3.9729   4.9330

          k = 0.6000-0.4000 0.6000 (  4940 PWs)   bands (ev):

    -5.4858  -1.5598   0.5593   0.7527   3.9105   4.7974

          k = 0.5000-0.3000 0.5000 (  4932 PWs)   bands (ev):

    -5.5161  -1.4882   0.5053   0.8270   3.9582   4.8684

          k = 0.4000-0.2000 0.4000 (  4917 PWs)   bands (ev):

    -5.6907  -1.0403   0.5357   0.9418   4.1036   5.1380

          k = 0.3000-0.1000 0.3000 (  4912 PWs)   bands (ev):

    -5.9074  -0.3636   0.6582   1.0604   4.2833   5.2908

          k = 0.2000 0.0000 0.2000 (  4928 PWs)   bands (ev):

    -6.0814   0.3248   0.8806   1.1343   4.0812   5.0842

          k = 0.0000 0.4000 0.0000 (  4933 PWs)   bands (ev):

    -5.9478   0.0321   0.7362   0.7362   4.2764   4.3832

          k =-0.1000 0.5000-0.1000 (  4923 PWs)   bands (ev):

    -5.7846  -0.4617   0.5578   0.6004   4.0501   4.3433

          k =-0.2000 0.6000-0.2000 (  4946 PWs)   bands (ev):

    -5.5861  -0.9877   0.2955   0.5354   3.8486   4.6895

          k = 0.7000-0.3000 0.7000 (  4936 PWs)   bands (ev):

    -5.4317  -1.3368   0.0427   0.5561   3.8183   4.9097

          k = 0.6000-0.2000 0.6000 (  4947 PWs)   bands (ev):

    -5.4092  -1.3752  -0.1117   0.6566   3.9806   4.9422

          k = 0.5000-0.1000 0.5000 (  4921 PWs)   bands (ev):

    -5.5334  -1.1022  -0.1043   0.8108   4.3270   4.9997

          k = 0.4000 0.0000 0.4000 (  4910 PWs)   bands (ev):

    -5.7283  -0.7017   0.1551   0.9685   4.7516   5.1224

          k = 0.0000 0.6000 0.0000 (  4917 PWs)   bands (ev):

    -5.6599  -0.6540   0.4340   0.4340   3.5829   3.8344

          k =-0.1000 0.7000-0.1000 (  4920 PWs)   bands (ev):

    -5.4967  -0.9685   0.1769   0.3434   3.3518   3.8794

          k = 0.8000-0.2000 0.8000 (  4943 PWs)   bands (ev):

    -5.3567  -1.1617  -0.2514   0.3484   3.3331   4.4402

          k = 0.7000-0.1000 0.7000 (  4943 PWs)   bands (ev):

    -5.3103  -1.1304  -0.6276   0.4478   3.4965   5.1736

          k = 0.6000-0.0000 0.6000 (  4944 PWs)   bands (ev):

    -5.3835  -1.0493  -0.6297   0.6188   3.8459   5.6217

          k = 0.0000 0.8000 0.0000 (  4936 PWs)   bands (ev):

    -5.3818  -1.1673   0.2230   0.2230   2.9387   3.4961

          k = 0.9000-0.1000 0.9000 (  4930 PWs)   bands (ev):

    -5.2883  -1.2760  -0.0465   0.2009   2.9296   3.6591

          k = 0.8000 0.0000 0.8000 (  4926 PWs)   bands (ev):

    -5.2608  -1.1755  -0.5109   0.2813   3.1414   4.3534

          k = 0.0000-1.0000 0.0000 (  4880 PWs)   bands (ev):

    -5.2599  -1.3667   0.1484   0.1484   2.7095   3.3823

          k =-0.2000 0.4000 0.0000 (  4912 PWs)   bands (ev):

    -5.8892  -0.2684   0.5490   0.9170   4.5168   4.6695

          k =-0.3000 0.5000-0.1000 (  4920 PWs)   bands (ev):

    -5.6903  -0.8151   0.2825   0.8010   4.3956   4.8651

          k = 0.6000-0.4000 0.8000 (  4924 PWs)   bands (ev):

    -5.5027  -1.2786   0.1561   0.6717   4.3048   4.5748

          k = 0.5000-0.3000 0.7000 (  4950 PWs)   bands (ev):

    -5.4223  -1.4604   0.1215   0.6164   4.3341   4.4005

          k =-0.2000 0.6000 0.0000 (  4931 PWs)   bands (ev):

    -5.6193  -0.7794   0.2168   0.5111   3.9044   4.2156

          k = 0.7000-0.3000 0.9000 (  4926 PWs)   bands (ev):

    -5.4465  -1.0770  -0.1000   0.3763   3.8371   4.6158

          k = 0.6000-0.2000 0.8000 (  4939 PWs)   bands (ev):

    -5.3444  -1.2273  -0.3467   0.3532   3.8941   4.9648

          k = 0.5000-0.1000 0.7000 (  4936 PWs)   bands (ev):

    -5.3726  -1.1603  -0.4333   0.4612   4.1022   5.0080

          k = 0.4000 0.0000 0.6000 (  4931 PWs)   bands (ev):

    -5.5129  -0.9867  -0.2223   0.6438   4.4209   5.0932

          k = 0.8000-0.2000 1.0000 (  4932 PWs)   bands (ev):

    -5.3642  -1.1366  -0.0118   0.1527   3.3057   3.9172

          k = 0.7000-0.1000 0.9000 (  4934 PWs)   bands (ev):

    -5.2787  -1.1337  -0.4325   0.1136   3.4746   4.4680

          k = 0.6000 0.0000 0.8000 (  4935 PWs)   bands (ev):

    -5.2830  -0.8986  -0.8620   0.2430   3.7285   5.1975

          k =-0.2000-1.0000 0.0000 (  4928 PWs)   bands (ev):

    -5.2547  -1.2707  -0.0921   0.0113   3.0999   3.8149

          k = 0.6000-0.2000 1.0000 (  4946 PWs)   bands (ev):

    -5.3229  -1.0483  -0.4756   0.1226   4.0396   4.9213

          k = 0.5000-0.1000 0.9000 (  4942 PWs)   bands (ev):

    -5.2727  -0.9700  -0.6754   0.0053   4.0916   5.2138

          k =-0.4000-1.0000 0.0000 (  4946 PWs)   bands (ev):

    -5.2463  -0.9914  -0.5636  -0.1715   3.9014   4.8502

     the Fermi energy is    -1.3295 ev

!    total energy              =      -3.98203534 Ry
     estimated scf accuracy    <       0.00000068 Ry
     smearing contrib. (-TS)   =      -0.08107831 Ry
     internal energy E=F+TS    =      -3.90095704 Ry

     The total energy is F=E-TS. E is the sum of the following terms:
     one-electron contribution =      -0.07198658 Ry
     hartree contribution      =       0.38153619 Ry
     xc contribution           =      -1.17522158 Ry
     ewald contribution        =      -3.03528506 Ry

     convergence has been achieved in   7 iterations
     Writing meta-gga kinetic term

     Writing all to output data dir ./input_pw/Al/5/pwscf.save/
     Writing meta-gga kinetic term
 
     init_run     :      7.06s CPU     13.98s WALL (       1 calls)
     electrons    :    133.35s CPU    253.85s WALL (       1 calls)

     Called by init_run:
     wfcinit      :      6.86s CPU     13.41s WALL (       1 calls)
     potinit      :      0.08s CPU      0.21s WALL (       1 calls)
     hinit0       :      0.08s CPU      0.24s WALL (       1 calls)

     Called by electrons:
     c_bands      :    108.66s CPU    207.98s WALL (       8 calls)
     sum_band     :     23.21s CPU     42.98s WALL (       8 calls)
     v_of_rho     :      0.74s CPU      1.37s WALL (       8 calls)
     mix_rho      :      0.77s CPU      1.62s WALL (       8 calls)

     Called by c_bands:
     init_us_2    :      0.52s CPU      1.01s WALL (     799 calls)
     init_us_2:cp :      0.51s CPU      1.00s WALL (     799 calls)
     cegterg      :    108.06s CPU    206.92s WALL (     376 calls)

     Called by *egterg:
     cdiaghg      :      0.17s CPU      0.38s WALL (    1230 calls)
     h_psi        :    112.54s CPU    215.59s WALL (    1324 calls)
     g_psi        :      0.09s CPU      0.14s WALL (     901 calls)

     Called by h_psi:
     h_psi:calbec :      0.47s CPU      0.82s WALL (    1324 calls)
     vloc_psi     :     27.67s CPU     53.07s WALL (    1324 calls)
     add_vuspsi   :      0.26s CPU      0.50s WALL (    1324 calls)
     h_psi_meta   :     83.97s CPU    160.86s WALL (    1324 calls)

     General routines
     calbec       :      0.46s CPU      0.81s WALL (    1324 calls)
     fft          :      0.15s CPU      0.26s WALL (      95 calls)
     ffts         :      0.22s CPU      0.42s WALL (     130 calls)
     fftw         :    100.98s CPU    192.80s WALL (   62040 calls)
     interpolate  :      0.00s CPU      0.00s WALL (       8 calls)
 
     Parallel routines
 
     PWSCF        :   2m20.49s CPU   4m27.99s WALL

 
   This run was terminated on:  13:16: 2  21Mar2023            

=------------------------------------------------------------------------------=
   JOB DONE.
=------------------------------------------------------------------------------=
