
     Program PWSCF v.7.0 starts on 21Mar2023 at 11:18: 2 

     This program is part of the open-source Quantum ESPRESSO suite
     for quantum simulation of materials; please cite
         "P. Giannozzi et al., J. Phys.:Condens. Matter 21 395502 (2009);
         "P. Giannozzi et al., J. Phys.:Condens. Matter 29 465901 (2017);
         "P. Giannozzi et al., J. Chem. Phys. 152 154105 (2020);
          URL http://www.quantum-espresso.org", 
     in publications or presentations arising from this work. More details at
     http://www.quantum-espresso.org/quote

     Parallel version (MPI), running on     1 processors

     MPI processes distributed on     1 nodes
     24911 MiB available memory on the printing compute node when the environment starts
 
     Waiting for input...
     Reading input from standard input
Warning: card &CELL ignored
Warning: card / ignored

     Current dimensions of program PWSCF are:
     Max number of different atomic species (ntypx) = 10
     Max number of k-points (npk) =  40000
     Max angular momentum in pseudopotentials (lmaxx) =  4
     file Al.SCAN.UPF2: wavefunction(s)  0D renormalized

     WARNING: the MGGA functional with ID    5 has been 
     read together with other dft terms, but it should 
     stand alone in order to work properly. The other 
     terms will be ignored.

     Subspace diagonalization in iterative solution of the eigenvalue problem:
     a serial algorithm will be used

 
     G-vector sticks info
     --------------------
     sticks:   dense  smooth     PW     G-vecs:    dense   smooth      PW
     Sum         433     433    139                 5961     5961    1067
 
     Using Slab Decomposition
 


     bravais-lattice index     =            2
     lattice parameter (alat)  =       7.2161  a.u.
     unit-cell volume          =      93.9376 (a.u.)^3
     number of atoms/cell      =            1
     number of atomic types    =            1
     number of electrons       =         3.00
     number of Kohn-Sham states=            6
     kinetic-energy cutoff     =      60.0000  Ry
     charge density cutoff     =     240.0000  Ry
     scf convergence threshold =      1.0E-06
     mixing beta               =       0.0100
     number of iterations used =            8  local-TF  mixing
     Exchange-correlation= SLA  PW   SCAN SCAN
                           (   0   0   0   0   0 263 267)

     celldm(1)=   7.216054  celldm(2)=   0.000000  celldm(3)=   0.000000
     celldm(4)=   0.000000  celldm(5)=   0.000000  celldm(6)=   0.000000

     crystal axes: (cart. coord. in units of alat)
               a(1) = (  -0.500000   0.000000   0.500000 )  
               a(2) = (   0.000000   0.500000   0.500000 )  
               a(3) = (  -0.500000   0.500000   0.000000 )  

     reciprocal axes: (cart. coord. in units 2 pi/alat)
               b(1) = ( -1.000000 -1.000000  1.000000 )  
               b(2) = (  1.000000  1.000000  1.000000 )  
               b(3) = ( -1.000000  1.000000 -1.000000 )  


     PseudoPot. # 1 for Al read from file:
     ~/Documents/TA/PWDFT.jl/pseudopotentials/scan_upf/Al.SCAN.UPF2
     MD5 check sum: Not computed, couldn't open file
     Pseudo is Norm-conserving, Zval =  3.0
     Generated by new atomic code, or converted to UPF format
     Using radial grid of 1467 points,  2 beta functions with: 
                l(1) =   0
                l(2) =   1

     atomic species   valence    mass     pseudopotential
        Al             3.00    26.98154     Al( 1.00)

     48 Sym. Ops., with inversion, found



   Cartesian axes

     site n.     atom                  positions (alat units)
         1           Al  tau(   1) = (   0.0000000   0.0000000   0.0000000  )

     number of k points=    47  Gaussian smearing, width (Ry)=  0.1000
                       cart. coord. in units 2pi/alat
        k(    1) = (   0.0000000   0.0000000   0.0000000), wk =   0.0020000
        k(    2) = (  -0.1000000   0.1000000  -0.1000000), wk =   0.0160000
        k(    3) = (  -0.2000000   0.2000000  -0.2000000), wk =   0.0160000
        k(    4) = (  -0.3000000   0.3000000  -0.3000000), wk =   0.0160000
        k(    5) = (  -0.4000000   0.4000000  -0.4000000), wk =   0.0160000
        k(    6) = (   0.5000000  -0.5000000   0.5000000), wk =   0.0080000
        k(    7) = (   0.0000000   0.2000000   0.0000000), wk =   0.0120000
        k(    8) = (  -0.1000000   0.3000000  -0.1000000), wk =   0.0480000
        k(    9) = (  -0.2000000   0.4000000  -0.2000000), wk =   0.0480000
        k(   10) = (  -0.3000000   0.5000000  -0.3000000), wk =   0.0480000
        k(   11) = (   0.6000000  -0.4000000   0.6000000), wk =   0.0480000
        k(   12) = (   0.5000000  -0.3000000   0.5000000), wk =   0.0480000
        k(   13) = (   0.4000000  -0.2000000   0.4000000), wk =   0.0480000
        k(   14) = (   0.3000000  -0.1000000   0.3000000), wk =   0.0480000
        k(   15) = (   0.2000000   0.0000000   0.2000000), wk =   0.0240000
        k(   16) = (   0.0000000   0.4000000   0.0000000), wk =   0.0120000
        k(   17) = (  -0.1000000   0.5000000  -0.1000000), wk =   0.0480000
        k(   18) = (  -0.2000000   0.6000000  -0.2000000), wk =   0.0480000
        k(   19) = (   0.7000000  -0.3000000   0.7000000), wk =   0.0480000
        k(   20) = (   0.6000000  -0.2000000   0.6000000), wk =   0.0480000
        k(   21) = (   0.5000000  -0.1000000   0.5000000), wk =   0.0480000
        k(   22) = (   0.4000000   0.0000000   0.4000000), wk =   0.0240000
        k(   23) = (   0.0000000   0.6000000   0.0000000), wk =   0.0120000
        k(   24) = (  -0.1000000   0.7000000  -0.1000000), wk =   0.0480000
        k(   25) = (   0.8000000  -0.2000000   0.8000000), wk =   0.0480000
        k(   26) = (   0.7000000  -0.1000000   0.7000000), wk =   0.0480000
        k(   27) = (   0.6000000  -0.0000000   0.6000000), wk =   0.0240000
        k(   28) = (   0.0000000   0.8000000   0.0000000), wk =   0.0120000
        k(   29) = (   0.9000000  -0.1000000   0.9000000), wk =   0.0480000
        k(   30) = (   0.8000000   0.0000000   0.8000000), wk =   0.0240000
        k(   31) = (   0.0000000  -1.0000000   0.0000000), wk =   0.0060000
        k(   32) = (  -0.2000000   0.4000000   0.0000000), wk =   0.0480000
        k(   33) = (  -0.3000000   0.5000000  -0.1000000), wk =   0.0960000
        k(   34) = (   0.6000000  -0.4000000   0.8000000), wk =   0.0960000
        k(   35) = (   0.5000000  -0.3000000   0.7000000), wk =   0.0480000
        k(   36) = (  -0.2000000   0.6000000   0.0000000), wk =   0.0480000
        k(   37) = (   0.7000000  -0.3000000   0.9000000), wk =   0.0960000
        k(   38) = (   0.6000000  -0.2000000   0.8000000), wk =   0.0960000
        k(   39) = (   0.5000000  -0.1000000   0.7000000), wk =   0.0960000
        k(   40) = (   0.4000000   0.0000000   0.6000000), wk =   0.0480000
        k(   41) = (   0.8000000  -0.2000000   1.0000000), wk =   0.0480000
        k(   42) = (   0.7000000  -0.1000000   0.9000000), wk =   0.0960000
        k(   43) = (   0.6000000   0.0000000   0.8000000), wk =   0.0480000
        k(   44) = (  -0.2000000  -1.0000000   0.0000000), wk =   0.0240000
        k(   45) = (   0.6000000  -0.2000000   1.0000000), wk =   0.0480000
        k(   46) = (   0.5000000  -0.1000000   0.9000000), wk =   0.0480000
        k(   47) = (  -0.4000000  -1.0000000   0.0000000), wk =   0.0240000

     Dense  grid:     5961 G-vectors     FFT dimensions: (  25,  25,  25)

     Estimated max dynamical RAM per process >      11.93 MB

     WARNING: libxc functional with ID  263 depends
      on external parameters: check the user_guide of
      QE if you need to modify them or to check their
      default values.

     Initial potential from superposition of free atoms

     starting charge       2.9979, renormalised to       3.0000
     Starting wfcs are    9 randomized atomic wfcs

     total cpu time spent up to now is        2.8 secs

     Self-consistent Calculation

     iteration #  1     ecut=    60.00 Ry     beta= 0.01
     Davidson diagonalization with overlap
     ethr =  1.00E-02,  avg # of iterations =  5.0

     Threshold (ethr) on eigenvalues was too large:
     Diagonalizing with lowered threshold

     Davidson diagonalization with overlap
     ethr =  2.35E-04,  avg # of iterations =  1.9

     total cpu time spent up to now is       12.0 secs

     total energy              =      -4.14483618 Ry
     estimated scf accuracy    <       0.00702544 Ry

     iteration #  2     ecut=    60.00 Ry     beta= 0.01
     Davidson diagonalization with overlap
     ethr =  2.34E-04,  avg # of iterations =  1.0

     total cpu time spent up to now is       15.3 secs

     total energy              =      -4.14322440 Ry
     estimated scf accuracy    <       0.00694946 Ry

     iteration #  3     ecut=    60.00 Ry     beta= 0.01
     Davidson diagonalization with overlap
     ethr =  2.32E-04,  avg # of iterations =  1.6

     total cpu time spent up to now is       18.9 secs

     total energy              =      -4.14391264 Ry
     estimated scf accuracy    <       0.00069616 Ry

     iteration #  4     ecut=    60.00 Ry     beta= 0.01
     Davidson diagonalization with overlap
     ethr =  2.32E-05,  avg # of iterations =  2.8

     total cpu time spent up to now is       22.3 secs

     total energy              =      -4.14422435 Ry
     estimated scf accuracy    <       0.00018694 Ry

     iteration #  5     ecut=    60.00 Ry     beta= 0.01
     Davidson diagonalization with overlap
     ethr =  6.23E-06,  avg # of iterations =  1.2

     total cpu time spent up to now is       25.0 secs

     total energy              =      -4.14449060 Ry
     estimated scf accuracy    <       0.00018753 Ry

     iteration #  6     ecut=    60.00 Ry     beta= 0.01
     Davidson diagonalization with overlap
     ethr =  6.23E-06,  avg # of iterations =  2.0

     total cpu time spent up to now is       27.9 secs

     total energy              =      -4.14461731 Ry
     estimated scf accuracy    <       0.00005169 Ry

     iteration #  7     ecut=    60.00 Ry     beta= 0.01
     Davidson diagonalization with overlap
     ethr =  1.72E-06,  avg # of iterations =  2.1

     total cpu time spent up to now is       31.8 secs

     total energy              =      -4.14464293 Ry
     estimated scf accuracy    <       0.00000581 Ry

     iteration #  8     ecut=    60.00 Ry     beta= 0.01
     Davidson diagonalization with overlap
     ethr =  1.94E-07,  avg # of iterations =  1.0

     total cpu time spent up to now is       34.5 secs

     total energy              =      -4.14465467 Ry
     estimated scf accuracy    <       0.00000676 Ry

     iteration #  9     ecut=    60.00 Ry     beta= 0.01
     Davidson diagonalization with overlap
     ethr =  1.94E-07,  avg # of iterations =  2.0

     total cpu time spent up to now is       37.7 secs

     total energy              =      -4.14462131 Ry
     estimated scf accuracy    <       0.00001255 Ry

     iteration # 10     ecut=    60.00 Ry     beta= 0.01
     Davidson diagonalization with overlap
     ethr =  1.94E-07,  avg # of iterations =  2.3

     total cpu time spent up to now is       40.9 secs

     End of self-consistent calculation

          k = 0.0000 0.0000 0.0000 (   725 PWs)   bands (ev):

    -3.1002  23.8054  23.8054  23.8054  27.0455  27.0455

          k =-0.1000 0.1000-0.1000 (   731 PWs)   bands (ev):

    -2.7812  20.4046  23.3350  23.3350  27.1248  28.0051

          k =-0.2000 0.2000-0.2000 (   733 PWs)   bands (ev):

    -1.8295  15.9012  22.6779  22.6779  26.5387  27.9619

          k =-0.3000 0.3000-0.3000 (   751 PWs)   bands (ev):

    -0.2617  11.7044  22.3419  22.3419  25.9548  25.9551

          k =-0.4000 0.4000-0.4000 (   745 PWs)   bands (ev):

     1.8904   7.9600  22.4069  22.4069  24.4227  24.4227

          k = 0.5000-0.5000 0.5000 (   754 PWs)   bands (ev):

     4.2070   5.1112  22.6428  22.6428  23.6923  23.6923

          k = 0.0000 0.2000 0.0000 (   733 PWs)   bands (ev):

    -2.6750  21.5951  21.9430  21.9430  25.9858  28.0105

          k =-0.1000 0.3000-0.1000 (   735 PWs)   bands (ev):

    -1.9348  17.5197  20.9319  22.1836  25.2728  26.5591

          k =-0.2000 0.4000-0.2000 (   737 PWs)   bands (ev):

    -0.5735  13.2709  20.3862  21.7214  23.2370  28.8399

          k =-0.3000 0.5000-0.3000 (   738 PWs)   bands (ev):

     1.3835   9.3954  20.3276  20.7033  22.4452  27.3564

          k = 0.6000-0.4000 0.6000 (   741 PWs)   bands (ev):

     3.8526   6.0470  19.5441  20.7680  22.7857  26.0968

          k = 0.5000-0.3000 0.5000 (   741 PWs)   bands (ev):

     2.9915   7.0819  18.8015  21.7173  23.7564  25.3030

          k = 0.4000-0.2000 0.4000 (   742 PWs)   bands (ev):

     0.6675  10.6254  18.5750  23.1783  24.9606  25.2527

          k = 0.3000-0.1000 0.3000 (   742 PWs)   bands (ev):

    -1.0950  14.5977  18.9154  24.8206  25.2837  27.1881

          k = 0.2000 0.0000 0.2000 (   739 PWs)   bands (ev):

    -2.2514  18.4543  20.2153  24.6338  27.4740  27.7942

          k = 0.0000 0.4000 0.0000 (   725 PWs)   bands (ev):

    -1.4092  18.8075  19.6845  19.6845  21.9544  24.3967

          k =-0.1000 0.5000-0.1000 (   737 PWs)   bands (ev):

    -0.2621  15.2260  18.9423  19.1976  20.4836  24.8270

          k =-0.2000 0.6000-0.2000 (   750 PWs)   bands (ev):

     1.4849  11.3326  17.3087  18.7058  20.5195  27.3896

          k = 0.7000-0.3000 0.7000 (   740 PWs)   bands (ev):

     3.7841   7.8373  15.8285  18.9776  20.8878  29.4568

          k = 0.6000-0.2000 0.6000 (   729 PWs)   bands (ev):

     4.6422   6.7900  14.8838  19.7629  21.7766  28.5043

          k = 0.5000-0.1000 0.5000 (   736 PWs)   bands (ev):

     2.1963  10.0019  14.5766  21.0676  23.1952  27.9299

          k = 0.4000 0.0000 0.4000 (   734 PWs)   bands (ev):

     0.2556  13.0956  15.4827  22.8904  25.0820  27.1034

          k = 0.0000 0.6000 0.0000 (   725 PWs)   bands (ev):

     0.6662  16.5264  16.7176  18.0149  18.0149  22.7001

          k =-0.1000 0.7000-0.1000 (   732 PWs)   bands (ev):

     2.1916  13.5144  14.3944  17.6000  18.7412  23.5061

          k = 0.8000-0.2000 0.8000 (   741 PWs)   bands (ev):

     4.2705  10.0874  12.6235  17.6957  19.2798  26.4357

          k = 0.7000-0.1000 0.7000 (   730 PWs)   bands (ev):

     6.5263   7.2748  11.5234  18.3037  20.0935  30.1494

          k = 0.6000-0.0000 0.6000 (   732 PWs)   bands (ev):

     4.2904   9.2504  11.7032  19.4275  21.4053  31.1453

          k = 0.0000 0.8000 0.0000 (   749 PWs)   bands (ev):

     3.4802  11.6658  15.4472  17.0086  17.0086  21.6019

          k = 0.9000-0.1000 0.9000 (   738 PWs)   bands (ev):

     5.2705   9.7183  12.9816  16.9285  17.9430  22.8061

          k = 0.8000 0.0000 0.8000 (   736 PWs)   bands (ev):

     6.9507   8.6948  10.2714  17.3594  18.8670  26.1065

          k = 0.0000-1.0000 0.0000 (   740 PWs)   bands (ev):

     6.1859   8.2771  15.0219  16.6732  16.6732  21.2211

          k =-0.2000 0.4000 0.0000 (   741 PWs)   bands (ev):

    -0.9905  15.7793  17.8760  22.6131  23.3684  26.3569

          k =-0.3000 0.5000-0.1000 (   737 PWs)   bands (ev):

     0.5645  12.3004  16.7380  20.4470  23.9919  27.7423

          k = 0.6000-0.4000 0.8000 (   738 PWs)   bands (ev):

     2.6973   8.6869  16.6344  18.8396  24.3407  26.2327

          k = 0.5000-0.3000 0.7000 (   738 PWs)   bands (ev):

     4.9850   5.8894  16.8062  18.1082  25.0166  25.0910

          k =-0.2000 0.6000 0.0000 (   740 PWs)   bands (ev):

     1.0766  13.8427  15.7523  17.5306  21.6383  24.8643

          k = 0.7000-0.3000 0.9000 (   738 PWs)   bands (ev):

     2.9965  10.7320  14.4962  16.1301  22.6276  27.0855

          k = 0.6000-0.2000 0.8000 (   731 PWs)   bands (ev):

     5.4067   7.5390  13.5648  16.0660  23.3506  28.5756

          k = 0.5000-0.1000 0.7000 (   733 PWs)   bands (ev):

     4.5765   8.4574  12.9742  16.9351  24.4346  27.6730

          k = 0.4000 0.0000 0.6000 (   745 PWs)   bands (ev):

     2.2970  11.1691  13.5591  18.4355  25.9582  26.4951

          k = 0.8000-0.2000 1.0000 (   741 PWs)   bands (ev):

     3.8776  11.9320  12.6736  15.4098  20.5491  23.8720

          k = 0.7000-0.1000 0.9000 (   732 PWs)   bands (ev):

     6.0395   9.6778  10.8378  14.9102  21.9040  26.4589

          k = 0.6000 0.0000 0.8000 (   729 PWs)   bands (ev):

     6.9465   8.0988  10.4986  15.5854  22.9980  30.1611

          k =-0.2000-1.0000 0.0000 (   734 PWs)   bands (ev):

     6.5681   8.6273  12.2830  14.9722  20.1829  23.5283

          k = 0.6000-0.2000 1.0000 (   737 PWs)   bands (ev):

     5.0561  10.0117  11.8854  14.1928  25.4875  27.6879

          k = 0.5000-0.1000 0.9000 (   734 PWs)   bands (ev):

     7.2904   7.9138  11.3811  13.4759  26.9113  27.1697

          k =-0.4000-1.0000 0.0000 (   734 PWs)   bands (ev):

     7.7150   9.4726   9.6257  12.8763  25.1319  27.5490

     the Fermi energy is     9.7884 ev

!    total energy              =      -4.14464753 Ry
     estimated scf accuracy    <       0.00000068 Ry
     smearing contrib. (-TS)   =      -0.02323562 Ry
     internal energy E=F+TS    =      -4.12141190 Ry

     The total energy is F=E-TS. E is the sum of the following terms:
     one-electron contribution =       3.26919085 Ry
     hartree contribution      =       0.01114843 Ry
     xc contribution           =      -1.68342402 Ry
     ewald contribution        =      -5.71832716 Ry

     convergence has been achieved in  10 iterations
     Writing meta-gga kinetic term

     Writing all to output data dir ./input_pw/Al/5/pwscf.save/
     Writing meta-gga kinetic term
 
     init_run     :      0.70s CPU      2.74s WALL (       1 calls)
     electrons    :     14.32s CPU     38.05s WALL (       1 calls)

     Called by init_run:
     wfcinit      :      0.62s CPU      2.43s WALL (       1 calls)
     potinit      :      0.01s CPU      0.03s WALL (       1 calls)
     hinit0       :      0.07s CPU      0.24s WALL (       1 calls)

     Called by electrons:
     c_bands      :     11.73s CPU     31.42s WALL (      11 calls)
     sum_band     :      2.44s CPU      6.26s WALL (      11 calls)
     v_of_rho     :      0.10s CPU      0.23s WALL (      11 calls)
     mix_rho      :      0.05s CPU      0.17s WALL (      11 calls)

     Called by c_bands:
     init_us_2    :      0.09s CPU      0.31s WALL (    1081 calls)
     init_us_2:cp :      0.09s CPU      0.31s WALL (    1081 calls)
     cegterg      :     11.64s CPU     31.16s WALL (     517 calls)

     Called by *egterg:
     cdiaghg      :      0.11s CPU      0.19s WALL (    1542 calls)
     h_psi        :     11.89s CPU     32.77s WALL (    1636 calls)
     g_psi        :      0.01s CPU      0.01s WALL (    1072 calls)

     Called by h_psi:
     h_psi:calbec :      0.04s CPU      0.09s WALL (    1636 calls)
     vloc_psi     :      2.93s CPU      8.44s WALL (    1636 calls)
     add_vuspsi   :      0.04s CPU      0.08s WALL (    1636 calls)
     h_psi_meta   :      8.87s CPU     24.10s WALL (    1636 calls)

     General routines
     calbec       :      0.03s CPU      0.09s WALL (    1636 calls)
     fft          :      0.02s CPU      0.10s WALL (     131 calls)
     ffts         :      0.02s CPU      0.05s WALL (     137 calls)
     fftw         :     12.62s CPU     34.44s WALL (   78288 calls)
     interpolate  :      0.00s CPU      0.00s WALL (      11 calls)
 
     Parallel routines
 
     PWSCF        :     15.05s CPU     40.90s WALL

 
   This run was terminated on:  11:18:43  21Mar2023            

=------------------------------------------------------------------------------=
   JOB DONE.
=------------------------------------------------------------------------------=
