
     Program PWSCF v.7.0 starts on  7Jul2023 at 14:24:17 

     This program is part of the open-source Quantum ESPRESSO suite
     for quantum simulation of materials; please cite
         "P. Giannozzi et al., J. Phys.:Condens. Matter 21 395502 (2009);
         "P. Giannozzi et al., J. Phys.:Condens. Matter 29 465901 (2017);
         "P. Giannozzi et al., J. Chem. Phys. 152 154105 (2020);
          URL http://www.quantum-espresso.org", 
     in publications or presentations arising from this work. More details at
     http://www.quantum-espresso.org/quote

     Parallel version (MPI), running on     1 processors

     MPI processes distributed on     1 nodes
     27540 MiB available memory on the printing compute node when the environment starts
 
     Waiting for input...
     Reading input from standard input
Warning: card &CELL ignored
Warning: card / ignored

     Current dimensions of program PWSCF are:
     Max number of different atomic species (ntypx) = 10
     Max number of k-points (npk) =  40000
     Max angular momentum in pseudopotentials (lmaxx) =  4
     file Cl.SCAN.UPF2: wavefunction(s)  0D renormalized

     WARNING: the MGGA functional with ID    5 has been 
     read together with other dft terms, but it should 
     stand alone in order to work properly. The other 
     terms will be ignored.

     WARNING: the MGGA functional with ID    5 has been 
     read together with other dft terms, but it should 
     stand alone in order to work properly. The other 
     terms will be ignored.

     Subspace diagonalization in iterative solution of the eigenvalue problem:
     a serial algorithm will be used

 
     G-vector sticks info
     --------------------
     sticks:   dense  smooth     PW     G-vecs:    dense   smooth      PW
     Sum         955     955    295                19579    19579    3215
 
     Using Slab Decomposition
 


     bravais-lattice index     =            2
     lattice parameter (alat)  =      11.7861  a.u.
     unit-cell volume          =     409.3091 (a.u.)^3
     number of atoms/cell      =            2
     number of atomic types    =            2
     number of electrons       =         8.00
     number of Kohn-Sham states=            4
     kinetic-energy cutoff     =      50.0000  Ry
     charge density cutoff     =     200.0000  Ry
     scf convergence threshold =      2.0E-05
     mixing beta               =       0.2000
     number of iterations used =            8  local-TF  mixing
     Exchange-correlation= SLA  PW   SCAN SCAN
                           (   0   0   0   0   0 263 267)

     celldm(1)=  11.786109  celldm(2)=   0.000000  celldm(3)=   0.000000
     celldm(4)=   0.000000  celldm(5)=   0.000000  celldm(6)=   0.000000

     crystal axes: (cart. coord. in units of alat)
               a(1) = (  -0.500000   0.000000   0.500000 )  
               a(2) = (   0.000000   0.500000   0.500000 )  
               a(3) = (  -0.500000   0.500000   0.000000 )  

     reciprocal axes: (cart. coord. in units 2 pi/alat)
               b(1) = ( -1.000000 -1.000000  1.000000 )  
               b(2) = (  1.000000  1.000000  1.000000 )  
               b(3) = ( -1.000000  1.000000 -1.000000 )  


     PseudoPot. # 1 for Li read from file:
     ~/Documents/TA/PWDFT.jl/pseudopotentials/scan_upf/Li.SCAN.UPF2
     MD5 check sum: Not computed, couldn't open file
     Pseudo is Norm-conserving, Zval =  1.0
     Generated by new atomic code, or converted to UPF format
     Using radial grid of 1321 points,  1 beta functions with: 
                l(1) =   0

     PseudoPot. # 2 for Cl read from file:
     ~/Documents/TA/PWDFT.jl/pseudopotentials/scan_upf/Cl.SCAN.UPF2
     MD5 check sum: Not computed, couldn't open file
     Pseudo is Norm-conserving, Zval =  7.0
     Generated by new atomic code, or converted to UPF format
     Using radial grid of 1493 points,  2 beta functions with: 
                l(1) =   0
                l(2) =   1

     atomic species   valence    mass     pseudopotential
        Li             1.00     6.94100     Li( 1.00)
        Cl             7.00    35.45300     Cl( 1.00)

     48 Sym. Ops., with inversion, found



   Cartesian axes

     site n.     atom                  positions (alat units)
         1           Li  tau(   1) = (   0.0000000   0.0000000   0.0000000  )
         2           Cl  tau(   2) = (   0.5000000   0.5000000   0.5000000  )

     number of k points=    47
                       cart. coord. in units 2pi/alat
        k(    1) = (   0.0000000   0.0000000   0.0000000), wk =   0.0020000
        k(    2) = (  -0.1000000   0.1000000  -0.1000000), wk =   0.0160000
        k(    3) = (  -0.2000000   0.2000000  -0.2000000), wk =   0.0160000
        k(    4) = (  -0.3000000   0.3000000  -0.3000000), wk =   0.0160000
        k(    5) = (  -0.4000000   0.4000000  -0.4000000), wk =   0.0160000
        k(    6) = (   0.5000000  -0.5000000   0.5000000), wk =   0.0080000
        k(    7) = (   0.0000000   0.2000000   0.0000000), wk =   0.0120000
        k(    8) = (  -0.1000000   0.3000000  -0.1000000), wk =   0.0480000
        k(    9) = (  -0.2000000   0.4000000  -0.2000000), wk =   0.0480000
        k(   10) = (  -0.3000000   0.5000000  -0.3000000), wk =   0.0480000
        k(   11) = (   0.6000000  -0.4000000   0.6000000), wk =   0.0480000
        k(   12) = (   0.5000000  -0.3000000   0.5000000), wk =   0.0480000
        k(   13) = (   0.4000000  -0.2000000   0.4000000), wk =   0.0480000
        k(   14) = (   0.3000000  -0.1000000   0.3000000), wk =   0.0480000
        k(   15) = (   0.2000000   0.0000000   0.2000000), wk =   0.0240000
        k(   16) = (   0.0000000   0.4000000   0.0000000), wk =   0.0120000
        k(   17) = (  -0.1000000   0.5000000  -0.1000000), wk =   0.0480000
        k(   18) = (  -0.2000000   0.6000000  -0.2000000), wk =   0.0480000
        k(   19) = (   0.7000000  -0.3000000   0.7000000), wk =   0.0480000
        k(   20) = (   0.6000000  -0.2000000   0.6000000), wk =   0.0480000
        k(   21) = (   0.5000000  -0.1000000   0.5000000), wk =   0.0480000
        k(   22) = (   0.4000000   0.0000000   0.4000000), wk =   0.0240000
        k(   23) = (   0.0000000   0.6000000   0.0000000), wk =   0.0120000
        k(   24) = (  -0.1000000   0.7000000  -0.1000000), wk =   0.0480000
        k(   25) = (   0.8000000  -0.2000000   0.8000000), wk =   0.0480000
        k(   26) = (   0.7000000  -0.1000000   0.7000000), wk =   0.0480000
        k(   27) = (   0.6000000  -0.0000000   0.6000000), wk =   0.0240000
        k(   28) = (   0.0000000   0.8000000   0.0000000), wk =   0.0120000
        k(   29) = (   0.9000000  -0.1000000   0.9000000), wk =   0.0480000
        k(   30) = (   0.8000000   0.0000000   0.8000000), wk =   0.0240000
        k(   31) = (   0.0000000  -1.0000000   0.0000000), wk =   0.0060000
        k(   32) = (  -0.2000000   0.4000000   0.0000000), wk =   0.0480000
        k(   33) = (  -0.3000000   0.5000000  -0.1000000), wk =   0.0960000
        k(   34) = (   0.6000000  -0.4000000   0.8000000), wk =   0.0960000
        k(   35) = (   0.5000000  -0.3000000   0.7000000), wk =   0.0480000
        k(   36) = (  -0.2000000   0.6000000   0.0000000), wk =   0.0480000
        k(   37) = (   0.7000000  -0.3000000   0.9000000), wk =   0.0960000
        k(   38) = (   0.6000000  -0.2000000   0.8000000), wk =   0.0960000
        k(   39) = (   0.5000000  -0.1000000   0.7000000), wk =   0.0960000
        k(   40) = (   0.4000000   0.0000000   0.6000000), wk =   0.0480000
        k(   41) = (   0.8000000  -0.2000000   1.0000000), wk =   0.0480000
        k(   42) = (   0.7000000  -0.1000000   0.9000000), wk =   0.0960000
        k(   43) = (   0.6000000   0.0000000   0.8000000), wk =   0.0480000
        k(   44) = (  -0.2000000  -1.0000000   0.0000000), wk =   0.0240000
        k(   45) = (   0.6000000  -0.2000000   1.0000000), wk =   0.0480000
        k(   46) = (   0.5000000  -0.1000000   0.9000000), wk =   0.0480000
        k(   47) = (  -0.4000000  -1.0000000   0.0000000), wk =   0.0240000

     Dense  grid:    19579 G-vectors     FFT dimensions: (  40,  40,  40)

     Estimated max dynamical RAM per process >      37.65 MB

     WARNING: libxc functional with ID  263 depends
      on external parameters: check the user_guide of
      QE if you need to modify them or to check their
      default values.

     Initial potential from superposition of free atoms

     starting charge       7.9953, renormalised to       8.0000
     Starting wfcs are   13 randomized atomic wfcs

     total cpu time spent up to now is        7.6 secs

     Self-consistent Calculation

     iteration #  1     ecut=    50.00 Ry     beta= 0.20
     Davidson diagonalization with overlap
     ethr =  1.00E-02,  avg # of iterations =  1.0

     total cpu time spent up to now is       13.7 secs

     total energy              =     -30.65956512 Ry
     estimated scf accuracy    <       0.38487308 Ry

     iteration #  2     ecut=    50.00 Ry     beta= 0.20
     Davidson diagonalization with overlap
     ethr =  4.81E-03,  avg # of iterations =  1.0

     total cpu time spent up to now is       19.3 secs

     total energy              =     -30.68936158 Ry
     estimated scf accuracy    <       0.25556137 Ry

     iteration #  3     ecut=    50.00 Ry     beta= 0.20
     Davidson diagonalization with overlap
     ethr =  3.19E-03,  avg # of iterations =  1.0

     total cpu time spent up to now is       22.9 secs

     total energy              =     -30.69289913 Ry
     estimated scf accuracy    <       0.00727188 Ry

     iteration #  4     ecut=    50.00 Ry     beta= 0.20
     Davidson diagonalization with overlap
     ethr =  9.09E-05,  avg # of iterations =  1.7

     total cpu time spent up to now is       26.3 secs

     total energy              =     -30.69362609 Ry
     estimated scf accuracy    <       0.00299948 Ry

     iteration #  5     ecut=    50.00 Ry     beta= 0.20
     Davidson diagonalization with overlap
     ethr =  3.75E-05,  avg # of iterations =  2.0

     total cpu time spent up to now is       30.3 secs

     total energy              =     -30.69445664 Ry
     estimated scf accuracy    <       0.00054055 Ry

     iteration #  6     ecut=    50.00 Ry     beta= 0.20
     Davidson diagonalization with overlap
     ethr =  6.76E-06,  avg # of iterations =  2.0

     total cpu time spent up to now is       33.9 secs

     total energy              =     -30.69448751 Ry
     estimated scf accuracy    <       0.00023583 Ry

     iteration #  7     ecut=    50.00 Ry     beta= 0.20
     Davidson diagonalization with overlap
     ethr =  2.95E-06,  avg # of iterations =  1.0

     total cpu time spent up to now is       35.5 secs

     total energy              =     -30.69446809 Ry
     estimated scf accuracy    <       0.00007768 Ry

     iteration #  8     ecut=    50.00 Ry     beta= 0.20
     Davidson diagonalization with overlap
     ethr =  9.71E-07,  avg # of iterations =  2.0

     total cpu time spent up to now is       37.6 secs

     total energy              =     -30.69450008 Ry
     estimated scf accuracy    <       0.00009013 Ry

     iteration #  9     ecut=    50.00 Ry     beta= 0.20
     Davidson diagonalization with overlap
     ethr =  9.71E-07,  avg # of iterations =  1.0

     total cpu time spent up to now is       39.1 secs

     End of self-consistent calculation

          k = 0.0000 0.0000 0.0000 (  2421 PWs)   bands (ev):

   -14.9358  -2.3748  -2.3748  -2.3748

          k =-0.1000 0.1000-0.1000 (  2451 PWs)   bands (ev):

   -14.9245  -2.5122  -2.3843  -2.3843

          k =-0.2000 0.2000-0.2000 (  2451 PWs)   bands (ev):

   -14.8940  -2.8336  -2.4089  -2.4089

          k =-0.3000 0.3000-0.3000 (  2457 PWs)   bands (ev):

   -14.8558  -3.1775  -2.4384  -2.4384

          k =-0.4000 0.4000-0.4000 (  2455 PWs)   bands (ev):

   -14.8243  -3.4259  -2.4617  -2.4617

          k = 0.5000-0.5000 0.5000 (  2452 PWs)   bands (ev):

   -14.8121  -3.5153  -2.4705  -2.4705

          k = 0.0000 0.2000 0.0000 (  2449 PWs)   bands (ev):

   -14.9206  -2.5056  -2.4143  -2.4143

          k =-0.1000 0.3000-0.1000 (  2455 PWs)   bands (ev):

   -14.8964  -2.7477  -2.4552  -2.4323

          k =-0.2000 0.4000-0.2000 (  2446 PWs)   bands (ev):

   -14.8605  -3.0717  -2.4909  -2.4650

          k =-0.3000 0.5000-0.3000 (  2443 PWs)   bands (ev):

   -14.8266  -3.3390  -2.5124  -2.5082

          k = 0.6000-0.4000 0.6000 (  2447 PWs)   bands (ev):

   -14.8080  -3.4733  -2.5557  -2.5010

          k = 0.5000-0.3000 0.5000 (  2442 PWs)   bands (ev):

   -14.8120  -3.4433  -2.5778  -2.4722

          k = 0.4000-0.2000 0.4000 (  2454 PWs)   bands (ev):

   -14.8373  -3.2575  -2.5686  -2.4322

          k = 0.3000-0.1000 0.3000 (  2459 PWs)   bands (ev):

   -14.8735  -2.9665  -2.5273  -2.3958

          k = 0.2000 0.0000 0.2000 (  2467 PWs)   bands (ev):

   -14.9068  -2.6738  -2.4574  -2.3773

          k = 0.0000 0.4000 0.0000 (  2449 PWs)   bands (ev):

   -14.8797  -2.8098  -2.5158  -2.5158

          k =-0.1000 0.5000-0.1000 (  2460 PWs)   bands (ev):

   -14.8501  -3.0321  -2.5703  -2.5675

          k =-0.2000 0.6000-0.2000 (  2444 PWs)   bands (ev):

   -14.8184  -3.2506  -2.6504  -2.5912

          k = 0.7000-0.3000 0.7000 (  2446 PWs)   bands (ev):

   -14.7972  -3.3750  -2.7448  -2.5789

          k = 0.6000-0.2000 0.6000 (  2432 PWs)   bands (ev):

   -14.7945  -3.3753  -2.8120  -2.5348

          k = 0.5000-0.1000 0.5000 (  2439 PWs)   bands (ev):

   -14.8119  -3.2684  -2.8081  -2.4749

          k = 0.4000 0.0000 0.4000 (  2435 PWs)   bands (ev):

   -14.8420  -3.1148  -2.7014  -2.4214

          k = 0.0000 0.6000 0.0000 (  2449 PWs)   bands (ev):

   -14.8279  -3.1352  -2.6379  -2.6379

          k =-0.1000 0.7000-0.1000 (  2435 PWs)   bands (ev):

   -14.8024  -3.2734  -2.7198  -2.6769

          k = 0.8000-0.2000 0.8000 (  2438 PWs)   bands (ev):

   -14.7836  -3.3312  -2.8615  -2.6713

          k = 0.7000-0.1000 0.7000 (  2433 PWs)   bands (ev):

   -14.7785  -3.2726  -3.0238  -2.6228

          k = 0.6000-0.0000 0.6000 (  2451 PWs)   bands (ev):

   -14.7896  -3.2118  -3.0441  -2.5482

          k = 0.0000 0.8000 0.0000 (  2446 PWs)   bands (ev):

   -14.7851  -3.3719  -2.7340  -2.7340

          k = 0.9000-0.1000 0.9000 (  2438 PWs)   bands (ev):

   -14.7726  -3.4100  -2.8129  -2.7432

          k = 0.8000 0.0000 0.8000 (  2446 PWs)   bands (ev):

   -14.7702  -3.3415  -2.9617  -2.7016

          k = 0.0000-1.0000 0.0000 (  2450 PWs)   bands (ev):

   -14.7685  -3.4578  -2.7701  -2.7701

          k =-0.2000 0.4000 0.0000 (  2458 PWs)   bands (ev):

   -14.8695  -2.9353  -2.5682  -2.4448

          k =-0.3000 0.5000-0.1000 (  2444 PWs)   bands (ev):

   -14.8356  -3.1680  -2.6613  -2.4779

          k = 0.6000-0.4000 0.8000 (  2445 PWs)   bands (ev):

   -14.8079  -3.3506  -2.7088  -2.5209

          k = 0.5000-0.3000 0.7000 (  2434 PWs)   bands (ev):

   -14.7971  -3.4184  -2.7217  -2.5412

          k =-0.2000 0.6000 0.0000 (  2443 PWs)   bands (ev):

   -14.8224  -3.1764  -2.7007  -2.5876

          k = 0.7000-0.3000 0.9000 (  2442 PWs)   bands (ev):

   -14.7970  -3.2850  -2.8163  -2.6254

          k = 0.6000-0.2000 0.8000 (  2430 PWs)   bands (ev):

   -14.7836  -3.3147  -2.9173  -2.6301

          k = 0.5000-0.1000 0.7000 (  2440 PWs)   bands (ev):

   -14.7879  -3.2753  -2.9572  -2.5876

          k = 0.4000 0.0000 0.6000 (  2447 PWs)   bands (ev):

   -14.8079  -3.2272  -2.8591  -2.5243

          k = 0.8000-0.2000 1.0000 (  2443 PWs)   bands (ev):

   -14.7836  -3.3408  -2.8047  -2.7198

          k = 0.7000-0.1000 0.9000 (  2439 PWs)   bands (ev):

   -14.7728  -3.3148  -2.9457  -2.7247

          k = 0.6000 0.0000 0.8000 (  2440 PWs)   bands (ev):

   -14.7745  -3.1860  -3.1178  -2.6698

          k =-0.2000-1.0000 0.0000 (  2428 PWs)   bands (ev):

   -14.7684  -3.3988  -2.8436  -2.7723

          k = 0.6000-0.2000 1.0000 (  2448 PWs)   bands (ev):

   -14.7797  -3.2519  -2.9815  -2.6880

          k = 0.5000-0.1000 0.9000 (  2442 PWs)   bands (ev):

   -14.7729  -3.1960  -3.0786  -2.7222

          k =-0.4000-1.0000 0.0000 (  2450 PWs)   bands (ev):

   -14.7688  -3.2385  -3.0272  -2.7759

     highest occupied level (ev):    -2.3748

!    total energy              =     -30.69450166 Ry
     estimated scf accuracy    <       0.00001059 Ry

     The total energy is the sum of the following terms:
     one-electron contribution =     -12.43282032 Ry
     hartree contribution      =       8.71000110 Ry
     xc contribution           =      -6.22697684 Ry
     ewald contribution        =     -20.74470559 Ry

     convergence has been achieved in   9 iterations
     Writing meta-gga kinetic term

     Writing all to output data dir ./input_pw/LiCl/14/pwscf.save/
     Writing meta-gga kinetic term
 
     init_run     :      3.75s CPU      7.47s WALL (       1 calls)
     electrons    :     24.88s CPU     31.49s WALL (       1 calls)

     Called by init_run:
     wfcinit      :      3.58s CPU      7.05s WALL (       1 calls)
     potinit      :      0.05s CPU      0.14s WALL (       1 calls)
     hinit0       :      0.10s CPU      0.22s WALL (       1 calls)

     Called by electrons:
     c_bands      :     19.89s CPU     25.27s WALL (       9 calls)
     sum_band     :      4.40s CPU      5.46s WALL (       9 calls)
     v_of_rho     :      0.35s CPU      0.53s WALL (      10 calls)
     mix_rho      :      0.27s CPU      0.33s WALL (       9 calls)

     Called by c_bands:
     init_us_2    :      0.23s CPU      0.30s WALL (     893 calls)
     init_us_2:cp :      0.22s CPU      0.29s WALL (     893 calls)
     cegterg      :     19.68s CPU     24.93s WALL (     423 calls)

     Called by *egterg:
     cdiaghg      :      0.06s CPU      0.06s WALL (    1019 calls)
     h_psi        :     22.84s CPU     31.43s WALL (    1066 calls)
     g_psi        :      0.01s CPU      0.03s WALL (     596 calls)

     Called by h_psi:
     h_psi:calbec :      0.07s CPU      0.09s WALL (    1066 calls)
     vloc_psi     :      5.65s CPU      7.99s WALL (    1066 calls)
     add_vuspsi   :      0.06s CPU      0.08s WALL (    1066 calls)
     h_psi_meta   :     17.03s CPU     23.25s WALL (    1066 calls)

     General routines
     calbec       :      0.06s CPU      0.08s WALL (    1066 calls)
     fft          :      0.06s CPU      0.10s WALL (     117 calls)
     ffts         :      0.11s CPU      0.15s WALL (     218 calls)
     fftw         :     23.35s CPU     31.77s WALL (   43384 calls)
     interpolate  :      0.00s CPU      0.00s WALL (      10 calls)
 
     Parallel routines
 
     PWSCF        :     28.68s CPU     39.09s WALL

 
   This run was terminated on:  14:24:56   7Jul2023            

=------------------------------------------------------------------------------=
   JOB DONE.
=------------------------------------------------------------------------------=
