
     Program PWSCF v.7.0 starts on 29Mar2023 at 10:21:34 

     This program is part of the open-source Quantum ESPRESSO suite
     for quantum simulation of materials; please cite
         "P. Giannozzi et al., J. Phys.:Condens. Matter 21 395502 (2009);
         "P. Giannozzi et al., J. Phys.:Condens. Matter 29 465901 (2017);
         "P. Giannozzi et al., J. Chem. Phys. 152 154105 (2020);
          URL http://www.quantum-espresso.org", 
     in publications or presentations arising from this work. More details at
     http://www.quantum-espresso.org/quote

     Parallel version (MPI), running on     1 processors

     MPI processes distributed on     1 nodes
     24361 MiB available memory on the printing compute node when the environment starts
 
     Waiting for input...
     Reading input from standard input
Warning: card &CELL ignored
Warning: card / ignored

     Current dimensions of program PWSCF are:
     Max number of different atomic species (ntypx) = 10
     Max number of k-points (npk) =  40000
     Max angular momentum in pseudopotentials (lmaxx) =  4
     file Cl.SCAN.UPF2: wavefunction(s)  0D renormalized

     WARNING: the MGGA functional with ID    5 has been 
     read together with other dft terms, but it should 
     stand alone in order to work properly. The other 
     terms will be ignored.

     WARNING: the MGGA functional with ID    5 has been 
     read together with other dft terms, but it should 
     stand alone in order to work properly. The other 
     terms will be ignored.

     Subspace diagonalization in iterative solution of the eigenvalue problem:
     a serial algorithm will be used

 
     G-vector sticks info
     --------------------
     sticks:   dense  smooth     PW     G-vecs:    dense   smooth      PW
     Sum         955     955    295                19579    19579    3215
 
     Using Slab Decomposition
 


     bravais-lattice index     =            2
     lattice parameter (alat)  =      11.7861  a.u.
     unit-cell volume          =     409.3116 (a.u.)^3
     number of atoms/cell      =            2
     number of atomic types    =            2
     number of electrons       =         8.00
     number of Kohn-Sham states=            4
     kinetic-energy cutoff     =      50.0000  Ry
     charge density cutoff     =     200.0000  Ry
     scf convergence threshold =      1.0E-06
     mixing beta               =       0.0100
     number of iterations used =            8  local-TF  mixing
     Exchange-correlation= SLA  PW   SCAN SCAN
                           (   0   0   0   0   0 263 267)

     celldm(1)=  11.786133  celldm(2)=   0.000000  celldm(3)=   0.000000
     celldm(4)=   0.000000  celldm(5)=   0.000000  celldm(6)=   0.000000

     crystal axes: (cart. coord. in units of alat)
               a(1) = (  -0.500000   0.000000   0.500000 )  
               a(2) = (   0.000000   0.500000   0.500000 )  
               a(3) = (  -0.500000   0.500000   0.000000 )  

     reciprocal axes: (cart. coord. in units 2 pi/alat)
               b(1) = ( -1.000000 -1.000000  1.000000 )  
               b(2) = (  1.000000  1.000000  1.000000 )  
               b(3) = ( -1.000000  1.000000 -1.000000 )  


     PseudoPot. # 1 for Li read from file:
     ~/Documents/TA/PWDFT.jl/pseudopotentials/scan_upf/Li.SCAN.UPF2
     MD5 check sum: Not computed, couldn't open file
     Pseudo is Norm-conserving, Zval =  1.0
     Generated by new atomic code, or converted to UPF format
     Using radial grid of 1321 points,  1 beta functions with: 
                l(1) =   0

     PseudoPot. # 2 for Cl read from file:
     ~/Documents/TA/PWDFT.jl/pseudopotentials/scan_upf/Cl.SCAN.UPF2
     MD5 check sum: Not computed, couldn't open file
     Pseudo is Norm-conserving, Zval =  7.0
     Generated by new atomic code, or converted to UPF format
     Using radial grid of 1493 points,  2 beta functions with: 
                l(1) =   0
                l(2) =   1

     atomic species   valence    mass     pseudopotential
        Li             1.00     6.94100     Li( 1.00)
        Cl             7.00    35.45300     Cl( 1.00)

     48 Sym. Ops., with inversion, found



   Cartesian axes

     site n.     atom                  positions (alat units)
         1           Li  tau(   1) = (   0.0000000   0.0000000   0.0000000  )
         2           Cl  tau(   2) = (   0.5000000   0.5000000   0.5000000  )

     number of k points=    47
                       cart. coord. in units 2pi/alat
        k(    1) = (   0.0000000   0.0000000   0.0000000), wk =   0.0020000
        k(    2) = (  -0.1000000   0.1000000  -0.1000000), wk =   0.0160000
        k(    3) = (  -0.2000000   0.2000000  -0.2000000), wk =   0.0160000
        k(    4) = (  -0.3000000   0.3000000  -0.3000000), wk =   0.0160000
        k(    5) = (  -0.4000000   0.4000000  -0.4000000), wk =   0.0160000
        k(    6) = (   0.5000000  -0.5000000   0.5000000), wk =   0.0080000
        k(    7) = (   0.0000000   0.2000000   0.0000000), wk =   0.0120000
        k(    8) = (  -0.1000000   0.3000000  -0.1000000), wk =   0.0480000
        k(    9) = (  -0.2000000   0.4000000  -0.2000000), wk =   0.0480000
        k(   10) = (  -0.3000000   0.5000000  -0.3000000), wk =   0.0480000
        k(   11) = (   0.6000000  -0.4000000   0.6000000), wk =   0.0480000
        k(   12) = (   0.5000000  -0.3000000   0.5000000), wk =   0.0480000
        k(   13) = (   0.4000000  -0.2000000   0.4000000), wk =   0.0480000
        k(   14) = (   0.3000000  -0.1000000   0.3000000), wk =   0.0480000
        k(   15) = (   0.2000000   0.0000000   0.2000000), wk =   0.0240000
        k(   16) = (   0.0000000   0.4000000   0.0000000), wk =   0.0120000
        k(   17) = (  -0.1000000   0.5000000  -0.1000000), wk =   0.0480000
        k(   18) = (  -0.2000000   0.6000000  -0.2000000), wk =   0.0480000
        k(   19) = (   0.7000000  -0.3000000   0.7000000), wk =   0.0480000
        k(   20) = (   0.6000000  -0.2000000   0.6000000), wk =   0.0480000
        k(   21) = (   0.5000000  -0.1000000   0.5000000), wk =   0.0480000
        k(   22) = (   0.4000000   0.0000000   0.4000000), wk =   0.0240000
        k(   23) = (   0.0000000   0.6000000   0.0000000), wk =   0.0120000
        k(   24) = (  -0.1000000   0.7000000  -0.1000000), wk =   0.0480000
        k(   25) = (   0.8000000  -0.2000000   0.8000000), wk =   0.0480000
        k(   26) = (   0.7000000  -0.1000000   0.7000000), wk =   0.0480000
        k(   27) = (   0.6000000  -0.0000000   0.6000000), wk =   0.0240000
        k(   28) = (   0.0000000   0.8000000   0.0000000), wk =   0.0120000
        k(   29) = (   0.9000000  -0.1000000   0.9000000), wk =   0.0480000
        k(   30) = (   0.8000000   0.0000000   0.8000000), wk =   0.0240000
        k(   31) = (   0.0000000  -1.0000000   0.0000000), wk =   0.0060000
        k(   32) = (  -0.2000000   0.4000000   0.0000000), wk =   0.0480000
        k(   33) = (  -0.3000000   0.5000000  -0.1000000), wk =   0.0960000
        k(   34) = (   0.6000000  -0.4000000   0.8000000), wk =   0.0960000
        k(   35) = (   0.5000000  -0.3000000   0.7000000), wk =   0.0480000
        k(   36) = (  -0.2000000   0.6000000   0.0000000), wk =   0.0480000
        k(   37) = (   0.7000000  -0.3000000   0.9000000), wk =   0.0960000
        k(   38) = (   0.6000000  -0.2000000   0.8000000), wk =   0.0960000
        k(   39) = (   0.5000000  -0.1000000   0.7000000), wk =   0.0960000
        k(   40) = (   0.4000000   0.0000000   0.6000000), wk =   0.0480000
        k(   41) = (   0.8000000  -0.2000000   1.0000000), wk =   0.0480000
        k(   42) = (   0.7000000  -0.1000000   0.9000000), wk =   0.0960000
        k(   43) = (   0.6000000   0.0000000   0.8000000), wk =   0.0480000
        k(   44) = (  -0.2000000  -1.0000000   0.0000000), wk =   0.0240000
        k(   45) = (   0.6000000  -0.2000000   1.0000000), wk =   0.0480000
        k(   46) = (   0.5000000  -0.1000000   0.9000000), wk =   0.0480000
        k(   47) = (  -0.4000000  -1.0000000   0.0000000), wk =   0.0240000

     Dense  grid:    19579 G-vectors     FFT dimensions: (  40,  40,  40)

     Estimated max dynamical RAM per process >      37.65 MB

     WARNING: libxc functional with ID  263 depends
      on external parameters: check the user_guide of
      QE if you need to modify them or to check their
      default values.

     Initial potential from superposition of free atoms

     starting charge       7.9953, renormalised to       8.0000
     Starting wfcs are   13 randomized atomic wfcs

     total cpu time spent up to now is        9.3 secs

     Self-consistent Calculation

     iteration #  1     ecut=    50.00 Ry     beta= 0.01
     Davidson diagonalization with overlap
     ethr =  1.00E-02,  avg # of iterations =  1.0

     total cpu time spent up to now is       16.4 secs

     total energy              =     -30.61332102 Ry
     estimated scf accuracy    <       0.38487381 Ry

     iteration #  2     ecut=    50.00 Ry     beta= 0.01
     Davidson diagonalization with overlap
     ethr =  4.81E-03,  avg # of iterations =  1.0

     total cpu time spent up to now is       22.9 secs

     total energy              =     -30.65572257 Ry
     estimated scf accuracy    <       0.36593073 Ry

     iteration #  3     ecut=    50.00 Ry     beta= 0.01
     Davidson diagonalization with overlap
     ethr =  4.57E-03,  avg # of iterations =  1.0

     total cpu time spent up to now is       28.1 secs

     total energy              =     -30.69320290 Ry
     estimated scf accuracy    <       0.26612817 Ry

     iteration #  4     ecut=    50.00 Ry     beta= 0.01
     Davidson diagonalization with overlap
     ethr =  3.33E-03,  avg # of iterations =  1.0

     total cpu time spent up to now is       33.4 secs

     total energy              =     -30.69537336 Ry
     estimated scf accuracy    <       0.01201767 Ry

     iteration #  5     ecut=    50.00 Ry     beta= 0.01
     Davidson diagonalization with overlap
     ethr =  1.50E-04,  avg # of iterations =  1.0

     total cpu time spent up to now is       38.1 secs

     total energy              =     -30.69234165 Ry
     estimated scf accuracy    <       0.01064204 Ry

     iteration #  6     ecut=    50.00 Ry     beta= 0.01
     Davidson diagonalization with overlap
     ethr =  1.33E-04,  avg # of iterations =  1.0

     total cpu time spent up to now is       42.2 secs

     total energy              =     -30.69276121 Ry
     estimated scf accuracy    <       0.00587798 Ry

     iteration #  7     ecut=    50.00 Ry     beta= 0.01
     Davidson diagonalization with overlap
     ethr =  7.35E-05,  avg # of iterations =  2.0

     total cpu time spent up to now is       46.5 secs

     total energy              =     -30.69542094 Ry
     estimated scf accuracy    <       0.00392876 Ry

     iteration #  8     ecut=    50.00 Ry     beta= 0.01
     Davidson diagonalization with overlap
     ethr =  4.91E-05,  avg # of iterations =  1.0

     total cpu time spent up to now is       49.6 secs

     total energy              =     -30.69505844 Ry
     estimated scf accuracy    <       0.00465856 Ry

     iteration #  9     ecut=    50.00 Ry     beta= 0.01
     Davidson diagonalization with overlap
     ethr =  4.91E-05,  avg # of iterations =  1.0

     total cpu time spent up to now is       52.8 secs

     total energy              =     -30.69416374 Ry
     estimated scf accuracy    <       0.00361780 Ry

     iteration # 10     ecut=    50.00 Ry     beta= 0.01
     Davidson diagonalization with overlap
     ethr =  4.52E-05,  avg # of iterations =  1.6

     total cpu time spent up to now is       56.1 secs

     total energy              =     -30.69453493 Ry
     estimated scf accuracy    <       0.00018376 Ry

     iteration # 11     ecut=    50.00 Ry     beta= 0.01
     Davidson diagonalization with overlap
     ethr =  2.30E-06,  avg # of iterations =  1.9

     total cpu time spent up to now is       59.0 secs

     total energy              =     -30.69460579 Ry
     estimated scf accuracy    <       0.00026996 Ry

     iteration # 12     ecut=    50.00 Ry     beta= 0.01
     Davidson diagonalization with overlap
     ethr =  2.30E-06,  avg # of iterations =  1.0

     total cpu time spent up to now is       60.5 secs

     total energy              =     -30.69460072 Ry
     estimated scf accuracy    <       0.00037944 Ry

     iteration # 13     ecut=    50.00 Ry     beta= 0.01
     Davidson diagonalization with overlap
     ethr =  2.30E-06,  avg # of iterations =  1.0

     total cpu time spent up to now is       62.1 secs

     total energy              =     -30.69444420 Ry
     estimated scf accuracy    <       0.00037711 Ry

     iteration # 14     ecut=    50.00 Ry     beta= 0.01
     Davidson diagonalization with overlap
     ethr =  2.30E-06,  avg # of iterations =  2.0

     total cpu time spent up to now is       64.1 secs

     End of self-consistent calculation

          k = 0.0000 0.0000 0.0000 (  2421 PWs)   bands (ev):

   -14.9287  -2.3686  -2.3686  -2.3686

          k =-0.1000 0.1000-0.1000 (  2451 PWs)   bands (ev):

   -14.9174  -2.5061  -2.3782  -2.3782

          k =-0.2000 0.2000-0.2000 (  2451 PWs)   bands (ev):

   -14.8869  -2.8277  -2.4027  -2.4027

          k =-0.3000 0.3000-0.3000 (  2457 PWs)   bands (ev):

   -14.8486  -3.1717  -2.4323  -2.4323

          k =-0.4000 0.4000-0.4000 (  2455 PWs)   bands (ev):

   -14.8171  -3.4203  -2.4556  -2.4556

          k = 0.5000-0.5000 0.5000 (  2452 PWs)   bands (ev):

   -14.8049  -3.5098  -2.4644  -2.4644

          k = 0.0000 0.2000 0.0000 (  2449 PWs)   bands (ev):

   -14.9135  -2.4995  -2.4081  -2.4081

          k =-0.1000 0.3000-0.1000 (  2455 PWs)   bands (ev):

   -14.8893  -2.7417  -2.4491  -2.4261

          k =-0.2000 0.4000-0.2000 (  2446 PWs)   bands (ev):

   -14.8534  -3.0659  -2.4848  -2.4589

          k =-0.3000 0.5000-0.3000 (  2443 PWs)   bands (ev):

   -14.8194  -3.3333  -2.5063  -2.5021

          k = 0.6000-0.4000 0.6000 (  2447 PWs)   bands (ev):

   -14.8008  -3.4677  -2.5497  -2.4949

          k = 0.5000-0.3000 0.5000 (  2442 PWs)   bands (ev):

   -14.8048  -3.4377  -2.5718  -2.4661

          k = 0.4000-0.2000 0.4000 (  2454 PWs)   bands (ev):

   -14.8301  -3.2518  -2.5626  -2.4260

          k = 0.3000-0.1000 0.3000 (  2459 PWs)   bands (ev):

   -14.8664  -2.9607  -2.5212  -2.3897

          k = 0.2000 0.0000 0.2000 (  2467 PWs)   bands (ev):

   -14.8997  -2.6678  -2.4513  -2.3711

          k = 0.0000 0.4000 0.0000 (  2449 PWs)   bands (ev):

   -14.8726  -2.8039  -2.5098  -2.5098

          k =-0.1000 0.5000-0.1000 (  2460 PWs)   bands (ev):

   -14.8430  -3.0263  -2.5643  -2.5614

          k =-0.2000 0.6000-0.2000 (  2444 PWs)   bands (ev):

   -14.8112  -3.2449  -2.6444  -2.5852

          k = 0.7000-0.3000 0.7000 (  2446 PWs)   bands (ev):

   -14.7899  -3.3693  -2.7389  -2.5728

          k = 0.6000-0.2000 0.6000 (  2432 PWs)   bands (ev):

   -14.7873  -3.3696  -2.8061  -2.5288

          k = 0.5000-0.1000 0.5000 (  2439 PWs)   bands (ev):

   -14.8047  -3.2627  -2.8022  -2.4687

          k = 0.4000 0.0000 0.4000 (  2435 PWs)   bands (ev):

   -14.8348  -3.1090  -2.6954  -2.4153

          k = 0.0000 0.6000 0.0000 (  2449 PWs)   bands (ev):

   -14.8208  -3.1294  -2.6319  -2.6319

          k =-0.1000 0.7000-0.1000 (  2435 PWs)   bands (ev):

   -14.7952  -3.2677  -2.7139  -2.6710

          k = 0.8000-0.2000 0.8000 (  2438 PWs)   bands (ev):

   -14.7764  -3.3256  -2.8556  -2.6653

          k = 0.7000-0.1000 0.7000 (  2433 PWs)   bands (ev):

   -14.7713  -3.2669  -3.0180  -2.6168

          k = 0.6000-0.0000 0.6000 (  2451 PWs)   bands (ev):

   -14.7824  -3.2061  -3.0383  -2.5422

          k = 0.0000 0.8000 0.0000 (  2446 PWs)   bands (ev):

   -14.7778  -3.3663  -2.7281  -2.7281

          k = 0.9000-0.1000 0.9000 (  2438 PWs)   bands (ev):

   -14.7653  -3.4044  -2.8070  -2.7373

          k = 0.8000 0.0000 0.8000 (  2446 PWs)   bands (ev):

   -14.7630  -3.3359  -2.9558  -2.6957

          k = 0.0000-1.0000 0.0000 (  2450 PWs)   bands (ev):

   -14.7612  -3.4522  -2.7642  -2.7642

          k =-0.2000 0.4000 0.0000 (  2458 PWs)   bands (ev):

   -14.8623  -2.9295  -2.5621  -2.4387

          k =-0.3000 0.5000-0.1000 (  2444 PWs)   bands (ev):

   -14.8284  -3.1623  -2.6553  -2.4718

          k = 0.6000-0.4000 0.8000 (  2445 PWs)   bands (ev):

   -14.8007  -3.3450  -2.7028  -2.5148

          k = 0.5000-0.3000 0.7000 (  2434 PWs)   bands (ev):

   -14.7899  -3.4128  -2.7157  -2.5351

          k =-0.2000 0.6000 0.0000 (  2443 PWs)   bands (ev):

   -14.8152  -3.1707  -2.6948  -2.5816

          k = 0.7000-0.3000 0.9000 (  2442 PWs)   bands (ev):

   -14.7898  -3.2793  -2.8104  -2.6194

          k = 0.6000-0.2000 0.8000 (  2430 PWs)   bands (ev):

   -14.7764  -3.3091  -2.9115  -2.6241

          k = 0.5000-0.1000 0.7000 (  2440 PWs)   bands (ev):

   -14.7807  -3.2696  -2.9514  -2.5815

          k = 0.4000 0.0000 0.6000 (  2447 PWs)   bands (ev):

   -14.8006  -3.2215  -2.8532  -2.5182

          k = 0.8000-0.2000 1.0000 (  2443 PWs)   bands (ev):

   -14.7763  -3.3352  -2.7988  -2.7138

          k = 0.7000-0.1000 0.9000 (  2439 PWs)   bands (ev):

   -14.7655  -3.3091  -2.9399  -2.7187

          k = 0.6000 0.0000 0.8000 (  2440 PWs)   bands (ev):

   -14.7672  -3.1803  -3.1120  -2.6638

          k =-0.2000-1.0000 0.0000 (  2428 PWs)   bands (ev):

   -14.7611  -3.3932  -2.8377  -2.7664

          k = 0.6000-0.2000 1.0000 (  2448 PWs)   bands (ev):

   -14.7724  -3.2462  -2.9757  -2.6820

          k = 0.5000-0.1000 0.9000 (  2442 PWs)   bands (ev):

   -14.7657  -3.1903  -3.0729  -2.7163

          k =-0.4000-1.0000 0.0000 (  2450 PWs)   bands (ev):

   -14.7615  -3.2329  -3.0214  -2.7700

     highest occupied level (ev):    -2.3686

!    total energy              =     -30.69450471 Ry
     estimated scf accuracy    <       0.00000060 Ry

     The total energy is the sum of the following terms:
     one-electron contribution =     -12.42573018 Ry
     hartree contribution      =       8.70052926 Ry
     xc contribution           =      -6.22464074 Ry
     ewald contribution        =     -20.74466305 Ry

     convergence has been achieved in  14 iterations
     Writing meta-gga kinetic term

     Writing all to output data dir ./input_pw/LiCl/14/pwscf.save/
     Writing meta-gga kinetic term
 
     init_run     :      4.21s CPU      9.22s WALL (       1 calls)
     electrons    :     40.38s CPU     54.81s WALL (       1 calls)

     Called by init_run:
     wfcinit      :      4.05s CPU      8.69s WALL (       1 calls)
     potinit      :      0.05s CPU      0.25s WALL (       1 calls)
     hinit0       :      0.09s CPU      0.23s WALL (       1 calls)

     Called by electrons:
     c_bands      :     31.63s CPU     43.07s WALL (      14 calls)
     sum_band     :      7.69s CPU     10.37s WALL (      14 calls)
     v_of_rho     :      0.55s CPU      0.90s WALL (      15 calls)
     mix_rho      :      0.53s CPU      0.67s WALL (      14 calls)

     Called by c_bands:
     init_us_2    :      0.37s CPU      0.54s WALL (    1363 calls)
     init_us_2:cp :      0.36s CPU      0.52s WALL (    1363 calls)
     cegterg      :     31.28s CPU     42.59s WALL (     658 calls)

     Called by *egterg:
     cdiaghg      :      0.08s CPU      0.12s WALL (    1484 calls)
     h_psi        :     34.74s CPU     50.38s WALL (    1531 calls)
     g_psi        :      0.02s CPU      0.03s WALL (     826 calls)

     Called by h_psi:
     h_psi:calbec :      0.10s CPU      0.14s WALL (    1531 calls)
     vloc_psi     :      8.59s CPU     12.40s WALL (    1531 calls)
     add_vuspsi   :      0.09s CPU      0.10s WALL (    1531 calls)
     h_psi_meta   :     25.92s CPU     37.68s WALL (    1531 calls)

     General routines
     calbec       :      0.10s CPU      0.14s WALL (    1531 calls)
     fft          :      0.10s CPU      0.20s WALL (     177 calls)
     ffts         :      0.21s CPU      0.27s WALL (     355 calls)
     fftw         :     35.95s CPU     51.59s WALL (   61544 calls)
     interpolate  :      0.00s CPU      0.00s WALL (      15 calls)
 
     Parallel routines
 
     PWSCF        :     44.65s CPU   1m 4.16s WALL

 
   This run was terminated on:  10:22:38  29Mar2023            

=------------------------------------------------------------------------------=
   JOB DONE.
=------------------------------------------------------------------------------=
