
     Program PWSCF v.7.0 starts on 21Mar2023 at 13:11:35 

     This program is part of the open-source Quantum ESPRESSO suite
     for quantum simulation of materials; please cite
         "P. Giannozzi et al., J. Phys.:Condens. Matter 21 395502 (2009);
         "P. Giannozzi et al., J. Phys.:Condens. Matter 29 465901 (2017);
         "P. Giannozzi et al., J. Chem. Phys. 152 154105 (2020);
          URL http://www.quantum-espresso.org", 
     in publications or presentations arising from this work. More details at
     http://www.quantum-espresso.org/quote

     Parallel version (MPI), running on     1 processors

     MPI processes distributed on     1 nodes
     24253 MiB available memory on the printing compute node when the environment starts
 
     Waiting for input...
     Reading input from standard input
Warning: card &CELL ignored
Warning: card / ignored

     Current dimensions of program PWSCF are:
     Max number of different atomic species (ntypx) = 10
     Max number of k-points (npk) =  40000
     Max angular momentum in pseudopotentials (lmaxx) =  4
     file Al.SCAN.UPF2: wavefunction(s)  0D renormalized

     WARNING: the MGGA functional with ID    5 has been 
     read together with other dft terms, but it should 
     stand alone in order to work properly. The other 
     terms will be ignored.

     Subspace diagonalization in iterative solution of the eigenvalue problem:
     a serial algorithm will be used

 
     G-vector sticks info
     --------------------
     sticks:   dense  smooth     PW     G-vecs:    dense   smooth      PW
     Sum        2233    2233    649                70049    70049   10657
 
     Using Slab Decomposition
 


     bravais-lattice index     =            2
     lattice parameter (alat)  =      16.4784  a.u.
     unit-cell volume          =    1118.6290 (a.u.)^3
     number of atoms/cell      =            1
     number of atomic types    =            1
     number of electrons       =         3.00
     number of Kohn-Sham states=            6
     kinetic-energy cutoff     =      60.0000  Ry
     charge density cutoff     =     240.0000  Ry
     scf convergence threshold =      1.0E-06
     mixing beta               =       0.0100
     number of iterations used =            8  local-TF  mixing
     Exchange-correlation= SLA  PW   SCAN SCAN
                           (   0   0   0   0   0 263 267)

     celldm(1)=  16.478412  celldm(2)=   0.000000  celldm(3)=   0.000000
     celldm(4)=   0.000000  celldm(5)=   0.000000  celldm(6)=   0.000000

     crystal axes: (cart. coord. in units of alat)
               a(1) = (  -0.500000   0.000000   0.500000 )  
               a(2) = (   0.000000   0.500000   0.500000 )  
               a(3) = (  -0.500000   0.500000   0.000000 )  

     reciprocal axes: (cart. coord. in units 2 pi/alat)
               b(1) = ( -1.000000 -1.000000  1.000000 )  
               b(2) = (  1.000000  1.000000  1.000000 )  
               b(3) = ( -1.000000  1.000000 -1.000000 )  


     PseudoPot. # 1 for Al read from file:
     ~/Documents/TA/PWDFT.jl/pseudopotentials/scan_upf/Al.SCAN.UPF2
     MD5 check sum: Not computed, couldn't open file
     Pseudo is Norm-conserving, Zval =  3.0
     Generated by new atomic code, or converted to UPF format
     Using radial grid of 1467 points,  2 beta functions with: 
                l(1) =   0
                l(2) =   1

     atomic species   valence    mass     pseudopotential
        Al             3.00    26.98154     Al( 1.00)

     48 Sym. Ops., with inversion, found



   Cartesian axes

     site n.     atom                  positions (alat units)
         1           Al  tau(   1) = (   0.0000000   0.0000000   0.0000000  )

     number of k points=    47  Gaussian smearing, width (Ry)=  0.1000
                       cart. coord. in units 2pi/alat
        k(    1) = (   0.0000000   0.0000000   0.0000000), wk =   0.0020000
        k(    2) = (  -0.1000000   0.1000000  -0.1000000), wk =   0.0160000
        k(    3) = (  -0.2000000   0.2000000  -0.2000000), wk =   0.0160000
        k(    4) = (  -0.3000000   0.3000000  -0.3000000), wk =   0.0160000
        k(    5) = (  -0.4000000   0.4000000  -0.4000000), wk =   0.0160000
        k(    6) = (   0.5000000  -0.5000000   0.5000000), wk =   0.0080000
        k(    7) = (   0.0000000   0.2000000   0.0000000), wk =   0.0120000
        k(    8) = (  -0.1000000   0.3000000  -0.1000000), wk =   0.0480000
        k(    9) = (  -0.2000000   0.4000000  -0.2000000), wk =   0.0480000
        k(   10) = (  -0.3000000   0.5000000  -0.3000000), wk =   0.0480000
        k(   11) = (   0.6000000  -0.4000000   0.6000000), wk =   0.0480000
        k(   12) = (   0.5000000  -0.3000000   0.5000000), wk =   0.0480000
        k(   13) = (   0.4000000  -0.2000000   0.4000000), wk =   0.0480000
        k(   14) = (   0.3000000  -0.1000000   0.3000000), wk =   0.0480000
        k(   15) = (   0.2000000   0.0000000   0.2000000), wk =   0.0240000
        k(   16) = (   0.0000000   0.4000000   0.0000000), wk =   0.0120000
        k(   17) = (  -0.1000000   0.5000000  -0.1000000), wk =   0.0480000
        k(   18) = (  -0.2000000   0.6000000  -0.2000000), wk =   0.0480000
        k(   19) = (   0.7000000  -0.3000000   0.7000000), wk =   0.0480000
        k(   20) = (   0.6000000  -0.2000000   0.6000000), wk =   0.0480000
        k(   21) = (   0.5000000  -0.1000000   0.5000000), wk =   0.0480000
        k(   22) = (   0.4000000   0.0000000   0.4000000), wk =   0.0240000
        k(   23) = (   0.0000000   0.6000000   0.0000000), wk =   0.0120000
        k(   24) = (  -0.1000000   0.7000000  -0.1000000), wk =   0.0480000
        k(   25) = (   0.8000000  -0.2000000   0.8000000), wk =   0.0480000
        k(   26) = (   0.7000000  -0.1000000   0.7000000), wk =   0.0480000
        k(   27) = (   0.6000000  -0.0000000   0.6000000), wk =   0.0240000
        k(   28) = (   0.0000000   0.8000000   0.0000000), wk =   0.0120000
        k(   29) = (   0.9000000  -0.1000000   0.9000000), wk =   0.0480000
        k(   30) = (   0.8000000   0.0000000   0.8000000), wk =   0.0240000
        k(   31) = (   0.0000000  -1.0000000   0.0000000), wk =   0.0060000
        k(   32) = (  -0.2000000   0.4000000   0.0000000), wk =   0.0480000
        k(   33) = (  -0.3000000   0.5000000  -0.1000000), wk =   0.0960000
        k(   34) = (   0.6000000  -0.4000000   0.8000000), wk =   0.0960000
        k(   35) = (   0.5000000  -0.3000000   0.7000000), wk =   0.0480000
        k(   36) = (  -0.2000000   0.6000000   0.0000000), wk =   0.0480000
        k(   37) = (   0.7000000  -0.3000000   0.9000000), wk =   0.0960000
        k(   38) = (   0.6000000  -0.2000000   0.8000000), wk =   0.0960000
        k(   39) = (   0.5000000  -0.1000000   0.7000000), wk =   0.0960000
        k(   40) = (   0.4000000   0.0000000   0.6000000), wk =   0.0480000
        k(   41) = (   0.8000000  -0.2000000   1.0000000), wk =   0.0480000
        k(   42) = (   0.7000000  -0.1000000   0.9000000), wk =   0.0960000
        k(   43) = (   0.6000000   0.0000000   0.8000000), wk =   0.0480000
        k(   44) = (  -0.2000000  -1.0000000   0.0000000), wk =   0.0240000
        k(   45) = (   0.6000000  -0.2000000   1.0000000), wk =   0.0480000
        k(   46) = (   0.5000000  -0.1000000   0.9000000), wk =   0.0480000
        k(   47) = (  -0.4000000  -1.0000000   0.0000000), wk =   0.0240000

     Dense  grid:    70049 G-vectors     FFT dimensions: (  60,  60,  60)

     Estimated max dynamical RAM per process >     143.30 MB

     WARNING: libxc functional with ID  263 depends
      on external parameters: check the user_guide of
      QE if you need to modify them or to check their
      default values.

     Initial potential from superposition of free atoms

     starting charge       2.9979, renormalised to       3.0000
     Starting wfcs are    9 randomized atomic wfcs

     total cpu time spent up to now is       37.9 secs

     Self-consistent Calculation

     iteration #  1     ecut=    60.00 Ry     beta= 0.01
     Davidson diagonalization with overlap
     ethr =  1.00E-02,  avg # of iterations =  2.3

     Threshold (ethr) on eigenvalues was too large:
     Diagonalizing with lowered threshold

     Davidson diagonalization with overlap
     ethr =  5.14E-05,  avg # of iterations =  4.8

     total cpu time spent up to now is      213.7 secs

     total energy              =      -3.94493461 Ry
     estimated scf accuracy    <       0.00195597 Ry

     iteration #  2     ecut=    60.00 Ry     beta= 0.01
     Davidson diagonalization with overlap
     ethr =  6.52E-05,  avg # of iterations =  1.0

     total cpu time spent up to now is      274.1 secs

     total energy              =      -3.95959517 Ry
     estimated scf accuracy    <       0.00193039 Ry

     iteration #  3     ecut=    60.00 Ry     beta= 0.01
     Davidson diagonalization with overlap
     ethr =  6.43E-05,  avg # of iterations =  2.1

     total cpu time spent up to now is      340.3 secs

     total energy              =      -3.96064319 Ry
     estimated scf accuracy    <       0.00005491 Ry

     iteration #  4     ecut=    60.00 Ry     beta= 0.01
     Davidson diagonalization with overlap
     ethr =  1.83E-06,  avg # of iterations =  5.7

     total cpu time spent up to now is      410.5 secs

     total energy              =      -3.96043303 Ry
     estimated scf accuracy    <       0.00003066 Ry

     iteration #  5     ecut=    60.00 Ry     beta= 0.01
     Davidson diagonalization with overlap
     ethr =  1.02E-06,  avg # of iterations =  3.0

     total cpu time spent up to now is      467.1 secs

     total energy              =      -3.96061564 Ry
     estimated scf accuracy    <       0.00002145 Ry

     iteration #  6     ecut=    60.00 Ry     beta= 0.01
     Davidson diagonalization with overlap
     ethr =  7.15E-07,  avg # of iterations =  1.0

     total cpu time spent up to now is      500.5 secs

     total energy              =      -3.96064721 Ry
     estimated scf accuracy    <       0.00001991 Ry

     iteration #  7     ecut=    60.00 Ry     beta= 0.01
     Davidson diagonalization with overlap
     ethr =  6.64E-07,  avg # of iterations =  3.6

     total cpu time spent up to now is      539.4 secs

     total energy              =      -3.96078102 Ry
     estimated scf accuracy    <       0.00000240 Ry

     iteration #  8     ecut=    60.00 Ry     beta= 0.01
     Davidson diagonalization with overlap
     ethr =  8.00E-08,  avg # of iterations =  1.7

     total cpu time spent up to now is      559.4 secs

     total energy              =      -3.96078006 Ry
     estimated scf accuracy    <       0.00000256 Ry

     iteration #  9     ecut=    60.00 Ry     beta= 0.01
     Davidson diagonalization with overlap
     ethr =  8.00E-08,  avg # of iterations =  1.1

     total cpu time spent up to now is      578.4 secs

     total energy              =      -3.96076661 Ry
     estimated scf accuracy    <       0.00000267 Ry

     iteration # 10     ecut=    60.00 Ry     beta= 0.01
     Davidson diagonalization with overlap
     ethr =  8.00E-08,  avg # of iterations =  2.0

     total cpu time spent up to now is      601.9 secs

     End of self-consistent calculation

          k = 0.0000 0.0000 0.0000 (  8801 PWs)   bands (ev):

    -6.7542  -0.7705  -0.7705  -0.7705   0.8506   3.6833

          k =-0.1000 0.1000-0.1000 (  8765 PWs)   bands (ev):

    -6.7391  -0.9480  -0.7837  -0.7837   1.0502   3.4498

          k =-0.2000 0.2000-0.2000 (  8765 PWs)   bands (ev):

    -6.6986  -1.3024  -0.8169  -0.8169   1.4393   3.1681

          k =-0.3000 0.3000-0.3000 (  8802 PWs)   bands (ev):

    -6.6463  -1.6402  -0.8560  -0.8560   1.7236   3.1295

          k =-0.4000 0.4000-0.4000 (  8802 PWs)   bands (ev):

    -6.6020  -1.8727  -0.8861  -0.8861   1.8032   3.2759

          k = 0.5000-0.5000 0.5000 (  8754 PWs)   bands (ev):

    -6.5845  -1.9553  -0.8972  -0.8972   1.8065   3.4437

          k = 0.0000 0.2000 0.0000 (  8785 PWs)   bands (ev):

    -6.7341  -0.9536  -0.8136  -0.8136   1.1158   3.3464

          k =-0.1000 0.3000-0.1000 (  8793 PWs)   bands (ev):

    -6.7021  -1.2182  -0.8595  -0.8424   1.4408   3.0994

          k =-0.2000 0.4000-0.2000 (  8798 PWs)   bands (ev):

    -6.6536  -1.5380  -0.9026  -0.8886   1.7771   2.9981

          k =-0.3000 0.5000-0.3000 (  8769 PWs)   bands (ev):

    -6.6063  -1.7895  -0.9459  -0.9274   1.9312   3.0010

          k = 0.6000-0.4000 0.6000 (  8777 PWs)   bands (ev):

    -6.5796  -1.9144  -0.9923  -0.9260   1.9611   2.9474

          k = 0.5000-0.3000 0.5000 (  8785 PWs)   bands (ev):

    -6.5854  -1.8876  -1.0113  -0.8993   1.9684   2.9831

          k = 0.4000-0.2000 0.4000 (  8788 PWs)   bands (ev):

    -6.6210  -1.7156  -0.9946  -0.8560   1.9221   3.0632

          k = 0.3000-0.1000 0.3000 (  8811 PWs)   bands (ev):

    -6.6710  -1.4383  -0.9428  -0.8114   1.6875   3.0619

          k = 0.2000 0.0000 0.2000 (  8787 PWs)   bands (ev):

    -6.7155  -1.1379  -0.8620  -0.7830   1.3114   3.2336

          k = 0.0000 0.4000 0.0000 (  8792 PWs)   bands (ev):

    -6.6803  -1.2892  -0.9199  -0.9199   1.6243   2.8643

          k =-0.1000 0.5000-0.1000 (  8805 PWs)   bands (ev):

    -6.6404  -1.4960  -0.9859  -0.9739   1.8646   2.7199

          k =-0.2000 0.6000-0.2000 (  8783 PWs)   bands (ev):

    -6.5967  -1.6953  -1.0841  -1.0026   2.0411   2.7373

          k = 0.7000-0.3000 0.7000 (  8782 PWs)   bands (ev):

    -6.5664  -1.8125  -1.1881  -0.9974   2.1501   2.6905

          k = 0.6000-0.2000 0.6000 (  8765 PWs)   bands (ev):

    -6.5625  -1.8193  -1.2530  -0.9601   2.2810   2.6355

          k = 0.5000-0.1000 0.5000 (  8775 PWs)   bands (ev):

    -6.5868  -1.7268  -1.2408  -0.9025   2.3317   2.7400

          k = 0.4000 0.0000 0.4000 (  8762 PWs)   bands (ev):

    -6.6285  -1.5846  -1.1259  -0.8451   2.0767   3.0034

          k = 0.0000 0.6000 0.0000 (  8792 PWs)   bands (ev):

    -6.6112  -1.5810  -1.0405  -1.0405   1.8317   2.4901

          k =-0.1000 0.7000-0.1000 (  8776 PWs)   bands (ev):

    -6.5765  -1.6954  -1.1333  -1.0795   1.8273   2.4410

          k = 0.8000-0.2000 0.8000 (  8776 PWs)   bands (ev):

    -6.5497  -1.7439  -1.2980  -1.0793   1.9078   2.5907

          k = 0.7000-0.1000 0.7000 (  8775 PWs)   bands (ev):

    -6.5418  -1.6989  -1.4675  -1.0400   2.0720   2.7699

          k = 0.6000-0.0000 0.6000 (  8788 PWs)   bands (ev):

    -6.5563  -1.6758  -1.4658  -0.9735   2.3345   2.7511

          k = 0.0000 0.8000 0.0000 (  8800 PWs)   bands (ev):

    -6.5531  -1.7678  -1.1307  -1.1307   1.6302   2.2602

          k = 0.9000-0.1000 0.9000 (  8789 PWs)   bands (ev):

    -6.5357  -1.7942  -1.2249  -1.1411   1.6341   2.2977

          k = 0.8000 0.0000 0.8000 (  8798 PWs)   bands (ev):

    -6.5314  -1.7329  -1.4046  -1.1076   1.8042   2.5445

          k = 0.0000-1.0000 0.0000 (  8744 PWs)   bands (ev):

    -6.5303  -1.8315  -1.1637  -1.1637   1.5165   2.1829

          k =-0.2000 0.4000 0.0000 (  8803 PWs)   bands (ev):

    -6.6661  -1.4085  -0.9806  -0.8599   1.7516   2.9280

          k =-0.3000 0.5000-0.1000 (  8783 PWs)   bands (ev):

    -6.6198  -1.6284  -1.0851  -0.9018   2.0580   2.8906

          k = 0.6000-0.4000 0.8000 (  8787 PWs)   bands (ev):

    -6.5809  -1.7972  -1.1436  -0.9493   2.1948   2.7333

          k = 0.5000-0.3000 0.7000 (  8784 PWs)   bands (ev):

    -6.5657  -1.8597  -1.1614  -0.9700   2.2265   2.6441

          k =-0.2000 0.6000 0.0000 (  8781 PWs)   bands (ev):

    -6.6030  -1.6230  -1.1136  -1.0059   1.9962   2.6312

          k = 0.7000-0.3000 0.9000 (  8776 PWs)   bands (ev):

    -6.5676  -1.7183  -1.2411  -1.0531   2.1141   2.7012

          k = 0.6000-0.2000 0.8000 (  8766 PWs)   bands (ev):

    -6.5486  -1.7484  -1.3516  -1.0619   2.2330   2.6901

          k = 0.5000-0.1000 0.7000 (  8767 PWs)   bands (ev):

    -6.5542  -1.7222  -1.3866  -1.0215   2.4112   2.6215

          k = 0.4000 0.0000 0.6000 (  8777 PWs)   bands (ev):

    -6.5817  -1.6838  -1.2845  -0.9557   2.4034   2.7260

          k = 0.8000-0.2000 1.0000 (  8778 PWs)   bands (ev):

    -6.5503  -1.7450  -1.2123  -1.1407   1.8092   2.4356

          k = 0.7000-0.1000 0.9000 (  8760 PWs)   bands (ev):

    -6.5348  -1.7162  -1.3758  -1.1544   1.9310   2.6278

          k = 0.6000 0.0000 0.8000 (  8762 PWs)   bands (ev):

    -6.5364  -1.5951  -1.5679  -1.1035   2.1345   2.8296

          k =-0.2000-1.0000 0.0000 (  8778 PWs)   bands (ev):

    -6.5298  -1.7817  -1.2482  -1.1962   1.6978   2.3684

          k = 0.6000-0.2000 1.0000 (  8769 PWs)   bands (ev):

    -6.5436  -1.6796  -1.3997  -1.1373   2.2041   2.8825

          k = 0.5000-0.1000 0.9000 (  8782 PWs)   bands (ev):

    -6.5343  -1.6222  -1.4957  -1.1800   2.2293   2.9388

          k =-0.4000-1.0000 0.0000 (  8788 PWs)   bands (ev):

    -6.5289  -1.6413  -1.4413  -1.2452   2.0888   2.8473

     the Fermi energy is    -2.2654 ev

!    total energy              =      -3.96077584 Ry
     estimated scf accuracy    <       0.00000004 Ry
     smearing contrib. (-TS)   =      -0.09988952 Ry
     internal energy E=F+TS    =      -3.86088632 Ry

     The total energy is F=E-TS. E is the sum of the following terms:
     one-electron contribution =      -0.86488313 Ry
     hartree contribution      =       0.67284470 Ry
     xc contribution           =      -1.16473771 Ry
     ewald contribution        =      -2.50411018 Ry

     convergence has been achieved in  10 iterations
     Writing meta-gga kinetic term

     Writing all to output data dir ./input_pw/Al/12/pwscf.save/
     Writing meta-gga kinetic term
 
     init_run     :     18.69s CPU     37.83s WALL (       1 calls)
     electrons    :    430.95s CPU    564.07s WALL (       1 calls)

     Called by init_run:
     wfcinit      :     18.31s CPU     36.93s WALL (       1 calls)
     potinit      :      0.20s CPU      0.63s WALL (       1 calls)
     hinit0       :      0.08s CPU      0.13s WALL (       1 calls)

     Called by electrons:
     c_bands      :    356.32s CPU    464.10s WALL (      11 calls)
     sum_band     :     69.92s CPU     94.01s WALL (      11 calls)
     v_of_rho     :      1.79s CPU      2.58s WALL (      11 calls)
     mix_rho      :      3.00s CPU      3.81s WALL (      11 calls)

     Called by c_bands:
     init_us_2    :      1.06s CPU      1.55s WALL (    1081 calls)
     init_us_2:cp :      1.06s CPU      1.55s WALL (    1081 calls)
     cegterg      :    355.05s CPU    462.42s WALL (     517 calls)

     Called by *egterg:
     cdiaghg      :      0.24s CPU      0.28s WALL (    1807 calls)
     h_psi        :    367.68s CPU    491.87s WALL (    1901 calls)
     g_psi        :      0.24s CPU      0.33s WALL (    1337 calls)

     Called by h_psi:
     h_psi:calbec :      1.06s CPU      1.37s WALL (    1901 calls)
     vloc_psi     :     90.17s CPU    120.58s WALL (    1901 calls)
     add_vuspsi   :      0.56s CPU      0.85s WALL (    1901 calls)
     h_psi_meta   :    275.49s CPU    368.58s WALL (    1901 calls)

     General routines
     calbec       :      1.05s CPU      1.36s WALL (    1901 calls)
     fft          :      0.45s CPU      0.67s WALL (     131 calls)
     ffts         :      0.88s CPU      1.13s WALL (     239 calls)
     fftw         :    322.20s CPU    432.37s WALL (   87936 calls)
     interpolate  :      0.01s CPU      0.01s WALL (      11 calls)
 
     Parallel routines
 
     PWSCF        :   7m29.69s CPU  10m 2.01s WALL

 
   This run was terminated on:  13:21:37  21Mar2023            

=------------------------------------------------------------------------------=
   JOB DONE.
=------------------------------------------------------------------------------=
