
     Program PWSCF v.7.0 starts on  4Apr2023 at  8:56:52 

     This program is part of the open-source Quantum ESPRESSO suite
     for quantum simulation of materials; please cite
         "P. Giannozzi et al., J. Phys.:Condens. Matter 21 395502 (2009);
         "P. Giannozzi et al., J. Phys.:Condens. Matter 29 465901 (2017);
         "P. Giannozzi et al., J. Chem. Phys. 152 154105 (2020);
          URL http://www.quantum-espresso.org", 
     in publications or presentations arising from this work. More details at
     http://www.quantum-espresso.org/quote

     Parallel version (MPI), running on     1 processors

     MPI processes distributed on     1 nodes
     19273 MiB available memory on the printing compute node when the environment starts
 
     Waiting for input...
     Reading input from standard input
Warning: card &CELL ignored
Warning: card / ignored

     Current dimensions of program PWSCF are:
     Max number of different atomic species (ntypx) = 10
     Max number of k-points (npk) =  40000
     Max angular momentum in pseudopotentials (lmaxx) =  4
     file Al.SCAN.UPF2: wavefunction(s)  0D renormalized

     WARNING: the MGGA functional with ID    5 has been 
     read together with other dft terms, but it should 
     stand alone in order to work properly. The other 
     terms will be ignored.

     Subspace diagonalization in iterative solution of the eigenvalue problem:
     a serial algorithm will be used

 
     G-vector sticks info
     --------------------
     sticks:   dense  smooth     PW     G-vecs:    dense   smooth      PW
     Sum        1345    1345    379                32311    32311    5029
 
     Using Slab Decomposition
 


     bravais-lattice index     =            2
     lattice parameter (alat)  =      12.6990  a.u.
     unit-cell volume          =     511.9699 (a.u.)^3
     number of atoms/cell      =            1
     number of atomic types    =            1
     number of electrons       =         3.00
     number of Kohn-Sham states=            6
     kinetic-energy cutoff     =      60.0000  Ry
     charge density cutoff     =     240.0000  Ry
     scf convergence threshold =      1.0E-06
     mixing beta               =       0.0100
     number of iterations used =            8  local-TF  mixing
     Exchange-correlation= SLA  PW   SCAN SCAN
                           (   0   0   0   0   0 263 267)

     celldm(1)=  12.698960  celldm(2)=   0.000000  celldm(3)=   0.000000
     celldm(4)=   0.000000  celldm(5)=   0.000000  celldm(6)=   0.000000

     crystal axes: (cart. coord. in units of alat)
               a(1) = (  -0.500000   0.000000   0.500000 )  
               a(2) = (   0.000000   0.500000   0.500000 )  
               a(3) = (  -0.500000   0.500000   0.000000 )  

     reciprocal axes: (cart. coord. in units 2 pi/alat)
               b(1) = ( -1.000000 -1.000000  1.000000 )  
               b(2) = (  1.000000  1.000000  1.000000 )  
               b(3) = ( -1.000000  1.000000 -1.000000 )  


     PseudoPot. # 1 for Al read from file:
     ~/Documents/TA/PWDFT.jl/pseudopotentials/scan_upf/Al.SCAN.UPF2
     MD5 check sum: Not computed, couldn't open file
     Pseudo is Norm-conserving, Zval =  3.0
     Generated by new atomic code, or converted to UPF format
     Using radial grid of 1467 points,  2 beta functions with: 
                l(1) =   0
                l(2) =   1

     atomic species   valence    mass     pseudopotential
        Al             3.00    26.98154     Al( 1.00)

     48 Sym. Ops., with inversion, found



   Cartesian axes

     site n.     atom                  positions (alat units)
         1           Al  tau(   1) = (   0.0000000   0.0000000   0.0000000  )

     number of k points=    47  Gaussian smearing, width (Ry)=  0.1000
                       cart. coord. in units 2pi/alat
        k(    1) = (   0.0000000   0.0000000   0.0000000), wk =   0.0020000
        k(    2) = (  -0.1000000   0.1000000  -0.1000000), wk =   0.0160000
        k(    3) = (  -0.2000000   0.2000000  -0.2000000), wk =   0.0160000
        k(    4) = (  -0.3000000   0.3000000  -0.3000000), wk =   0.0160000
        k(    5) = (  -0.4000000   0.4000000  -0.4000000), wk =   0.0160000
        k(    6) = (   0.5000000  -0.5000000   0.5000000), wk =   0.0080000
        k(    7) = (   0.0000000   0.2000000   0.0000000), wk =   0.0120000
        k(    8) = (  -0.1000000   0.3000000  -0.1000000), wk =   0.0480000
        k(    9) = (  -0.2000000   0.4000000  -0.2000000), wk =   0.0480000
        k(   10) = (  -0.3000000   0.5000000  -0.3000000), wk =   0.0480000
        k(   11) = (   0.6000000  -0.4000000   0.6000000), wk =   0.0480000
        k(   12) = (   0.5000000  -0.3000000   0.5000000), wk =   0.0480000
        k(   13) = (   0.4000000  -0.2000000   0.4000000), wk =   0.0480000
        k(   14) = (   0.3000000  -0.1000000   0.3000000), wk =   0.0480000
        k(   15) = (   0.2000000   0.0000000   0.2000000), wk =   0.0240000
        k(   16) = (   0.0000000   0.4000000   0.0000000), wk =   0.0120000
        k(   17) = (  -0.1000000   0.5000000  -0.1000000), wk =   0.0480000
        k(   18) = (  -0.2000000   0.6000000  -0.2000000), wk =   0.0480000
        k(   19) = (   0.7000000  -0.3000000   0.7000000), wk =   0.0480000
        k(   20) = (   0.6000000  -0.2000000   0.6000000), wk =   0.0480000
        k(   21) = (   0.5000000  -0.1000000   0.5000000), wk =   0.0480000
        k(   22) = (   0.4000000   0.0000000   0.4000000), wk =   0.0240000
        k(   23) = (   0.0000000   0.6000000   0.0000000), wk =   0.0120000
        k(   24) = (  -0.1000000   0.7000000  -0.1000000), wk =   0.0480000
        k(   25) = (   0.8000000  -0.2000000   0.8000000), wk =   0.0480000
        k(   26) = (   0.7000000  -0.1000000   0.7000000), wk =   0.0480000
        k(   27) = (   0.6000000  -0.0000000   0.6000000), wk =   0.0240000
        k(   28) = (   0.0000000   0.8000000   0.0000000), wk =   0.0120000
        k(   29) = (   0.9000000  -0.1000000   0.9000000), wk =   0.0480000
        k(   30) = (   0.8000000   0.0000000   0.8000000), wk =   0.0240000
        k(   31) = (   0.0000000  -1.0000000   0.0000000), wk =   0.0060000
        k(   32) = (  -0.2000000   0.4000000   0.0000000), wk =   0.0480000
        k(   33) = (  -0.3000000   0.5000000  -0.1000000), wk =   0.0960000
        k(   34) = (   0.6000000  -0.4000000   0.8000000), wk =   0.0960000
        k(   35) = (   0.5000000  -0.3000000   0.7000000), wk =   0.0480000
        k(   36) = (  -0.2000000   0.6000000   0.0000000), wk =   0.0480000
        k(   37) = (   0.7000000  -0.3000000   0.9000000), wk =   0.0960000
        k(   38) = (   0.6000000  -0.2000000   0.8000000), wk =   0.0960000
        k(   39) = (   0.5000000  -0.1000000   0.7000000), wk =   0.0960000
        k(   40) = (   0.4000000   0.0000000   0.6000000), wk =   0.0480000
        k(   41) = (   0.8000000  -0.2000000   1.0000000), wk =   0.0480000
        k(   42) = (   0.7000000  -0.1000000   0.9000000), wk =   0.0960000
        k(   43) = (   0.6000000   0.0000000   0.8000000), wk =   0.0480000
        k(   44) = (  -0.2000000  -1.0000000   0.0000000), wk =   0.0240000
        k(   45) = (   0.6000000  -0.2000000   1.0000000), wk =   0.0480000
        k(   46) = (   0.5000000  -0.1000000   0.9000000), wk =   0.0480000
        k(   47) = (  -0.4000000  -1.0000000   0.0000000), wk =   0.0240000

     Dense  grid:    32311 G-vectors     FFT dimensions: (  45,  45,  45)

     Estimated max dynamical RAM per process >      65.04 MB

     WARNING: libxc functional with ID  263 depends
      on external parameters: check the user_guide of
      QE if you need to modify them or to check their
      default values.

     Initial potential from superposition of free atoms

     starting charge       2.9979, renormalised to       3.0000
     Starting wfcs are    9 randomized atomic wfcs

     total cpu time spent up to now is       10.6 secs

     Self-consistent Calculation

     iteration #  1     ecut=    60.00 Ry     beta= 0.01
     Davidson diagonalization with overlap
     ethr =  1.00E-02,  avg # of iterations =  2.6

     Threshold (ethr) on eigenvalues was too large:
     Diagonalizing with lowered threshold

     Davidson diagonalization with overlap
     ethr =  1.18E-04,  avg # of iterations =  3.0

     total cpu time spent up to now is       53.5 secs

     total energy              =      -3.98615628 Ry
     estimated scf accuracy    <       0.00345985 Ry

     iteration #  2     ecut=    60.00 Ry     beta= 0.01
     Davidson diagonalization with overlap
     ethr =  1.15E-04,  avg # of iterations =  1.0

     total cpu time spent up to now is       68.2 secs

     total energy              =      -3.99411229 Ry
     estimated scf accuracy    <       0.00339328 Ry

     iteration #  3     ecut=    60.00 Ry     beta= 0.01
     Davidson diagonalization with overlap
     ethr =  1.13E-04,  avg # of iterations =  2.0

     total cpu time spent up to now is       89.8 secs

     total energy              =      -3.99532685 Ry
     estimated scf accuracy    <       0.00008326 Ry

     iteration #  4     ecut=    60.00 Ry     beta= 0.01
     Davidson diagonalization with overlap
     ethr =  2.78E-06,  avg # of iterations =  3.3

     total cpu time spent up to now is      108.4 secs

     total energy              =      -3.99535235 Ry
     estimated scf accuracy    <       0.00004191 Ry

     iteration #  5     ecut=    60.00 Ry     beta= 0.01
     Davidson diagonalization with overlap
     ethr =  1.40E-06,  avg # of iterations =  1.3

     total cpu time spent up to now is      118.7 secs

     total energy              =      -3.99527547 Ry
     estimated scf accuracy    <       0.00003609 Ry

     iteration #  6     ecut=    60.00 Ry     beta= 0.01
     Davidson diagonalization with overlap
     ethr =  1.20E-06,  avg # of iterations =  2.0

     total cpu time spent up to now is      131.8 secs

     End of self-consistent calculation

          k = 0.0000 0.0000 0.0000 (  4015 PWs)   bands (ev):

    -6.0308   2.2313   2.2313   2.2313   4.9118   6.4943

          k =-0.1000 0.1000-0.1000 (  3981 PWs)   bands (ev):

    -5.9566   1.6957   2.1780   2.1780   5.2458   6.3265

          k =-0.2000 0.2000-0.2000 (  4014 PWs)   bands (ev):

    -5.7435   0.6658   2.0524   2.0524   5.2119   6.7688

          k =-0.3000 0.3000-0.3000 (  4002 PWs)   bands (ev):

    -5.4283  -0.3573   1.9192   1.9192   4.8935   6.5110

          k =-0.4000 0.4000-0.4000 (  4005 PWs)   bands (ev):

    -5.1035  -1.1390   1.8250   1.8250   4.6796   6.2254

          k = 0.5000-0.5000 0.5000 (  4044 PWs)   bands (ev):

    -4.9517  -1.4475   1.7916   1.7916   4.6078   6.1185

          k = 0.0000 0.2000 0.0000 (  3983 PWs)   bands (ev):

    -5.9318   1.7519   2.0403   2.0403   5.4304   5.9513

          k =-0.1000 0.3000-0.1000 (  4011 PWs)   bands (ev):

    -5.7647   0.9681   1.8608   1.9429   5.5125   5.9957

          k =-0.2000 0.4000-0.2000 (  4006 PWs)   bands (ev):

    -5.4813  -0.0166   1.7153   1.7689   5.2125   6.2292

          k =-0.3000 0.5000-0.3000 (  4012 PWs)   bands (ev):

    -5.1508  -0.8643   1.5649   1.6471   5.0137   5.8666

          k = 0.6000-0.4000 0.6000 (  4020 PWs)   bands (ev):

    -4.9243  -1.3378   1.4040   1.6696   4.9539   5.7120

          k = 0.5000-0.3000 0.5000 (  4016 PWs)   bands (ev):

    -4.9762  -1.2345   1.3275   1.7739   5.0259   5.7865

          k = 0.4000-0.2000 0.4000 (  4009 PWs)   bands (ev):

    -5.2602  -0.6078   1.3590   1.9324   5.2096   6.0916

          k = 0.3000-0.1000 0.3000 (  4008 PWs)   bands (ev):

    -5.5868   0.2988   1.5129   2.0969   5.4975   6.4613

          k = 0.2000 0.0000 0.2000 (  4009 PWs)   bands (ev):

    -5.8358   1.1898   1.8179   2.1990   5.6336   6.0444

          k = 0.0000 0.4000 0.0000 (  4008 PWs)   bands (ev):

    -5.6470   0.8596   1.6290   1.6290   5.1471   5.4845

          k =-0.1000 0.5000-0.1000 (  4020 PWs)   bands (ev):

    -5.4086   0.2030   1.3861   1.4476   4.9149   5.2505

          k =-0.2000 0.6000-0.2000 (  4012 PWs)   bands (ev):

    -5.1022  -0.5310   1.0341   1.3646   4.6667   5.7130

          k = 0.7000-0.3000 0.7000 (  4024 PWs)   bands (ev):

    -4.8449  -1.0474   0.7081   1.3958   4.6190   6.1085

          k = 0.6000-0.2000 0.6000 (  4015 PWs)   bands (ev):

    -4.8043  -1.1132   0.5075   1.5337   4.8022   6.1954

          k = 0.5000-0.1000 0.5000 (  4016 PWs)   bands (ev):

    -5.0140  -0.7065   0.4992   1.7461   5.2038   6.2533

          k = 0.4000 0.0000 0.4000 (  4023 PWs)   bands (ev):

    -5.3210  -0.1311   0.8173   1.9673   5.7672   6.2501

          k = 0.0000 0.6000 0.0000 (  4020 PWs)   bands (ev):

    -5.2223  -0.0402   1.2265   1.2265   4.4009   4.5158

          k =-0.1000 0.7000-0.1000 (  4031 PWs)   bands (ev):

    -4.9650  -0.4880   0.8669   1.1094   4.1026   4.6379

          k = 0.8000-0.2000 0.8000 (  4024 PWs)   bands (ev):

    -4.7279  -0.8044   0.2953   1.1181   4.0554   5.4150

          k = 0.7000-0.1000 0.7000 (  4024 PWs)   bands (ev):

    -4.6424  -0.8151  -0.1738   1.2505   4.2327   6.4024

          k = 0.6000-0.0000 0.6000 (  4021 PWs)   bands (ev):

    -4.7674  -0.6758  -0.1872   1.4807   4.6290   7.0916

          k = 0.0000 0.8000 0.0000 (  4024 PWs)   bands (ev):

    -4.7769  -0.7787   0.9533   0.9533   3.6295   4.1265

          k = 0.9000-0.1000 0.9000 (  4024 PWs)   bands (ev):

    -4.6132  -0.9635   0.5724   0.9257   3.6251   4.3760

          k = 0.8000 0.0000 0.8000 (  4027 PWs)   bands (ev):

    -4.5607  -0.8602  -0.0468   1.0307   3.8409   5.3093

          k = 0.0000-1.0000 0.0000 (  4040 PWs)   bands (ev):

    -4.5632  -1.0928   0.8579   0.8579   3.3656   3.9955

          k =-0.2000 0.4000 0.0000 (  4003 PWs)   bands (ev):

    -5.5613   0.4471   1.3549   1.8923   5.5679   5.8278

          k =-0.3000 0.5000-0.1000 (  4014 PWs)   bands (ev):

    -5.2633  -0.2925   1.0063   1.7270   5.4142   5.8682

          k = 0.6000-0.4000 0.8000 (  4010 PWs)   bands (ev):

    -4.9619  -0.9530   0.8582   1.5449   5.2832   5.5950

          k = 0.5000-0.3000 0.7000 (  4010 PWs)   bands (ev):

    -4.8236  -1.2228   0.8206   1.4677   5.2822   5.4339

          k =-0.2000 0.6000 0.0000 (  4024 PWs)   bands (ev):

    -5.1573  -0.2230   0.9149   1.3214   4.8002   5.0333

          k = 0.7000-0.3000 0.9000 (  4022 PWs)   bands (ev):

    -4.8778  -0.6696   0.5030   1.1290   4.6967   5.6134

          k = 0.6000-0.2000 0.8000 (  4027 PWs)   bands (ev):

    -4.7004  -0.9292   0.1989   1.0970   4.7556   6.1322

          k = 0.5000-0.1000 0.7000 (  4016 PWs)   bands (ev):

    -4.7486  -0.8319   0.0814   1.2450   4.9913   6.1830

          k = 0.4000 0.0000 0.6000 (  4015 PWs)   bands (ev):

    -4.9841  -0.5376   0.3293   1.4995   5.3497   6.1870

          k = 0.8000-0.2000 1.0000 (  4024 PWs)   bands (ev):

    -4.7444  -0.7510   0.6209   0.8295   4.1087   4.6846

          k = 0.7000-0.1000 0.9000 (  4029 PWs)   bands (ev):

    -4.5926  -0.7980   0.0591   0.7766   4.3018   5.4299

          k = 0.6000 0.0000 0.8000 (  4033 PWs)   bands (ev):

    -4.5968  -0.5202  -0.4798   0.9487   4.5772   6.4061

          k =-0.2000-1.0000 0.0000 (  4032 PWs)   bands (ev):

    -4.5525  -0.9762   0.5189   0.6417   3.8814   4.5653

          k = 0.6000-0.2000 1.0000 (  4033 PWs)   bands (ev):

    -4.6684  -0.6750   0.0104   0.7688   5.0302   5.9550

          k = 0.5000-0.1000 0.9000 (  4034 PWs)   bands (ev):

    -4.5796  -0.6158  -0.2303   0.6094   5.1071   6.3434

          k =-0.4000-1.0000 0.0000 (  4026 PWs)   bands (ev):

    -4.5347  -0.6341  -0.0992   0.3713   4.9040   5.8639

     the Fermi energy is    -0.8611 ev

!    total energy              =      -3.99531000 Ry
     estimated scf accuracy    <       0.00000037 Ry
     smearing contrib. (-TS)   =      -0.07224151 Ry
     internal energy E=F+TS    =      -3.92306849 Ry

     The total energy is F=E-TS. E is the sum of the following terms:
     one-electron contribution =       0.22083324 Ry
     hartree contribution      =       0.29406594 Ry
     xc contribution           =      -1.18858661 Ry
     ewald contribution        =      -3.24938106 Ry

     convergence has been achieved in   6 iterations
     Writing meta-gga kinetic term

     Writing all to output data dir ./input_pw/Al/12/pwscf.save/
     Writing meta-gga kinetic term
 
     init_run     :      5.55s CPU     10.53s WALL (       1 calls)
     electrons    :     84.57s CPU    121.19s WALL (       1 calls)

     Called by init_run:
     wfcinit      :      5.37s CPU     10.25s WALL (       1 calls)
     potinit      :      0.07s CPU      0.13s WALL (       1 calls)
     hinit0       :      0.07s CPU      0.10s WALL (       1 calls)

     Called by electrons:
     c_bands      :     68.87s CPU    100.76s WALL (       7 calls)
     sum_band     :     14.92s CPU     19.40s WALL (       7 calls)
     v_of_rho     :      0.47s CPU      0.67s WALL (       7 calls)
     mix_rho      :      0.35s CPU      0.45s WALL (       7 calls)

     Called by c_bands:
     init_us_2    :      0.33s CPU      0.47s WALL (     705 calls)
     init_us_2:cp :      0.32s CPU      0.47s WALL (     705 calls)
     cegterg      :     68.52s CPU    100.24s WALL (     329 calls)

     Called by *egterg:
     cdiaghg      :      0.11s CPU      0.13s WALL (     996 calls)
     h_psi        :     72.75s CPU    108.71s WALL (    1090 calls)
     g_psi        :      0.04s CPU      0.08s WALL (     714 calls)

     Called by h_psi:
     h_psi:calbec :      0.18s CPU      0.32s WALL (    1090 calls)
     vloc_psi     :     17.98s CPU     27.16s WALL (    1090 calls)
     add_vuspsi   :      0.12s CPU      0.17s WALL (    1090 calls)
     h_psi_meta   :     54.38s CPU     80.94s WALL (    1090 calls)

     General routines
     calbec       :      0.18s CPU      0.31s WALL (    1090 calls)
     fft          :      0.11s CPU      0.18s WALL (      83 calls)
     ffts         :      0.14s CPU      0.18s WALL (     101 calls)
     fftw         :     70.79s CPU    104.17s WALL (   52584 calls)
     interpolate  :      0.00s CPU      0.00s WALL (       7 calls)
 
     Parallel routines
 
     PWSCF        :   1m30.19s CPU   2m11.85s WALL

 
   This run was terminated on:   8:59: 4   4Apr2023            

=------------------------------------------------------------------------------=
   JOB DONE.
=------------------------------------------------------------------------------=
