
     Program PWSCF v.7.0 starts on 21Mar2023 at 13:11:35 

     This program is part of the open-source Quantum ESPRESSO suite
     for quantum simulation of materials; please cite
         "P. Giannozzi et al., J. Phys.:Condens. Matter 21 395502 (2009);
         "P. Giannozzi et al., J. Phys.:Condens. Matter 29 465901 (2017);
         "P. Giannozzi et al., J. Chem. Phys. 152 154105 (2020);
          URL http://www.quantum-espresso.org", 
     in publications or presentations arising from this work. More details at
     http://www.quantum-espresso.org/quote

     Parallel version (MPI), running on     1 processors

     MPI processes distributed on     1 nodes
     24425 MiB available memory on the printing compute node when the environment starts
 
     Waiting for input...
     Reading input from standard input
Warning: card &CELL ignored
Warning: card / ignored

     Current dimensions of program PWSCF are:
     Max number of different atomic species (ntypx) = 10
     Max number of k-points (npk) =  40000
     Max angular momentum in pseudopotentials (lmaxx) =  4
     file Al.SCAN.UPF2: wavefunction(s)  0D renormalized

     WARNING: the MGGA functional with ID    5 has been 
     read together with other dft terms, but it should 
     stand alone in order to work properly. The other 
     terms will be ignored.

     Subspace diagonalization in iterative solution of the eigenvalue problem:
     a serial algorithm will be used

 
     G-vector sticks info
     --------------------
     sticks:   dense  smooth     PW     G-vecs:    dense   smooth      PW
     Sum        1813    1813    511                51253    51253    7799
 
     Using Slab Decomposition
 


     bravais-lattice index     =            2
     lattice parameter (alat)  =      14.8306  a.u.
     unit-cell volume          =     815.4805 (a.u.)^3
     number of atoms/cell      =            1
     number of atomic types    =            1
     number of electrons       =         3.00
     number of Kohn-Sham states=            6
     kinetic-energy cutoff     =      60.0000  Ry
     charge density cutoff     =     240.0000  Ry
     scf convergence threshold =      1.0E-06
     mixing beta               =       0.0100
     number of iterations used =            8  local-TF  mixing
     Exchange-correlation= SLA  PW   SCAN SCAN
                           (   0   0   0   0   0 263 267)

     celldm(1)=  14.830571  celldm(2)=   0.000000  celldm(3)=   0.000000
     celldm(4)=   0.000000  celldm(5)=   0.000000  celldm(6)=   0.000000

     crystal axes: (cart. coord. in units of alat)
               a(1) = (  -0.500000   0.000000   0.500000 )  
               a(2) = (   0.000000   0.500000   0.500000 )  
               a(3) = (  -0.500000   0.500000   0.000000 )  

     reciprocal axes: (cart. coord. in units 2 pi/alat)
               b(1) = ( -1.000000 -1.000000  1.000000 )  
               b(2) = (  1.000000  1.000000  1.000000 )  
               b(3) = ( -1.000000  1.000000 -1.000000 )  


     PseudoPot. # 1 for Al read from file:
     ~/Documents/TA/PWDFT.jl/pseudopotentials/scan_upf/Al.SCAN.UPF2
     MD5 check sum: Not computed, couldn't open file
     Pseudo is Norm-conserving, Zval =  3.0
     Generated by new atomic code, or converted to UPF format
     Using radial grid of 1467 points,  2 beta functions with: 
                l(1) =   0
                l(2) =   1

     atomic species   valence    mass     pseudopotential
        Al             3.00    26.98154     Al( 1.00)

     48 Sym. Ops., with inversion, found



   Cartesian axes

     site n.     atom                  positions (alat units)
         1           Al  tau(   1) = (   0.0000000   0.0000000   0.0000000  )

     number of k points=    47  Gaussian smearing, width (Ry)=  0.1000
                       cart. coord. in units 2pi/alat
        k(    1) = (   0.0000000   0.0000000   0.0000000), wk =   0.0020000
        k(    2) = (  -0.1000000   0.1000000  -0.1000000), wk =   0.0160000
        k(    3) = (  -0.2000000   0.2000000  -0.2000000), wk =   0.0160000
        k(    4) = (  -0.3000000   0.3000000  -0.3000000), wk =   0.0160000
        k(    5) = (  -0.4000000   0.4000000  -0.4000000), wk =   0.0160000
        k(    6) = (   0.5000000  -0.5000000   0.5000000), wk =   0.0080000
        k(    7) = (   0.0000000   0.2000000   0.0000000), wk =   0.0120000
        k(    8) = (  -0.1000000   0.3000000  -0.1000000), wk =   0.0480000
        k(    9) = (  -0.2000000   0.4000000  -0.2000000), wk =   0.0480000
        k(   10) = (  -0.3000000   0.5000000  -0.3000000), wk =   0.0480000
        k(   11) = (   0.6000000  -0.4000000   0.6000000), wk =   0.0480000
        k(   12) = (   0.5000000  -0.3000000   0.5000000), wk =   0.0480000
        k(   13) = (   0.4000000  -0.2000000   0.4000000), wk =   0.0480000
        k(   14) = (   0.3000000  -0.1000000   0.3000000), wk =   0.0480000
        k(   15) = (   0.2000000   0.0000000   0.2000000), wk =   0.0240000
        k(   16) = (   0.0000000   0.4000000   0.0000000), wk =   0.0120000
        k(   17) = (  -0.1000000   0.5000000  -0.1000000), wk =   0.0480000
        k(   18) = (  -0.2000000   0.6000000  -0.2000000), wk =   0.0480000
        k(   19) = (   0.7000000  -0.3000000   0.7000000), wk =   0.0480000
        k(   20) = (   0.6000000  -0.2000000   0.6000000), wk =   0.0480000
        k(   21) = (   0.5000000  -0.1000000   0.5000000), wk =   0.0480000
        k(   22) = (   0.4000000   0.0000000   0.4000000), wk =   0.0240000
        k(   23) = (   0.0000000   0.6000000   0.0000000), wk =   0.0120000
        k(   24) = (  -0.1000000   0.7000000  -0.1000000), wk =   0.0480000
        k(   25) = (   0.8000000  -0.2000000   0.8000000), wk =   0.0480000
        k(   26) = (   0.7000000  -0.1000000   0.7000000), wk =   0.0480000
        k(   27) = (   0.6000000  -0.0000000   0.6000000), wk =   0.0240000
        k(   28) = (   0.0000000   0.8000000   0.0000000), wk =   0.0120000
        k(   29) = (   0.9000000  -0.1000000   0.9000000), wk =   0.0480000
        k(   30) = (   0.8000000   0.0000000   0.8000000), wk =   0.0240000
        k(   31) = (   0.0000000  -1.0000000   0.0000000), wk =   0.0060000
        k(   32) = (  -0.2000000   0.4000000   0.0000000), wk =   0.0480000
        k(   33) = (  -0.3000000   0.5000000  -0.1000000), wk =   0.0960000
        k(   34) = (   0.6000000  -0.4000000   0.8000000), wk =   0.0960000
        k(   35) = (   0.5000000  -0.3000000   0.7000000), wk =   0.0480000
        k(   36) = (  -0.2000000   0.6000000   0.0000000), wk =   0.0480000
        k(   37) = (   0.7000000  -0.3000000   0.9000000), wk =   0.0960000
        k(   38) = (   0.6000000  -0.2000000   0.8000000), wk =   0.0960000
        k(   39) = (   0.5000000  -0.1000000   0.7000000), wk =   0.0960000
        k(   40) = (   0.4000000   0.0000000   0.6000000), wk =   0.0480000
        k(   41) = (   0.8000000  -0.2000000   1.0000000), wk =   0.0480000
        k(   42) = (   0.7000000  -0.1000000   0.9000000), wk =   0.0960000
        k(   43) = (   0.6000000   0.0000000   0.8000000), wk =   0.0480000
        k(   44) = (  -0.2000000  -1.0000000   0.0000000), wk =   0.0240000
        k(   45) = (   0.6000000  -0.2000000   1.0000000), wk =   0.0480000
        k(   46) = (   0.5000000  -0.1000000   0.9000000), wk =   0.0480000
        k(   47) = (  -0.4000000  -1.0000000   0.0000000), wk =   0.0240000

     Dense  grid:    51253 G-vectors     FFT dimensions: (  54,  54,  54)

     Estimated max dynamical RAM per process >     104.71 MB

     WARNING: libxc functional with ID  263 depends
      on external parameters: check the user_guide of
      QE if you need to modify them or to check their
      default values.

     Initial potential from superposition of free atoms

     starting charge       2.9979, renormalised to       3.0000
     Starting wfcs are    9 randomized atomic wfcs

     total cpu time spent up to now is       25.5 secs

     Self-consistent Calculation

     iteration #  1     ecut=    60.00 Ry     beta= 0.01
     Davidson diagonalization with overlap
     ethr =  1.00E-02,  avg # of iterations =  2.2

     Threshold (ethr) on eigenvalues was too large:
     Diagonalizing with lowered threshold

     Davidson diagonalization with overlap
     ethr =  7.78E-05,  avg # of iterations =  3.9

     total cpu time spent up to now is      146.5 secs

     total energy              =      -3.95566139 Ry
     estimated scf accuracy    <       0.00268222 Ry

     iteration #  2     ecut=    60.00 Ry     beta= 0.01
     Davidson diagonalization with overlap
     ethr =  8.94E-05,  avg # of iterations =  1.0

     total cpu time spent up to now is      193.0 secs

     total energy              =      -3.96792845 Ry
     estimated scf accuracy    <       0.00264615 Ry

     iteration #  3     ecut=    60.00 Ry     beta= 0.01
     Davidson diagonalization with overlap
     ethr =  8.82E-05,  avg # of iterations =  2.1

     total cpu time spent up to now is      260.4 secs

     total energy              =      -3.96957955 Ry
     estimated scf accuracy    <       0.00012324 Ry

     iteration #  4     ecut=    60.00 Ry     beta= 0.01
     Davidson diagonalization with overlap
     ethr =  4.11E-06,  avg # of iterations =  4.3

     total cpu time spent up to now is      320.7 secs

     total energy              =      -3.96948176 Ry
     estimated scf accuracy    <       0.00004344 Ry

     iteration #  5     ecut=    60.00 Ry     beta= 0.01
     Davidson diagonalization with overlap
     ethr =  1.45E-06,  avg # of iterations =  2.9

     total cpu time spent up to now is      363.9 secs

     total energy              =      -3.96961810 Ry
     estimated scf accuracy    <       0.00004732 Ry

     iteration #  6     ecut=    60.00 Ry     beta= 0.01
     Davidson diagonalization with overlap
     ethr =  1.45E-06,  avg # of iterations =  1.0

     total cpu time spent up to now is      390.2 secs

     total energy              =      -3.96962710 Ry
     estimated scf accuracy    <       0.00004165 Ry

     iteration #  7     ecut=    60.00 Ry     beta= 0.01
     Davidson diagonalization with overlap
     ethr =  1.39E-06,  avg # of iterations =  2.9

     total cpu time spent up to now is      428.4 secs

     total energy              =      -3.96972194 Ry
     estimated scf accuracy    <       0.00000142 Ry

     iteration #  8     ecut=    60.00 Ry     beta= 0.01
     Davidson diagonalization with overlap
     ethr =  4.74E-08,  avg # of iterations =  2.0

     total cpu time spent up to now is      454.0 secs

     total energy              =      -3.96971849 Ry
     estimated scf accuracy    <       0.00000195 Ry

     iteration #  9     ecut=    60.00 Ry     beta= 0.01
     Davidson diagonalization with overlap
     ethr =  4.74E-08,  avg # of iterations =  2.0

     total cpu time spent up to now is      481.3 secs

     total energy              =      -3.96971315 Ry
     estimated scf accuracy    <       0.00000251 Ry

     iteration # 10     ecut=    60.00 Ry     beta= 0.01
     Davidson diagonalization with overlap
     ethr =  4.74E-08,  avg # of iterations =  2.0

     total cpu time spent up to now is      515.4 secs

     End of self-consistent calculation

          k = 0.0000 0.0000 0.0000 (  6375 PWs)   bands (ev):

    -6.4706   0.1149   0.1149   0.1149   1.9391   4.5846

          k =-0.1000 0.1000-0.1000 (  6375 PWs)   bands (ev):

    -6.4381  -0.1847   0.0915   0.0915   2.2197   4.3488

          k =-0.2000 0.2000-0.2000 (  6357 PWs)   bands (ev):

    -6.3486  -0.7578   0.0336   0.0336   2.6428   4.1732

          k =-0.3000 0.3000-0.3000 (  6402 PWs)   bands (ev):

    -6.2278  -1.3033  -0.0325  -0.0325   2.7488   4.5661

          k =-0.4000 0.4000-0.4000 (  6402 PWs)   bands (ev):

    -6.1196  -1.6878  -0.0821  -0.0821   2.6775   4.3718

          k = 0.5000-0.5000 0.5000 (  6394 PWs)   bands (ev):

    -6.0753  -1.8273  -0.1002  -0.1002   2.6387   4.2986

          k = 0.0000 0.2000 0.0000 (  6359 PWs)   bands (ev):

    -6.4273  -0.1855   0.0354   0.0354   2.3173   4.1827

          k =-0.1000 0.3000-0.1000 (  6388 PWs)   bands (ev):

    -6.3568  -0.6146  -0.0462  -0.0147   2.7103   3.9410

          k =-0.2000 0.4000-0.2000 (  6375 PWs)   bands (ev):

    -6.2458  -1.1341  -0.1190  -0.0963   2.9363   4.0610

          k =-0.3000 0.5000-0.3000 (  6387 PWs)   bands (ev):

    -6.1317  -1.5520  -0.1959  -0.1582   2.9047   3.9748

          k = 0.6000-0.4000 0.6000 (  6386 PWs)   bands (ev):

    -6.0642  -1.7652  -0.2757  -0.1527   2.8672   3.8628

          k = 0.5000-0.3000 0.5000 (  6396 PWs)   bands (ev):

    -6.0790  -1.7196  -0.3099  -0.1052   2.8959   3.9204

          k = 0.4000-0.2000 0.4000 (  6410 PWs)   bands (ev):

    -6.1678  -1.4287  -0.2851  -0.0302   2.9705   4.1379

          k = 0.3000-0.1000 0.3000 (  6395 PWs)   bands (ev):

    -6.2860  -0.9715  -0.1990   0.0471   2.9320   4.0702

          k = 0.2000 0.0000 0.2000 (  6383 PWs)   bands (ev):

    -6.3865  -0.4877  -0.0552   0.0957   2.5588   4.1145

          k = 0.0000 0.4000 0.0000 (  6390 PWs)   bands (ev):

    -6.3082  -0.7163  -0.1534  -0.1534   2.8925   3.5937

          k =-0.1000 0.5000-0.1000 (  6388 PWs)   bands (ev):

    -6.2163  -1.0541  -0.2698  -0.2448   2.9897   3.4746

          k =-0.2000 0.6000-0.2000 (  6390 PWs)   bands (ev):

    -6.1107  -1.3945  -0.4428  -0.2909   2.9571   3.6601

          k = 0.7000-0.3000 0.7000 (  6403 PWs)   bands (ev):

    -6.0339  -1.6066  -0.6177  -0.2793   2.9723   3.7234

          k = 0.6000-0.2000 0.6000 (  6403 PWs)   bands (ev):

    -6.0235  -1.6250  -0.7250  -0.2138   3.1197   3.7017

          k = 0.5000-0.1000 0.5000 (  6404 PWs)   bands (ev):

    -6.0848  -1.4591  -0.7111  -0.1132   3.3843   3.7410

          k = 0.4000 0.0000 0.4000 (  6373 PWs)   bands (ev):

    -6.1868  -1.2084  -0.5241  -0.0119   3.4118   4.0001

          k = 0.0000 0.6000 0.0000 (  6398 PWs)   bands (ev):

    -6.1477  -1.1896  -0.3574  -0.3574   2.7056   3.1328

          k =-0.1000 0.7000-0.1000 (  6385 PWs)   bands (ev):

    -6.0626  -1.3883  -0.5223  -0.4209   2.5680   3.1206

          k = 0.8000-0.2000 0.8000 (  6401 PWs)   bands (ev):

    -5.9940  -1.4906  -0.8081  -0.4188   2.5913   3.4627

          k = 0.7000-0.1000 0.7000 (  6400 PWs)   bands (ev):

    -5.9729  -1.4416  -1.0797  -0.3518   2.7489   3.9154

          k = 0.6000-0.0000 0.6000 (  6399 PWs)   bands (ev):

    -6.0090  -1.3986  -1.0774  -0.2378   3.0516   4.1137

          k = 0.0000 0.8000 0.0000 (  6402 PWs)   bands (ev):

    -6.0045  -1.5125  -0.5048  -0.5048   2.2469   2.8490

          k = 0.9000-0.1000 0.9000 (  6405 PWs)   bands (ev):

    -5.9596  -1.5685  -0.6751  -0.5208   2.2373   2.9405

          k = 0.8000 0.0000 0.8000 (  6421 PWs)   bands (ev):

    -5.9476  -1.4833  -0.9859  -0.4653   2.4344   3.3963

          k = 0.0000-1.0000 0.0000 (  6434 PWs)   bands (ev):

    -5.9459  -1.6285  -0.5577  -0.5577   2.0671   2.7535

          k =-0.2000 0.4000 0.0000 (  6390 PWs)   bands (ev):

    -6.2752  -0.9160  -0.2672  -0.0422   3.0551   3.7571

          k =-0.3000 0.5000-0.1000 (  6384 PWs)   bands (ev):

    -6.1662  -1.2819  -0.4472  -0.1161   3.2342   3.8490

          k = 0.6000-0.4000 0.8000 (  6409 PWs)   bands (ev):

    -6.0698  -1.5753  -0.5412  -0.1993   3.2179   3.6115

          k = 0.5000-0.3000 0.7000 (  6400 PWs)   bands (ev):

    -6.0308  -1.6866  -0.5686  -0.2351   3.2171   3.4969

          k =-0.2000 0.6000 0.0000 (  6388 PWs)   bands (ev):

    -6.1269  -1.2663  -0.4923  -0.3017   2.9499   3.3847

          k = 0.7000-0.3000 0.9000 (  6401 PWs)   bands (ev):

    -6.0389  -1.4429  -0.7088  -0.3866   2.9523   3.6093

          k = 0.6000-0.2000 0.8000 (  6402 PWs)   bands (ev):

    -5.9898  -1.5160  -0.8872  -0.4016   3.0245   3.7718

          k = 0.5000-0.1000 0.7000 (  6409 PWs)   bands (ev):

    -6.0037  -1.4729  -0.9456  -0.3310   3.2118   3.7747

          k = 0.4000 0.0000 0.6000 (  6409 PWs)   bands (ev):

    -6.0733  -1.3857  -0.7865  -0.2139   3.4706   3.7702

          k = 0.8000-0.2000 1.0000 (  6389 PWs)   bands (ev):

    -5.9966  -1.4835  -0.6528  -0.5363   2.5108   3.1388

          k = 0.7000-0.1000 0.9000 (  6417 PWs)   bands (ev):

    -5.9562  -1.4564  -0.9345  -0.5614   2.6522   3.4992

          k = 0.6000 0.0000 0.8000 (  6421 PWs)   bands (ev):

    -5.9592  -1.2760  -1.2431  -0.4744   2.8827   3.9597

          k =-0.2000-1.0000 0.0000 (  6406 PWs)   bands (ev):

    -5.9440  -1.5555  -0.7101  -0.6313   2.3420   3.0543

          k = 0.6000-0.2000 1.0000 (  6423 PWs)   bands (ev):

    -5.9780  -1.3995  -0.9691  -0.5440   3.0629   3.8593

          k = 0.5000-0.1000 0.9000 (  6422 PWs)   bands (ev):

    -5.9540  -1.3235  -1.1181  -0.6203   3.0941   4.0376

          k =-0.4000-1.0000 0.0000 (  6424 PWs)   bands (ev):

    -5.9408  -1.3455  -1.0336  -0.7364   2.9235   3.8080

     the Fermi energy is    -1.8196 ev

!    total energy              =      -3.96971714 Ry
     estimated scf accuracy    <       0.00000002 Ry
     smearing contrib. (-TS)   =      -0.09136767 Ry
     internal energy E=F+TS    =      -3.87834947 Ry

     The total energy is F=E-TS. E is the sum of the following terms:
     one-electron contribution =      -0.43629178 Ry
     hartree contribution      =       0.50681980 Ry
     xc contribution           =      -1.16653285 Ry
     ewald contribution        =      -2.78234464 Ry

     convergence has been achieved in  10 iterations
     Writing meta-gga kinetic term

     Writing all to output data dir ./input_pw/Al/8/pwscf.save/
     Writing meta-gga kinetic term
 
     init_run     :     13.94s CPU     25.46s WALL (       1 calls)
     electrons    :    350.27s CPU    489.89s WALL (       1 calls)

     Called by init_run:
     wfcinit      :     13.65s CPU     24.75s WALL (       1 calls)
     potinit      :      0.14s CPU      0.42s WALL (       1 calls)
     hinit0       :      0.08s CPU      0.18s WALL (       1 calls)

     Called by electrons:
     c_bands      :    285.85s CPU    401.77s WALL (      11 calls)
     sum_band     :     60.87s CPU     83.24s WALL (      11 calls)
     v_of_rho     :      1.50s CPU      2.24s WALL (      11 calls)
     mix_rho      :      2.09s CPU      2.92s WALL (      11 calls)

     Called by c_bands:
     init_us_2    :      0.92s CPU      1.40s WALL (    1081 calls)
     init_us_2:cp :      0.91s CPU      1.37s WALL (    1081 calls)
     cegterg      :    284.77s CPU    400.16s WALL (     517 calls)

     Called by *egterg:
     cdiaghg      :      0.24s CPU      0.31s WALL (    1707 calls)
     h_psi        :    294.24s CPU    418.74s WALL (    1801 calls)
     g_psi        :      0.17s CPU      0.23s WALL (    1237 calls)

     Called by h_psi:
     h_psi:calbec :      0.82s CPU      1.12s WALL (    1801 calls)
     vloc_psi     :     72.31s CPU    102.90s WALL (    1801 calls)
     add_vuspsi   :      0.45s CPU      0.71s WALL (    1801 calls)
     h_psi_meta   :    220.34s CPU    313.60s WALL (    1801 calls)

     General routines
     calbec       :      0.81s CPU      1.11s WALL (    1801 calls)
     fft          :      0.38s CPU      0.57s WALL (     131 calls)
     ffts         :      0.64s CPU      0.90s WALL (     211 calls)
     fftw         :    264.62s CPU    376.31s WALL (   83832 calls)
     interpolate  :      0.01s CPU      0.01s WALL (      11 calls)
 
     Parallel routines
 
     PWSCF        :   6m 4.29s CPU   8m35.52s WALL

 
   This run was terminated on:  13:20:11  21Mar2023            

=------------------------------------------------------------------------------=
   JOB DONE.
=------------------------------------------------------------------------------=
