
     Program PWSCF v.7.0 starts on 21Mar2023 at 11:18: 4 

     This program is part of the open-source Quantum ESPRESSO suite
     for quantum simulation of materials; please cite
         "P. Giannozzi et al., J. Phys.:Condens. Matter 21 395502 (2009);
         "P. Giannozzi et al., J. Phys.:Condens. Matter 29 465901 (2017);
         "P. Giannozzi et al., J. Chem. Phys. 152 154105 (2020);
          URL http://www.quantum-espresso.org", 
     in publications or presentations arising from this work. More details at
     http://www.quantum-espresso.org/quote

     Parallel version (MPI), running on     1 processors

     MPI processes distributed on     1 nodes
     24300 MiB available memory on the printing compute node when the environment starts
 
     Waiting for input...
     Reading input from standard input
Warning: card &CELL ignored
Warning: card / ignored

     Current dimensions of program PWSCF are:
     Max number of different atomic species (ntypx) = 10
     Max number of k-points (npk) =  40000
     Max angular momentum in pseudopotentials (lmaxx) =  4
     file Al.SCAN.UPF2: wavefunction(s)  0D renormalized

     WARNING: the MGGA functional with ID    5 has been 
     read together with other dft terms, but it should 
     stand alone in order to work properly. The other 
     terms will be ignored.

     Subspace diagonalization in iterative solution of the eigenvalue problem:
     a serial algorithm will be used

 
     G-vector sticks info
     --------------------
     sticks:   dense  smooth     PW     G-vecs:    dense   smooth      PW
     Sum         511     511    163                 7727     7727    1411
 
     Using Slab Decomposition
 


     bravais-lattice index     =            2
     lattice parameter (alat)  =       7.8721  a.u.
     unit-cell volume          =     121.9562 (a.u.)^3
     number of atoms/cell      =            1
     number of atomic types    =            1
     number of electrons       =         3.00
     number of Kohn-Sham states=            6
     kinetic-energy cutoff     =      60.0000  Ry
     charge density cutoff     =     240.0000  Ry
     scf convergence threshold =      1.0E-06
     mixing beta               =       0.0100
     number of iterations used =            8  local-TF  mixing
     Exchange-correlation= SLA  PW   SCAN SCAN
                           (   0   0   0   0   0 263 267)

     celldm(1)=   7.872051  celldm(2)=   0.000000  celldm(3)=   0.000000
     celldm(4)=   0.000000  celldm(5)=   0.000000  celldm(6)=   0.000000

     crystal axes: (cart. coord. in units of alat)
               a(1) = (  -0.500000   0.000000   0.500000 )  
               a(2) = (   0.000000   0.500000   0.500000 )  
               a(3) = (  -0.500000   0.500000   0.000000 )  

     reciprocal axes: (cart. coord. in units 2 pi/alat)
               b(1) = ( -1.000000 -1.000000  1.000000 )  
               b(2) = (  1.000000  1.000000  1.000000 )  
               b(3) = ( -1.000000  1.000000 -1.000000 )  


     PseudoPot. # 1 for Al read from file:
     ~/Documents/TA/PWDFT.jl/pseudopotentials/scan_upf/Al.SCAN.UPF2
     MD5 check sum: Not computed, couldn't open file
     Pseudo is Norm-conserving, Zval =  3.0
     Generated by new atomic code, or converted to UPF format
     Using radial grid of 1467 points,  2 beta functions with: 
                l(1) =   0
                l(2) =   1

     atomic species   valence    mass     pseudopotential
        Al             3.00    26.98154     Al( 1.00)

     48 Sym. Ops., with inversion, found



   Cartesian axes

     site n.     atom                  positions (alat units)
         1           Al  tau(   1) = (   0.0000000   0.0000000   0.0000000  )

     number of k points=    47  Gaussian smearing, width (Ry)=  0.1000
                       cart. coord. in units 2pi/alat
        k(    1) = (   0.0000000   0.0000000   0.0000000), wk =   0.0020000
        k(    2) = (  -0.1000000   0.1000000  -0.1000000), wk =   0.0160000
        k(    3) = (  -0.2000000   0.2000000  -0.2000000), wk =   0.0160000
        k(    4) = (  -0.3000000   0.3000000  -0.3000000), wk =   0.0160000
        k(    5) = (  -0.4000000   0.4000000  -0.4000000), wk =   0.0160000
        k(    6) = (   0.5000000  -0.5000000   0.5000000), wk =   0.0080000
        k(    7) = (   0.0000000   0.2000000   0.0000000), wk =   0.0120000
        k(    8) = (  -0.1000000   0.3000000  -0.1000000), wk =   0.0480000
        k(    9) = (  -0.2000000   0.4000000  -0.2000000), wk =   0.0480000
        k(   10) = (  -0.3000000   0.5000000  -0.3000000), wk =   0.0480000
        k(   11) = (   0.6000000  -0.4000000   0.6000000), wk =   0.0480000
        k(   12) = (   0.5000000  -0.3000000   0.5000000), wk =   0.0480000
        k(   13) = (   0.4000000  -0.2000000   0.4000000), wk =   0.0480000
        k(   14) = (   0.3000000  -0.1000000   0.3000000), wk =   0.0480000
        k(   15) = (   0.2000000   0.0000000   0.2000000), wk =   0.0240000
        k(   16) = (   0.0000000   0.4000000   0.0000000), wk =   0.0120000
        k(   17) = (  -0.1000000   0.5000000  -0.1000000), wk =   0.0480000
        k(   18) = (  -0.2000000   0.6000000  -0.2000000), wk =   0.0480000
        k(   19) = (   0.7000000  -0.3000000   0.7000000), wk =   0.0480000
        k(   20) = (   0.6000000  -0.2000000   0.6000000), wk =   0.0480000
        k(   21) = (   0.5000000  -0.1000000   0.5000000), wk =   0.0480000
        k(   22) = (   0.4000000   0.0000000   0.4000000), wk =   0.0240000
        k(   23) = (   0.0000000   0.6000000   0.0000000), wk =   0.0120000
        k(   24) = (  -0.1000000   0.7000000  -0.1000000), wk =   0.0480000
        k(   25) = (   0.8000000  -0.2000000   0.8000000), wk =   0.0480000
        k(   26) = (   0.7000000  -0.1000000   0.7000000), wk =   0.0480000
        k(   27) = (   0.6000000  -0.0000000   0.6000000), wk =   0.0240000
        k(   28) = (   0.0000000   0.8000000   0.0000000), wk =   0.0120000
        k(   29) = (   0.9000000  -0.1000000   0.9000000), wk =   0.0480000
        k(   30) = (   0.8000000   0.0000000   0.8000000), wk =   0.0240000
        k(   31) = (   0.0000000  -1.0000000   0.0000000), wk =   0.0060000
        k(   32) = (  -0.2000000   0.4000000   0.0000000), wk =   0.0480000
        k(   33) = (  -0.3000000   0.5000000  -0.1000000), wk =   0.0960000
        k(   34) = (   0.6000000  -0.4000000   0.8000000), wk =   0.0960000
        k(   35) = (   0.5000000  -0.3000000   0.7000000), wk =   0.0480000
        k(   36) = (  -0.2000000   0.6000000   0.0000000), wk =   0.0480000
        k(   37) = (   0.7000000  -0.3000000   0.9000000), wk =   0.0960000
        k(   38) = (   0.6000000  -0.2000000   0.8000000), wk =   0.0960000
        k(   39) = (   0.5000000  -0.1000000   0.7000000), wk =   0.0960000
        k(   40) = (   0.4000000   0.0000000   0.6000000), wk =   0.0480000
        k(   41) = (   0.8000000  -0.2000000   1.0000000), wk =   0.0480000
        k(   42) = (   0.7000000  -0.1000000   0.9000000), wk =   0.0960000
        k(   43) = (   0.6000000   0.0000000   0.8000000), wk =   0.0480000
        k(   44) = (  -0.2000000  -1.0000000   0.0000000), wk =   0.0240000
        k(   45) = (   0.6000000  -0.2000000   1.0000000), wk =   0.0480000
        k(   46) = (   0.5000000  -0.1000000   0.9000000), wk =   0.0480000
        k(   47) = (  -0.4000000  -1.0000000   0.0000000), wk =   0.0240000

     Dense  grid:     7727 G-vectors     FFT dimensions: (  27,  27,  27)

     Estimated max dynamical RAM per process >      15.38 MB

     WARNING: libxc functional with ID  263 depends
      on external parameters: check the user_guide of
      QE if you need to modify them or to check their
      default values.

     Initial potential from superposition of free atoms

     starting charge       2.9979, renormalised to       3.0000
     Starting wfcs are    9 randomized atomic wfcs

     total cpu time spent up to now is        3.2 secs

     Self-consistent Calculation

     iteration #  1     ecut=    60.00 Ry     beta= 0.01
     Davidson diagonalization with overlap
     ethr =  1.00E-02,  avg # of iterations =  3.6

     Threshold (ethr) on eigenvalues was too large:
     Diagonalizing with lowered threshold

     Davidson diagonalization with overlap
     ethr =  2.17E-04,  avg # of iterations =  2.3

     total cpu time spent up to now is       15.3 secs

     total energy              =      -4.15203611 Ry
     estimated scf accuracy    <       0.00635123 Ry

     iteration #  2     ecut=    60.00 Ry     beta= 0.01
     Davidson diagonalization with overlap
     ethr =  2.12E-04,  avg # of iterations =  1.1

     total cpu time spent up to now is       19.0 secs

     total energy              =      -4.15033047 Ry
     estimated scf accuracy    <       0.00628445 Ry

     iteration #  3     ecut=    60.00 Ry     beta= 0.01
     Davidson diagonalization with overlap
     ethr =  2.09E-04,  avg # of iterations =  1.9

     total cpu time spent up to now is       23.4 secs

     total energy              =      -4.15094723 Ry
     estimated scf accuracy    <       0.00013563 Ry

     iteration #  4     ecut=    60.00 Ry     beta= 0.01
     Davidson diagonalization with overlap
     ethr =  4.52E-06,  avg # of iterations =  3.1

     total cpu time spent up to now is       28.4 secs

     total energy              =      -4.15096605 Ry
     estimated scf accuracy    <       0.00008951 Ry

     iteration #  5     ecut=    60.00 Ry     beta= 0.01
     Davidson diagonalization with overlap
     ethr =  2.98E-06,  avg # of iterations =  1.2

     total cpu time spent up to now is       32.2 secs

     total energy              =      -4.15092593 Ry
     estimated scf accuracy    <       0.00008949 Ry

     iteration #  6     ecut=    60.00 Ry     beta= 0.01
     Davidson diagonalization with overlap
     ethr =  2.98E-06,  avg # of iterations =  1.0

     total cpu time spent up to now is       35.4 secs

     total energy              =      -4.15126627 Ry
     estimated scf accuracy    <       0.00009462 Ry

     iteration #  7     ecut=    60.00 Ry     beta= 0.01
     Davidson diagonalization with overlap
     ethr =  2.98E-06,  avg # of iterations =  2.7

     total cpu time spent up to now is       39.8 secs

     total energy              =      -4.15148491 Ry
     estimated scf accuracy    <       0.00000382 Ry

     iteration #  8     ecut=    60.00 Ry     beta= 0.01
     Davidson diagonalization with overlap
     ethr =  1.27E-07,  avg # of iterations =  1.0

     total cpu time spent up to now is       41.9 secs

     total energy              =      -4.15148461 Ry
     estimated scf accuracy    <       0.00000432 Ry

     iteration #  9     ecut=    60.00 Ry     beta= 0.01
     Davidson diagonalization with overlap
     ethr =  1.27E-07,  avg # of iterations =  1.0

     total cpu time spent up to now is       43.5 secs

     total energy              =      -4.15145986 Ry
     estimated scf accuracy    <       0.00000369 Ry

     iteration # 10     ecut=    60.00 Ry     beta= 0.01
     Davidson diagonalization with overlap
     ethr =  1.23E-07,  avg # of iterations =  2.2

     total cpu time spent up to now is       45.3 secs

     End of self-consistent calculation

          k = 0.0000 0.0000 0.0000 (   941 PWs)   bands (ev):

    -3.8481  19.3279  19.3279  19.3279  20.4044  20.4044

          k =-0.1000 0.1000-0.1000 (   944 PWs)   bands (ev):

    -3.5819  16.1042  18.5254  18.5255  21.3022  21.5550

          k =-0.2000 0.2000-0.2000 (   947 PWs)   bands (ev):

    -2.7865  12.2392  17.7608  17.7608  21.0858  22.0678

          k =-0.3000 0.3000-0.3000 (   947 PWs)   bands (ev):

    -1.4704   8.6468  17.4063  17.4063  20.5172  20.5172

          k =-0.4000 0.4000-0.4000 (   951 PWs)   bands (ev):

     0.3520   5.4400  17.4696  17.4696  19.1578  19.1578

          k = 0.5000-0.5000 0.5000 (   960 PWs)   bands (ev):

     2.5799   2.7483  17.7400  17.7400  18.4469  18.4469

          k = 0.0000 0.2000 0.0000 (   937 PWs)   bands (ev):

    -3.4933  17.1520  17.1520  17.6907  19.5913  22.6806

          k =-0.1000 0.3000-0.1000 (   950 PWs)   bands (ev):

    -2.8746  13.6721  16.1973  17.6679  19.6953  20.9232

          k =-0.2000 0.4000-0.2000 (   948 PWs)   bands (ev):

    -1.7326  10.0074  15.6862  17.2841  18.0265  22.6489

          k =-0.3000 0.5000-0.3000 (   956 PWs)   bands (ev):

    -0.0799   6.6791  15.6230  16.3486  17.3425  21.7267

          k = 0.6000-0.4000 0.6000 (   956 PWs)   bands (ev):

     2.0632   3.7671  15.1975  16.0063  17.7523  20.6318

          k = 0.5000-0.3000 0.5000 (   950 PWs)   bands (ev):

     1.2967   4.6869  14.4910  16.8263  18.6347  19.9708

          k = 0.4000-0.2000 0.4000 (   958 PWs)   bands (ev):

    -0.6865   7.7408  14.2518  18.0383  19.7898  19.9602

          k = 0.3000-0.1000 0.3000 (   941 PWs)   bands (ev):

    -2.1708  11.1767  14.4948  19.3611  20.2573  21.6661

          k = 0.2000 0.0000 0.2000 (   937 PWs)   bands (ev):

    -3.1395  14.6097  15.4935  20.0115  20.5549  22.1351

          k = 0.0000 0.4000 0.0000 (   966 PWs)   bands (ev):

    -2.4342  15.0735  15.0735  15.4855  17.3607  18.3467

          k =-0.1000 0.5000-0.1000 (   962 PWs)   bands (ev):

    -1.4704  11.7714  14.4018  15.2103  15.9184  18.9969

          k =-0.2000 0.6000-0.2000 (   956 PWs)   bands (ev):

     0.0061   8.3805  13.3976  14.1834  15.9060  21.4657

          k = 0.7000-0.3000 0.7000 (   956 PWs)   bands (ev):

     1.9769   5.3508  12.0406  14.4175  16.2157  23.5593

          k = 0.6000-0.2000 0.6000 (   963 PWs)   bands (ev):

     2.7412   4.4278  11.1649  15.1022  16.9791  22.7604

          k = 0.5000-0.1000 0.5000 (   962 PWs)   bands (ev):

     0.6101   7.2819  10.8066  16.2307  18.1984  22.3781

          k = 0.4000 0.0000 0.4000 (   953 PWs)   bands (ev):

    -1.0343  10.1107  11.3728  17.7782  19.8284  22.0470

          k = 0.0000 0.6000 0.0000 (   966 PWs)   bands (ev):

    -0.6869  12.7698  13.5721  13.5721  13.8047  16.8274

          k =-0.1000 0.7000-0.1000 (   968 PWs)   bands (ev):

     0.6078  10.4601  10.7841  13.1980  14.6352  17.8408

          k = 0.8000-0.2000 0.8000 (   957 PWs)   bands (ev):

     2.3945   7.3896   9.2303  13.2786  14.9535  20.6437

          k = 0.7000-0.1000 0.7000 (   960 PWs)   bands (ev):

     4.5522   4.7542   8.2090  13.8132  15.5961  23.9210

          k = 0.6000-0.0000 0.6000 (   961 PWs)   bands (ev):

     2.4039   6.8562   8.1498  14.7998  16.6861  25.3681

          k = 0.0000 0.8000 0.0000 (   962 PWs)   bands (ev):

     1.7145   8.5591  12.6688  12.6688  12.7781  15.9174

          k = 0.9000-0.1000 0.9000 (   963 PWs)   bands (ev):

     3.2900   6.8616   9.8457  12.5952  13.9782  17.2440

          k = 0.8000 0.0000 0.8000 (   959 PWs)   bands (ev):

     4.8997   6.0807   7.1025  12.9768  14.6273  20.3609

          k = 0.0000-1.0000 0.0000 (   982 PWs)   bands (ev):

     4.2475   5.4189  12.3675  12.3675  12.4339  15.6045

          k =-0.2000 0.4000 0.0000 (   956 PWs)   bands (ev):

    -2.0830  12.3769  13.4552  17.6681  18.7487  20.3138

          k =-0.3000 0.5000-0.1000 (   956 PWs)   bands (ev):

    -0.7734   9.2404  12.6704  15.7837  18.9926  21.8008

          k = 0.6000-0.4000 0.8000 (   962 PWs)   bands (ev):

     1.0392   6.0910  12.7207  14.3041  19.1320  20.8097

          k = 0.5000-0.3000 0.7000 (   960 PWs)   bands (ev):

     3.2426   3.4332  13.2061  13.3443  19.4495  20.0744

          k =-0.2000 0.6000 0.0000 (   963 PWs)   bands (ev):

    -0.3400  10.7642  11.9043  13.0954  17.2348  18.9573

          k = 0.7000-0.3000 0.9000 (   955 PWs)   bands (ev):

     1.2942   7.9327  11.2807  11.5392  17.8358  21.1370

          k = 0.6000-0.2000 0.8000 (   958 PWs)   bands (ev):

     3.4060   5.0948  10.1923  11.7906  18.3269  22.7442

          k = 0.5000-0.1000 0.7000 (   955 PWs)   bands (ev):

     2.6564   5.9627   9.5132  12.6557  19.1966  22.1255

          k = 0.4000 0.0000 0.6000 (   954 PWs)   bands (ev):

     0.6957   8.4857   9.7783  13.9966  20.4227  21.3370

          k = 0.8000-0.2000 1.0000 (   962 PWs)   bands (ev):

     2.0549   8.8785   9.7921  10.9894  16.2900  18.1046

          k = 0.7000-0.1000 0.9000 (   961 PWs)   bands (ev):

     3.9591   7.2200   7.5929  10.7868  17.2243  20.6116

          k = 0.6000 0.0000 0.8000 (   964 PWs)   bands (ev):

     4.7441   5.8782   7.1477  11.4693  18.0340  23.8798

          k =-0.2000-1.0000 0.0000 (   962 PWs)   bands (ev):

     4.5736   5.7606   9.4675  10.6677  15.9721  17.8121

          k = 0.6000-0.2000 1.0000 (   952 PWs)   bands (ev):

     3.0713   7.5093   8.7649   9.9187  20.4570  21.4427

          k = 0.5000-0.1000 0.9000 (   952 PWs)   bands (ev):

     5.2019   5.3849   8.6691   9.0684  21.2052  21.8394

          k =-0.4000-1.0000 0.0000 (   964 PWs)   bands (ev):

     5.5522   6.7522   7.1836   8.5261  20.1518  21.3683

     the Fermi energy is     7.0299 ev

!    total energy              =      -4.15147267 Ry
     estimated scf accuracy    <       0.00000086 Ry
     smearing contrib. (-TS)   =      -0.02837093 Ry
     internal energy E=F+TS    =      -4.12310174 Ry

     The total energy is F=E-TS. E is the sum of the following terms:
     one-electron contribution =       2.66320121 Ry
     hartree contribution      =       0.00594169 Ry
     xc contribution           =      -1.55043935 Ry
     ewald contribution        =      -5.24180529 Ry

     convergence has been achieved in  10 iterations
     Writing meta-gga kinetic term

     Writing all to output data dir ./input_pw/Al/8/pwscf.save/
     Writing meta-gga kinetic term
 
     init_run     :      0.96s CPU      3.10s WALL (       1 calls)
     electrons    :     18.92s CPU     42.04s WALL (       1 calls)

     Called by init_run:
     wfcinit      :      0.87s CPU      2.72s WALL (       1 calls)
     potinit      :      0.01s CPU      0.04s WALL (       1 calls)
     hinit0       :      0.07s CPU      0.31s WALL (       1 calls)

     Called by electrons:
     c_bands      :     15.34s CPU     34.12s WALL (      11 calls)
     sum_band     :      3.39s CPU      7.48s WALL (      11 calls)
     v_of_rho     :      0.14s CPU      0.30s WALL (      11 calls)
     mix_rho      :      0.07s CPU      0.18s WALL (      11 calls)

     Called by c_bands:
     init_us_2    :      0.12s CPU      0.21s WALL (    1081 calls)
     init_us_2:cp :      0.11s CPU      0.21s WALL (    1081 calls)
     cegterg      :     15.22s CPU     33.84s WALL (     517 calls)

     Called by *egterg:
     cdiaghg      :      0.10s CPU      0.23s WALL (    1464 calls)
     h_psi        :     15.70s CPU     35.55s WALL (    1558 calls)
     g_psi        :      0.01s CPU      0.01s WALL (     994 calls)

     Called by h_psi:
     h_psi:calbec :      0.04s CPU      0.10s WALL (    1558 calls)
     vloc_psi     :      3.87s CPU      9.17s WALL (    1558 calls)
     add_vuspsi   :      0.04s CPU      0.05s WALL (    1558 calls)
     h_psi_meta   :     11.73s CPU     26.17s WALL (    1558 calls)

     General routines
     calbec       :      0.03s CPU      0.08s WALL (    1558 calls)
     fft          :      0.03s CPU      0.06s WALL (     131 calls)
     ffts         :      0.03s CPU      0.10s WALL (     137 calls)
     fftw         :     17.01s CPU     38.59s WALL (   75840 calls)
     interpolate  :      0.00s CPU      0.00s WALL (      11 calls)
 
     Parallel routines
 
     PWSCF        :     19.92s CPU     45.29s WALL

 
   This run was terminated on:  11:18:49  21Mar2023            

=------------------------------------------------------------------------------=
   JOB DONE.
=------------------------------------------------------------------------------=
