
     Program PWSCF v.7.0 starts on 14Mar2023 at 14:28:42 

     This program is part of the open-source Quantum ESPRESSO suite
     for quantum simulation of materials; please cite
         "P. Giannozzi et al., J. Phys.:Condens. Matter 21 395502 (2009);
         "P. Giannozzi et al., J. Phys.:Condens. Matter 29 465901 (2017);
         "P. Giannozzi et al., J. Chem. Phys. 152 154105 (2020);
          URL http://www.quantum-espresso.org", 
     in publications or presentations arising from this work. More details at
     http://www.quantum-espresso.org/quote

     Parallel version (MPI), running on     1 processors

     MPI processes distributed on     1 nodes
     26980 MiB available memory on the printing compute node when the environment starts
 
     Waiting for input...
     Reading input from standard input
Warning: card &CELL ignored
Warning: card / ignored

     Current dimensions of program PWSCF are:
     Max number of different atomic species (ntypx) = 10
     Max number of k-points (npk) =  40000
     Max angular momentum in pseudopotentials (lmaxx) =  4
     file Cl.SCAN.UPF2: wavefunction(s)  0D renormalized

     WARNING: the MGGA functional with ID    5 has been 
     read together with other dft terms, but it should 
     stand alone in order to work properly. The other 
     terms will be ignored.

     WARNING: the MGGA functional with ID    5 has been 
     read together with other dft terms, but it should 
     stand alone in order to work properly. The other 
     terms will be ignored.

     Subspace diagonalization in iterative solution of the eigenvalue problem:
     a serial algorithm will be used

 
     G-vector sticks info
     --------------------
     sticks:   dense  smooth     PW     G-vecs:    dense   smooth      PW
     Sum        1159    1159    349                25821    25821    4111
 
     Using Slab Decomposition
 


     bravais-lattice index     =            2
     lattice parameter (alat)  =      12.9100  a.u.
     unit-cell volume          =     537.9213 (a.u.)^3
     number of atoms/cell      =            2
     number of atomic types    =            2
     number of electrons       =         8.00
     number of Kohn-Sham states=            4
     kinetic-energy cutoff     =      50.0000  Ry
     charge density cutoff     =     200.0000  Ry
     scf convergence threshold =      1.0E-06
     mixing beta               =       0.0100
     number of iterations used =            8  local-TF  mixing
     Exchange-correlation= SLA  PW   SCAN SCAN
                           (   0   0   0   0   0 263 267)

     celldm(1)=  12.910000  celldm(2)=   0.000000  celldm(3)=   0.000000
     celldm(4)=   0.000000  celldm(5)=   0.000000  celldm(6)=   0.000000

     crystal axes: (cart. coord. in units of alat)
               a(1) = (  -0.500000   0.000000   0.500000 )  
               a(2) = (   0.000000   0.500000   0.500000 )  
               a(3) = (  -0.500000   0.500000   0.000000 )  

     reciprocal axes: (cart. coord. in units 2 pi/alat)
               b(1) = ( -1.000000 -1.000000  1.000000 )  
               b(2) = (  1.000000  1.000000  1.000000 )  
               b(3) = ( -1.000000  1.000000 -1.000000 )  


     PseudoPot. # 1 for Li read from file:
     ~/Documents/TA/PWDFT.jl/pseudopotentials/scan_upf/Li.SCAN.UPF2
     MD5 check sum: Not computed, couldn't open file
     Pseudo is Norm-conserving, Zval =  1.0
     Generated by new atomic code, or converted to UPF format
     Using radial grid of 1321 points,  1 beta functions with: 
                l(1) =   0

     PseudoPot. # 2 for Cl read from file:
     ~/Documents/TA/PWDFT.jl/pseudopotentials/scan_upf/Cl.SCAN.UPF2
     MD5 check sum: Not computed, couldn't open file
     Pseudo is Norm-conserving, Zval =  7.0
     Generated by new atomic code, or converted to UPF format
     Using radial grid of 1493 points,  2 beta functions with: 
                l(1) =   0
                l(2) =   1

     atomic species   valence    mass     pseudopotential
        Li             1.00     6.94100     Li( 1.00)
        Cl             7.00    35.45300     Cl( 1.00)

     48 Sym. Ops., with inversion, found



   Cartesian axes

     site n.     atom                  positions (alat units)
         1           Li  tau(   1) = (   0.0000000   0.0000000   0.0000000  )
         2           Cl  tau(   2) = (   0.5000000   0.5000000   0.5000000  )

     number of k points=    47
                       cart. coord. in units 2pi/alat
        k(    1) = (   0.0000000   0.0000000   0.0000000), wk =   0.0020000
        k(    2) = (  -0.1000000   0.1000000  -0.1000000), wk =   0.0160000
        k(    3) = (  -0.2000000   0.2000000  -0.2000000), wk =   0.0160000
        k(    4) = (  -0.3000000   0.3000000  -0.3000000), wk =   0.0160000
        k(    5) = (  -0.4000000   0.4000000  -0.4000000), wk =   0.0160000
        k(    6) = (   0.5000000  -0.5000000   0.5000000), wk =   0.0080000
        k(    7) = (   0.0000000   0.2000000   0.0000000), wk =   0.0120000
        k(    8) = (  -0.1000000   0.3000000  -0.1000000), wk =   0.0480000
        k(    9) = (  -0.2000000   0.4000000  -0.2000000), wk =   0.0480000
        k(   10) = (  -0.3000000   0.5000000  -0.3000000), wk =   0.0480000
        k(   11) = (   0.6000000  -0.4000000   0.6000000), wk =   0.0480000
        k(   12) = (   0.5000000  -0.3000000   0.5000000), wk =   0.0480000
        k(   13) = (   0.4000000  -0.2000000   0.4000000), wk =   0.0480000
        k(   14) = (   0.3000000  -0.1000000   0.3000000), wk =   0.0480000
        k(   15) = (   0.2000000   0.0000000   0.2000000), wk =   0.0240000
        k(   16) = (   0.0000000   0.4000000   0.0000000), wk =   0.0120000
        k(   17) = (  -0.1000000   0.5000000  -0.1000000), wk =   0.0480000
        k(   18) = (  -0.2000000   0.6000000  -0.2000000), wk =   0.0480000
        k(   19) = (   0.7000000  -0.3000000   0.7000000), wk =   0.0480000
        k(   20) = (   0.6000000  -0.2000000   0.6000000), wk =   0.0480000
        k(   21) = (   0.5000000  -0.1000000   0.5000000), wk =   0.0480000
        k(   22) = (   0.4000000   0.0000000   0.4000000), wk =   0.0240000
        k(   23) = (   0.0000000   0.6000000   0.0000000), wk =   0.0120000
        k(   24) = (  -0.1000000   0.7000000  -0.1000000), wk =   0.0480000
        k(   25) = (   0.8000000  -0.2000000   0.8000000), wk =   0.0480000
        k(   26) = (   0.7000000  -0.1000000   0.7000000), wk =   0.0480000
        k(   27) = (   0.6000000  -0.0000000   0.6000000), wk =   0.0240000
        k(   28) = (   0.0000000   0.8000000   0.0000000), wk =   0.0120000
        k(   29) = (   0.9000000  -0.1000000   0.9000000), wk =   0.0480000
        k(   30) = (   0.8000000   0.0000000   0.8000000), wk =   0.0240000
        k(   31) = (   0.0000000  -1.0000000   0.0000000), wk =   0.0060000
        k(   32) = (  -0.2000000   0.4000000   0.0000000), wk =   0.0480000
        k(   33) = (  -0.3000000   0.5000000  -0.1000000), wk =   0.0960000
        k(   34) = (   0.6000000  -0.4000000   0.8000000), wk =   0.0960000
        k(   35) = (   0.5000000  -0.3000000   0.7000000), wk =   0.0480000
        k(   36) = (  -0.2000000   0.6000000   0.0000000), wk =   0.0480000
        k(   37) = (   0.7000000  -0.3000000   0.9000000), wk =   0.0960000
        k(   38) = (   0.6000000  -0.2000000   0.8000000), wk =   0.0960000
        k(   39) = (   0.5000000  -0.1000000   0.7000000), wk =   0.0960000
        k(   40) = (   0.4000000   0.0000000   0.6000000), wk =   0.0480000
        k(   41) = (   0.8000000  -0.2000000   1.0000000), wk =   0.0480000
        k(   42) = (   0.7000000  -0.1000000   0.9000000), wk =   0.0960000
        k(   43) = (   0.6000000   0.0000000   0.8000000), wk =   0.0480000
        k(   44) = (  -0.2000000  -1.0000000   0.0000000), wk =   0.0240000
        k(   45) = (   0.6000000  -0.2000000   1.0000000), wk =   0.0480000
        k(   46) = (   0.5000000  -0.1000000   0.9000000), wk =   0.0480000
        k(   47) = (  -0.4000000  -1.0000000   0.0000000), wk =   0.0240000

     Dense  grid:    25821 G-vectors     FFT dimensions: (  45,  45,  45)

     Estimated max dynamical RAM per process >      50.32 MB

     WARNING: libxc functional with ID  263 depends
      on external parameters: check the user_guide of
      QE if you need to modify them or to check their
      default values.

     Initial potential from superposition of free atoms

     starting charge       7.9953, renormalised to       8.0000
     Starting wfcs are   13 randomized atomic wfcs

     total cpu time spent up to now is       17.3 secs

     Self-consistent Calculation

     iteration #  1     ecut=    50.00 Ry     beta= 0.01
     Davidson diagonalization with overlap
     ethr =  1.00E-02,  avg # of iterations =  1.0

     total cpu time spent up to now is       29.7 secs

     total energy              =     -30.57296775 Ry
     estimated scf accuracy    <       0.42507451 Ry

     iteration #  2     ecut=    50.00 Ry     beta= 0.01
     Davidson diagonalization with overlap
     ethr =  5.31E-03,  avg # of iterations =  1.0

     total cpu time spent up to now is       39.0 secs

     total energy              =     -30.62933194 Ry
     estimated scf accuracy    <       0.40370161 Ry

     iteration #  3     ecut=    50.00 Ry     beta= 0.01
     Davidson diagonalization with overlap
     ethr =  5.05E-03,  avg # of iterations =  1.0

     total cpu time spent up to now is       46.5 secs

     total energy              =     -30.64709450 Ry
     estimated scf accuracy    <       0.28362855 Ry

     iteration #  4     ecut=    50.00 Ry     beta= 0.01
     Davidson diagonalization with overlap
     ethr =  3.55E-03,  avg # of iterations =  1.0

     total cpu time spent up to now is       53.3 secs

     total energy              =     -30.64931242 Ry
     estimated scf accuracy    <       0.02171286 Ry

     iteration #  5     ecut=    50.00 Ry     beta= 0.01
     Davidson diagonalization with overlap
     ethr =  2.71E-04,  avg # of iterations =  1.0

     total cpu time spent up to now is       59.3 secs

     total energy              =     -30.64463247 Ry
     estimated scf accuracy    <       0.01957773 Ry

     iteration #  6     ecut=    50.00 Ry     beta= 0.01
     Davidson diagonalization with overlap
     ethr =  2.45E-04,  avg # of iterations =  1.0

     total cpu time spent up to now is       64.8 secs

     total energy              =     -30.63857387 Ry
     estimated scf accuracy    <       0.01970311 Ry

     iteration #  7     ecut=    50.00 Ry     beta= 0.01
     Davidson diagonalization with overlap
     ethr =  2.45E-04,  avg # of iterations =  2.9

     total cpu time spent up to now is       72.2 secs

     total energy              =     -30.65935494 Ry
     estimated scf accuracy    <       0.06373723 Ry

     iteration #  8     ecut=    50.00 Ry     beta= 0.01
     Davidson diagonalization with overlap
     ethr =  2.45E-04,  avg # of iterations =  1.0

     total cpu time spent up to now is       75.1 secs

     total energy              =     -30.64874094 Ry
     estimated scf accuracy    <       0.06989160 Ry

     iteration #  9     ecut=    50.00 Ry     beta= 0.01
     Davidson diagonalization with overlap
     ethr =  2.45E-04,  avg # of iterations =  2.0

     negative rho (up,down):  1.228E-03 0.000E+00

     total cpu time spent up to now is       78.1 secs

     total energy              =     -30.56512100 Ry
     estimated scf accuracy    <       0.08125890 Ry

     iteration # 10     ecut=    50.00 Ry     beta= 0.01
     Davidson diagonalization with overlap
     c_bands:  4 eigenvalues not converged
     c_bands:  4 eigenvalues not converged
     c_bands:  4 eigenvalues not converged
     c_bands:  4 eigenvalues not converged
     c_bands:  4 eigenvalues not converged
     c_bands:  3 eigenvalues not converged
     c_bands:  4 eigenvalues not converged
     c_bands:  4 eigenvalues not converged
     c_bands:  4 eigenvalues not converged
     c_bands:  4 eigenvalues not converged
     c_bands:  4 eigenvalues not converged
     c_bands:  4 eigenvalues not converged
     c_bands:  4 eigenvalues not converged
     c_bands:  4 eigenvalues not converged
     c_bands:  4 eigenvalues not converged
     c_bands:  4 eigenvalues not converged
     c_bands:  4 eigenvalues not converged
     c_bands:  4 eigenvalues not converged
     c_bands:  4 eigenvalues not converged
     c_bands:  4 eigenvalues not converged
     c_bands:  4 eigenvalues not converged
     c_bands:  4 eigenvalues not converged
     c_bands:  4 eigenvalues not converged
     c_bands:  4 eigenvalues not converged
     c_bands:  4 eigenvalues not converged
     c_bands:  4 eigenvalues not converged
     c_bands:  4 eigenvalues not converged
     c_bands:  4 eigenvalues not converged
     c_bands:  4 eigenvalues not converged
     c_bands:  4 eigenvalues not converged
     c_bands:  4 eigenvalues not converged
     c_bands:  4 eigenvalues not converged
     c_bands:  4 eigenvalues not converged
     c_bands:  4 eigenvalues not converged
     c_bands:  4 eigenvalues not converged
     c_bands:  4 eigenvalues not converged
     c_bands:  4 eigenvalues not converged
     c_bands:  4 eigenvalues not converged
     c_bands:  4 eigenvalues not converged
     c_bands:  4 eigenvalues not converged
     c_bands:  4 eigenvalues not converged
     c_bands:  4 eigenvalues not converged
     c_bands:  4 eigenvalues not converged
     c_bands:  4 eigenvalues not converged
     c_bands:  4 eigenvalues not converged
     c_bands:  4 eigenvalues not converged
     c_bands:  4 eigenvalues not converged
     ethr =  2.45E-04,  avg # of iterations = 20.0

     negative rho (up,down):  4.537E-03 0.000E+00

     total cpu time spent up to now is       97.8 secs

     total energy              =      51.49103976 Ry
     estimated scf accuracy    <      34.48926176 Ry

     iteration # 11     ecut=    50.00 Ry     beta= 0.01
     Davidson diagonalization with overlap
     c_bands:  4 eigenvalues not converged
     c_bands:  3 eigenvalues not converged
     c_bands:  3 eigenvalues not converged
     c_bands:  3 eigenvalues not converged
     c_bands:  3 eigenvalues not converged
     c_bands:  1 eigenvalues not converged
     c_bands:  3 eigenvalues not converged
     c_bands:  3 eigenvalues not converged
     c_bands:  3 eigenvalues not converged
     c_bands:  3 eigenvalues not converged
     c_bands:  3 eigenvalues not converged
     c_bands:  3 eigenvalues not converged
     c_bands:  3 eigenvalues not converged
     c_bands:  3 eigenvalues not converged
     c_bands:  3 eigenvalues not converged
     c_bands:  3 eigenvalues not converged
     c_bands:  3 eigenvalues not converged
     c_bands:  3 eigenvalues not converged
     c_bands:  3 eigenvalues not converged
     c_bands:  3 eigenvalues not converged
     c_bands:  3 eigenvalues not converged
     c_bands:  3 eigenvalues not converged
     c_bands:  3 eigenvalues not converged
     c_bands:  3 eigenvalues not converged
     c_bands:  3 eigenvalues not converged
     c_bands:  3 eigenvalues not converged
     c_bands:  3 eigenvalues not converged
     c_bands:  3 eigenvalues not converged
     c_bands:  3 eigenvalues not converged
     c_bands:  3 eigenvalues not converged
     c_bands:  3 eigenvalues not converged
     c_bands:  3 eigenvalues not converged
     c_bands:  3 eigenvalues not converged
     c_bands:  3 eigenvalues not converged
     c_bands:  3 eigenvalues not converged
     c_bands:  3 eigenvalues not converged
     c_bands:  3 eigenvalues not converged
     c_bands:  3 eigenvalues not converged
     c_bands:  3 eigenvalues not converged
     c_bands:  3 eigenvalues not converged
     c_bands:  3 eigenvalues not converged
     c_bands:  3 eigenvalues not converged
     c_bands:  3 eigenvalues not converged
     c_bands:  3 eigenvalues not converged
     c_bands:  3 eigenvalues not converged
     c_bands:  3 eigenvalues not converged
     c_bands:  3 eigenvalues not converged
     ethr =  2.45E-04,  avg # of iterations = 20.0

     negative rho (up,down):  1.504E-02 0.000E+00

     total cpu time spent up to now is      116.1 secs

     total energy              =     -28.65683326 Ry
     estimated scf accuracy    <       1.78672959 Ry

     iteration # 12     ecut=    50.00 Ry     beta= 0.01
     Davidson diagonalization with overlap
     c_bands:  3 eigenvalues not converged
     c_bands:  3 eigenvalues not converged
     c_bands:  3 eigenvalues not converged
     c_bands:  3 eigenvalues not converged
     c_bands:  3 eigenvalues not converged
     c_bands:  3 eigenvalues not converged
     c_bands:  3 eigenvalues not converged
     c_bands:  3 eigenvalues not converged
     c_bands:  3 eigenvalues not converged
     c_bands:  3 eigenvalues not converged
     c_bands:  3 eigenvalues not converged
     c_bands:  3 eigenvalues not converged
     c_bands:  3 eigenvalues not converged
     c_bands:  3 eigenvalues not converged
     c_bands:  3 eigenvalues not converged
     c_bands:  3 eigenvalues not converged
     c_bands:  3 eigenvalues not converged
     c_bands:  3 eigenvalues not converged
     c_bands:  3 eigenvalues not converged
     c_bands:  3 eigenvalues not converged
     c_bands:  3 eigenvalues not converged
     c_bands:  3 eigenvalues not converged
     c_bands:  3 eigenvalues not converged
     c_bands:  3 eigenvalues not converged
     c_bands:  3 eigenvalues not converged
     c_bands:  3 eigenvalues not converged
     c_bands:  3 eigenvalues not converged
     c_bands:  3 eigenvalues not converged
     c_bands:  3 eigenvalues not converged
     c_bands:  3 eigenvalues not converged
     c_bands:  3 eigenvalues not converged
     c_bands:  3 eigenvalues not converged
     c_bands:  3 eigenvalues not converged
     c_bands:  3 eigenvalues not converged
     c_bands:  3 eigenvalues not converged
     c_bands:  3 eigenvalues not converged
     c_bands:  3 eigenvalues not converged
     c_bands:  3 eigenvalues not converged
     c_bands:  3 eigenvalues not converged
     c_bands:  3 eigenvalues not converged
     c_bands:  3 eigenvalues not converged
     c_bands:  3 eigenvalues not converged
     c_bands:  3 eigenvalues not converged
     c_bands:  3 eigenvalues not converged
     c_bands:  3 eigenvalues not converged
     c_bands:  3 eigenvalues not converged
     c_bands:  3 eigenvalues not converged
     ethr =  2.45E-04,  avg # of iterations = 20.0

     negative rho (up,down):  4.739E-03 0.000E+00

     total cpu time spent up to now is      133.8 secs

     total energy              =     -29.40023431 Ry
     estimated scf accuracy    <       3.82561793 Ry

     iteration # 13     ecut=    50.00 Ry     beta= 0.01
     Davidson diagonalization with overlap
     c_bands:  4 eigenvalues not converged
     c_bands:  4 eigenvalues not converged
     c_bands:  4 eigenvalues not converged
     c_bands:  4 eigenvalues not converged
     c_bands:  4 eigenvalues not converged
     c_bands:  4 eigenvalues not converged
     c_bands:  4 eigenvalues not converged
     c_bands:  4 eigenvalues not converged
     c_bands:  4 eigenvalues not converged
     c_bands:  4 eigenvalues not converged
     c_bands:  4 eigenvalues not converged
     c_bands:  4 eigenvalues not converged
     c_bands:  4 eigenvalues not converged
     c_bands:  4 eigenvalues not converged
     c_bands:  4 eigenvalues not converged
     c_bands:  4 eigenvalues not converged
     c_bands:  4 eigenvalues not converged
     c_bands:  4 eigenvalues not converged
     c_bands:  4 eigenvalues not converged
     c_bands:  4 eigenvalues not converged
     c_bands:  4 eigenvalues not converged
     c_bands:  4 eigenvalues not converged
     c_bands:  4 eigenvalues not converged
     c_bands:  4 eigenvalues not converged
     c_bands:  4 eigenvalues not converged
     c_bands:  4 eigenvalues not converged
     c_bands:  4 eigenvalues not converged
     c_bands:  4 eigenvalues not converged
     c_bands:  4 eigenvalues not converged
     c_bands:  4 eigenvalues not converged
     c_bands:  4 eigenvalues not converged
     c_bands:  4 eigenvalues not converged
     c_bands:  4 eigenvalues not converged
     c_bands:  4 eigenvalues not converged
     c_bands:  4 eigenvalues not converged
     c_bands:  4 eigenvalues not converged
     c_bands:  4 eigenvalues not converged
     c_bands:  4 eigenvalues not converged
     c_bands:  4 eigenvalues not converged
     c_bands:  4 eigenvalues not converged
     c_bands:  4 eigenvalues not converged
     c_bands:  4 eigenvalues not converged
     c_bands:  4 eigenvalues not converged
     c_bands:  4 eigenvalues not converged
     c_bands:  4 eigenvalues not converged
     c_bands:  4 eigenvalues not converged
     c_bands:  4 eigenvalues not converged
     ethr =  2.45E-04,  avg # of iterations = 20.0

     total cpu time spent up to now is      215.2 secs

     total energy              =      22.12830530 Ry
     estimated scf accuracy    <      26.92879211 Ry

     iteration # 14     ecut=    50.00 Ry     beta= 0.01
     Davidson diagonalization with overlap
     ethr =  2.45E-04,  avg # of iterations = 11.0

     total cpu time spent up to now is      238.1 secs

     total energy              =     -30.65005074 Ry
     estimated scf accuracy    <       0.00049151 Ry

     iteration # 15     ecut=    50.00 Ry     beta= 0.01
     Davidson diagonalization with overlap
     ethr =  6.14E-06,  avg # of iterations =  3.3

     total cpu time spent up to now is      243.0 secs

     total energy              =     -30.65102966 Ry
     estimated scf accuracy    <       0.00380927 Ry

     iteration # 16     ecut=    50.00 Ry     beta= 0.01
     Davidson diagonalization with overlap
     ethr =  6.14E-06,  avg # of iterations =  1.0

     total cpu time spent up to now is      245.9 secs

     total energy              =     -30.65068363 Ry
     estimated scf accuracy    <       0.00487216 Ry

     iteration # 17     ecut=    50.00 Ry     beta= 0.01
     Davidson diagonalization with overlap
     ethr =  6.14E-06,  avg # of iterations =  2.0

     total cpu time spent up to now is      249.6 secs

     total energy              =     -30.65075215 Ry
     estimated scf accuracy    <       0.00401745 Ry

     iteration # 18     ecut=    50.00 Ry     beta= 0.01
     Davidson diagonalization with overlap
     ethr =  6.14E-06,  avg # of iterations =  1.0

     total cpu time spent up to now is      252.3 secs

     total energy              =     -30.65084382 Ry
     estimated scf accuracy    <       0.00324626 Ry

     iteration # 19     ecut=    50.00 Ry     beta= 0.01
     Davidson diagonalization with overlap
     ethr =  6.14E-06,  avg # of iterations =  1.0

     total cpu time spent up to now is      255.0 secs

     total energy              =     -30.65075323 Ry
     estimated scf accuracy    <       0.00331141 Ry

     iteration # 20     ecut=    50.00 Ry     beta= 0.01
     Davidson diagonalization with overlap
     ethr =  6.14E-06,  avg # of iterations =  1.0

     total cpu time spent up to now is      257.7 secs

     total energy              =     -30.65087039 Ry
     estimated scf accuracy    <       0.00291529 Ry

     iteration # 21     ecut=    50.00 Ry     beta= 0.01
     Davidson diagonalization with overlap
     ethr =  6.14E-06,  avg # of iterations =  1.9

     total cpu time spent up to now is      260.7 secs

     total energy              =     -30.65104081 Ry
     estimated scf accuracy    <       0.00219208 Ry

     iteration # 22     ecut=    50.00 Ry     beta= 0.01
     Davidson diagonalization with overlap
     ethr =  6.14E-06,  avg # of iterations =  1.0

     total cpu time spent up to now is      263.3 secs

     total energy              =     -30.65058264 Ry
     estimated scf accuracy    <       0.00241352 Ry

     iteration # 23     ecut=    50.00 Ry     beta= 0.01
     Davidson diagonalization with overlap
     ethr =  6.14E-06,  avg # of iterations =  2.0

     total cpu time spent up to now is      267.0 secs

     total energy              =     -30.65068324 Ry
     estimated scf accuracy    <       0.00060004 Ry

     iteration # 24     ecut=    50.00 Ry     beta= 0.01
     Davidson diagonalization with overlap
     ethr =  6.14E-06,  avg # of iterations =  1.7

     negative rho (up,down):  3.035E-06 0.000E+00

     total cpu time spent up to now is      269.8 secs

     total energy              =     -30.64728666 Ry
     estimated scf accuracy    <       0.00074062 Ry

     iteration # 25     ecut=    50.00 Ry     beta= 0.01
     Davidson diagonalization with overlap
     ethr =  6.14E-06,  avg # of iterations =  4.0

     total cpu time spent up to now is      274.5 secs

     total energy              =     -30.65059443 Ry
     estimated scf accuracy    <       0.00086591 Ry

     iteration # 26     ecut=    50.00 Ry     beta= 0.01
     Davidson diagonalization with overlap
     ethr =  6.14E-06,  avg # of iterations =  2.8

     total cpu time spent up to now is      278.2 secs

     total energy              =     -30.65099206 Ry
     estimated scf accuracy    <       0.00188631 Ry

     iteration # 27     ecut=    50.00 Ry     beta= 0.01
     Davidson diagonalization with overlap
     ethr =  6.14E-06,  avg # of iterations =  1.0

     negative rho (up,down):  4.079E-07 0.000E+00

     total cpu time spent up to now is      280.8 secs

     total energy              =     -30.64893749 Ry
     estimated scf accuracy    <       0.00131174 Ry

     iteration # 28     ecut=    50.00 Ry     beta= 0.01
     Davidson diagonalization with overlap
     ethr =  6.14E-06,  avg # of iterations =  3.1

     total cpu time spent up to now is      284.9 secs

     total energy              =     -30.65021714 Ry
     estimated scf accuracy    <       0.00011566 Ry

     iteration # 29     ecut=    50.00 Ry     beta= 0.01
     Davidson diagonalization with overlap
     ethr =  1.45E-06,  avg # of iterations =  3.5

     total cpu time spent up to now is      289.2 secs

     total energy              =     -30.65000088 Ry
     estimated scf accuracy    <       0.00095279 Ry

     iteration # 30     ecut=    50.00 Ry     beta= 0.01
     Davidson diagonalization with overlap
     ethr =  1.45E-06,  avg # of iterations =  2.0

     negative rho (up,down):  3.452E-06 0.000E+00

     total cpu time spent up to now is      292.7 secs

     total energy              =     -30.64786529 Ry
     estimated scf accuracy    <       0.00113219 Ry

     iteration # 31     ecut=    50.00 Ry     beta= 0.01
     Davidson diagonalization with overlap
     ethr =  1.45E-06,  avg # of iterations =  5.0

     negative rho (up,down):  2.150E-05 0.000E+00

     total cpu time spent up to now is      298.0 secs

     total energy              =     -30.64867601 Ry
     estimated scf accuracy    <       0.00013122 Ry

     iteration # 32     ecut=    50.00 Ry     beta= 0.01
     Davidson diagonalization with overlap
     ethr =  1.45E-06,  avg # of iterations =  2.9

     negative rho (up,down):  1.523E-04 0.000E+00

     total cpu time spent up to now is      301.9 secs

     total energy              =     -30.64644195 Ry
     estimated scf accuracy    <       0.00011691 Ry

     iteration # 33     ecut=    50.00 Ry     beta= 0.01
     Davidson diagonalization with overlap
     ethr =  1.45E-06,  avg # of iterations =  4.0

     negative rho (up,down):  7.083E-05 0.000E+00

     total cpu time spent up to now is      306.3 secs

     total energy              =     -30.64830900 Ry
     estimated scf accuracy    <       0.00021032 Ry

     iteration # 34     ecut=    50.00 Ry     beta= 0.01
     Davidson diagonalization with overlap
     ethr =  1.45E-06,  avg # of iterations =  4.7

     negative rho (up,down):  1.224E-04 0.000E+00

     total cpu time spent up to now is      310.8 secs

     total energy              =     -30.64219552 Ry
     estimated scf accuracy    <       0.00102094 Ry

     iteration # 35     ecut=    50.00 Ry     beta= 0.01
     Davidson diagonalization with overlap
     ethr =  1.45E-06,  avg # of iterations = 10.3

     negative rho (up,down):  1.104E-04 0.000E+00

     total cpu time spent up to now is      319.3 secs

     total energy              =     -30.64293869 Ry
     estimated scf accuracy    <       0.00021484 Ry

     iteration # 36     ecut=    50.00 Ry     beta= 0.01
     Davidson diagonalization with overlap
     ethr =  1.45E-06,  avg # of iterations =  6.7

     negative rho (up,down):  1.633E-04 0.000E+00

     total cpu time spent up to now is      325.1 secs

     total energy              =     -30.64443792 Ry
     estimated scf accuracy    <       0.00006068 Ry

     iteration # 37     ecut=    50.00 Ry     beta= 0.01
     Davidson diagonalization with overlap
     ethr =  7.59E-07,  avg # of iterations =  2.8

     negative rho (up,down):  1.366E-04 0.000E+00

     total cpu time spent up to now is      328.4 secs

     total energy              =     -30.64478812 Ry
     estimated scf accuracy    <       0.00005481 Ry

     iteration # 38     ecut=    50.00 Ry     beta= 0.01
     Davidson diagonalization with overlap
     ethr =  6.85E-07,  avg # of iterations =  2.0

     negative rho (up,down):  1.463E-04 0.000E+00

     total cpu time spent up to now is      331.6 secs

     total energy              =     -30.64565833 Ry
     estimated scf accuracy    <       0.00004854 Ry

     iteration # 39     ecut=    50.00 Ry     beta= 0.01
     Davidson diagonalization with overlap
     ethr =  6.07E-07,  avg # of iterations =  2.8

     negative rho (up,down):  1.702E-04 0.000E+00

     total cpu time spent up to now is      334.9 secs

     total energy              =     -30.58584232 Ry
     estimated scf accuracy    <       0.00004132 Ry

     iteration # 40     ecut=    50.00 Ry     beta= 0.01
     Davidson diagonalization with overlap
     c_bands:  4 eigenvalues not converged
     c_bands:  4 eigenvalues not converged
     c_bands:  4 eigenvalues not converged
     c_bands:  4 eigenvalues not converged
     c_bands:  4 eigenvalues not converged
     c_bands:  4 eigenvalues not converged
     c_bands:  4 eigenvalues not converged
     c_bands:  4 eigenvalues not converged
     c_bands:  4 eigenvalues not converged
     c_bands:  4 eigenvalues not converged
     c_bands:  4 eigenvalues not converged
     c_bands:  4 eigenvalues not converged
     c_bands:  4 eigenvalues not converged
     c_bands:  4 eigenvalues not converged
     c_bands:  4 eigenvalues not converged
     c_bands:  4 eigenvalues not converged
     c_bands:  4 eigenvalues not converged
     c_bands:  4 eigenvalues not converged
     c_bands:  4 eigenvalues not converged
     c_bands:  4 eigenvalues not converged
     c_bands:  4 eigenvalues not converged
     c_bands:  4 eigenvalues not converged
     c_bands:  4 eigenvalues not converged
     c_bands:  4 eigenvalues not converged
     c_bands:  4 eigenvalues not converged
     c_bands:  4 eigenvalues not converged
     c_bands:  4 eigenvalues not converged
     c_bands:  4 eigenvalues not converged
     c_bands:  4 eigenvalues not converged
     c_bands:  4 eigenvalues not converged
     c_bands:  4 eigenvalues not converged
     c_bands:  4 eigenvalues not converged
     c_bands:  4 eigenvalues not converged
     c_bands:  4 eigenvalues not converged
     c_bands:  4 eigenvalues not converged
     c_bands:  4 eigenvalues not converged
     c_bands:  4 eigenvalues not converged
     c_bands:  4 eigenvalues not converged
     c_bands:  4 eigenvalues not converged
     c_bands:  4 eigenvalues not converged
     c_bands:  4 eigenvalues not converged
     c_bands:  4 eigenvalues not converged
     c_bands:  4 eigenvalues not converged
     c_bands:  4 eigenvalues not converged
     c_bands:  4 eigenvalues not converged
     c_bands:  4 eigenvalues not converged
     c_bands:  4 eigenvalues not converged
     ethr =  5.16E-07,  avg # of iterations = 20.0

     negative rho (up,down):  1.483E-04 0.000E+00

     total cpu time spent up to now is      355.6 secs

     total energy              =     126.88959115 Ry
     estimated scf accuracy    <    1132.06113776 Ry

     iteration # 41     ecut=    50.00 Ry     beta= 0.01
     Davidson diagonalization with overlap
     c_bands:  1 eigenvalues not converged
     c_bands:  2 eigenvalues not converged
     c_bands:  3 eigenvalues not converged
     c_bands:  3 eigenvalues not converged
     c_bands:  2 eigenvalues not converged
     c_bands:  2 eigenvalues not converged
     c_bands:  3 eigenvalues not converged
     c_bands:  3 eigenvalues not converged
     c_bands:  3 eigenvalues not converged
     c_bands:  3 eigenvalues not converged
     c_bands:  3 eigenvalues not converged
     c_bands:  3 eigenvalues not converged
     c_bands:  3 eigenvalues not converged
     c_bands:  2 eigenvalues not converged
     c_bands:  2 eigenvalues not converged
     c_bands:  3 eigenvalues not converged
     c_bands:  4 eigenvalues not converged
     c_bands:  3 eigenvalues not converged
     c_bands:  3 eigenvalues not converged
     c_bands:  3 eigenvalues not converged
     c_bands:  3 eigenvalues not converged
     c_bands:  3 eigenvalues not converged
     c_bands:  3 eigenvalues not converged
     c_bands:  3 eigenvalues not converged
     c_bands:  3 eigenvalues not converged
     c_bands:  3 eigenvalues not converged
     c_bands:  3 eigenvalues not converged
     c_bands:  3 eigenvalues not converged
     c_bands:  3 eigenvalues not converged
     c_bands:  3 eigenvalues not converged
     c_bands:  3 eigenvalues not converged
     c_bands:  3 eigenvalues not converged
     c_bands:  3 eigenvalues not converged
     c_bands:  3 eigenvalues not converged
     c_bands:  3 eigenvalues not converged
     c_bands:  3 eigenvalues not converged
     c_bands:  3 eigenvalues not converged
     c_bands:  3 eigenvalues not converged
     c_bands:  3 eigenvalues not converged
     c_bands:  3 eigenvalues not converged
     c_bands:  3 eigenvalues not converged
     c_bands:  3 eigenvalues not converged
     c_bands:  3 eigenvalues not converged
     c_bands:  3 eigenvalues not converged
     c_bands:  3 eigenvalues not converged
     c_bands:  3 eigenvalues not converged
     ethr =  5.16E-07,  avg # of iterations = 20.0

     negative rho (up,down):  7.090E-05 0.000E+00

     total cpu time spent up to now is      375.2 secs

     total energy              =     -30.63846651 Ry
     estimated scf accuracy    <       0.00004623 Ry

     iteration # 42     ecut=    50.00 Ry     beta= 0.01
     Davidson diagonalization with overlap
     c_bands:  4 eigenvalues not converged
     c_bands:  4 eigenvalues not converged
     c_bands:  4 eigenvalues not converged
     c_bands:  4 eigenvalues not converged
     c_bands:  4 eigenvalues not converged
     c_bands:  3 eigenvalues not converged
     c_bands:  4 eigenvalues not converged
     c_bands:  4 eigenvalues not converged
     c_bands:  4 eigenvalues not converged
     c_bands:  4 eigenvalues not converged
     c_bands:  4 eigenvalues not converged
     c_bands:  4 eigenvalues not converged
     c_bands:  4 eigenvalues not converged
     c_bands:  4 eigenvalues not converged
     c_bands:  4 eigenvalues not converged
     c_bands:  4 eigenvalues not converged
     c_bands:  4 eigenvalues not converged
     c_bands:  4 eigenvalues not converged
     c_bands:  4 eigenvalues not converged
     c_bands:  4 eigenvalues not converged
     c_bands:  4 eigenvalues not converged
     c_bands:  4 eigenvalues not converged
     c_bands:  4 eigenvalues not converged
     c_bands:  4 eigenvalues not converged
     c_bands:  4 eigenvalues not converged
     c_bands:  4 eigenvalues not converged
     c_bands:  4 eigenvalues not converged
     c_bands:  4 eigenvalues not converged
     c_bands:  4 eigenvalues not converged
     c_bands:  4 eigenvalues not converged
     c_bands:  4 eigenvalues not converged
     c_bands:  4 eigenvalues not converged
     c_bands:  4 eigenvalues not converged
     c_bands:  4 eigenvalues not converged
     c_bands:  4 eigenvalues not converged
     c_bands:  4 eigenvalues not converged
     c_bands:  4 eigenvalues not converged
     c_bands:  4 eigenvalues not converged
     c_bands:  4 eigenvalues not converged
     c_bands:  4 eigenvalues not converged
     c_bands:  4 eigenvalues not converged
     c_bands:  4 eigenvalues not converged
     c_bands:  4 eigenvalues not converged
     c_bands:  4 eigenvalues not converged
     c_bands:  4 eigenvalues not converged
     c_bands:  4 eigenvalues not converged
     c_bands:  4 eigenvalues not converged
     ethr =  5.16E-07,  avg # of iterations = 20.0

     negative rho (up,down):  1.878E-04 0.000E+00

     total cpu time spent up to now is      395.4 secs

     total energy              =     -24.06758272 Ry
     estimated scf accuracy    <       3.14289695 Ry

     iteration # 43     ecut=    50.00 Ry     beta= 0.01
     Davidson diagonalization with overlap
     c_bands:  2 eigenvalues not converged
     c_bands:  1 eigenvalues not converged
     c_bands:  3 eigenvalues not converged
     c_bands:  3 eigenvalues not converged
     ethr =  5.16E-07,  avg # of iterations = 15.4

     negative rho (up,down):  1.892E-04 0.000E+00

     total cpu time spent up to now is      408.3 secs

     total energy              =     -30.64387720 Ry
     estimated scf accuracy    <       0.00004969 Ry

     iteration # 44     ecut=    50.00 Ry     beta= 0.01
     Davidson diagonalization with overlap
     ethr =  5.16E-07,  avg # of iterations =  1.8

     negative rho (up,down):  1.937E-04 0.000E+00

     total cpu time spent up to now is      411.2 secs

     total energy              =     -30.64267969 Ry
     estimated scf accuracy    <       0.00007731 Ry

     iteration # 45     ecut=    50.00 Ry     beta= 0.01
     Davidson diagonalization with overlap
     ethr =  5.16E-07,  avg # of iterations =  5.4

     negative rho (up,down):  1.365E-04 0.000E+00

     total cpu time spent up to now is      416.2 secs

     total energy              =     -30.64617407 Ry
     estimated scf accuracy    <       0.00008265 Ry

     iteration # 46     ecut=    50.00 Ry     beta= 0.01
     Davidson diagonalization with overlap
     ethr =  5.16E-07,  avg # of iterations =  4.4

     negative rho (up,down):  1.736E-04 0.000E+00

     total cpu time spent up to now is      420.9 secs

     total energy              =     -30.64015774 Ry
     estimated scf accuracy    <       0.00015535 Ry

     iteration # 47     ecut=    50.00 Ry     beta= 0.01
     Davidson diagonalization with overlap
     ethr =  5.16E-07,  avg # of iterations = 11.6

     negative rho (up,down):  1.144E-04 0.000E+00

     total cpu time spent up to now is      430.5 secs

     total energy              =     -30.64253677 Ry
     estimated scf accuracy    <       0.00004705 Ry

     iteration # 48     ecut=    50.00 Ry     beta= 0.01
     Davidson diagonalization with overlap
     ethr =  5.16E-07,  avg # of iterations =  7.9

     negative rho (up,down):  1.154E-04 0.000E+00

     total cpu time spent up to now is      437.4 secs

     total energy              =     -30.64624969 Ry
     estimated scf accuracy    <       0.00021174 Ry

     iteration # 49     ecut=    50.00 Ry     beta= 0.01
     Davidson diagonalization with overlap
     ethr =  5.16E-07,  avg # of iterations =  4.7

     negative rho (up,down):  9.361E-05 0.000E+00

     total cpu time spent up to now is      441.8 secs

     total energy              =     -30.64597601 Ry
     estimated scf accuracy    <       0.00004109 Ry

     iteration # 50     ecut=    50.00 Ry     beta= 0.01
     Davidson diagonalization with overlap
     ethr =  5.14E-07,  avg # of iterations =  4.7

     negative rho (up,down):  1.682E-04 0.000E+00

     total cpu time spent up to now is      446.2 secs

     total energy              =     -30.64366589 Ry
     estimated scf accuracy    <       0.00004831 Ry

     iteration # 51     ecut=    50.00 Ry     beta= 0.01
     Davidson diagonalization with overlap
     ethr =  5.14E-07,  avg # of iterations =  4.6

     negative rho (up,down):  2.113E-04 0.000E+00

     total cpu time spent up to now is      450.9 secs

     total energy              =     -30.62153357 Ry
     estimated scf accuracy    <       0.00004445 Ry

     iteration # 52     ecut=    50.00 Ry     beta= 0.01
     Davidson diagonalization with overlap
     c_bands:  4 eigenvalues not converged
     c_bands:  4 eigenvalues not converged
     c_bands:  4 eigenvalues not converged
     c_bands:  4 eigenvalues not converged
     c_bands:  4 eigenvalues not converged
     c_bands:  4 eigenvalues not converged
     c_bands:  4 eigenvalues not converged
     c_bands:  4 eigenvalues not converged
     c_bands:  4 eigenvalues not converged
     c_bands:  4 eigenvalues not converged
     c_bands:  4 eigenvalues not converged
     c_bands:  4 eigenvalues not converged
     c_bands:  4 eigenvalues not converged
     c_bands:  4 eigenvalues not converged
     c_bands:  4 eigenvalues not converged
     c_bands:  4 eigenvalues not converged
     c_bands:  4 eigenvalues not converged
     c_bands:  4 eigenvalues not converged
     c_bands:  4 eigenvalues not converged
     c_bands:  4 eigenvalues not converged
     c_bands:  4 eigenvalues not converged
     c_bands:  4 eigenvalues not converged
     c_bands:  4 eigenvalues not converged
     c_bands:  4 eigenvalues not converged
     c_bands:  4 eigenvalues not converged
     c_bands:  4 eigenvalues not converged
     c_bands:  4 eigenvalues not converged
     c_bands:  4 eigenvalues not converged
     c_bands:  4 eigenvalues not converged
     c_bands:  4 eigenvalues not converged
     c_bands:  4 eigenvalues not converged
     c_bands:  4 eigenvalues not converged
     c_bands:  4 eigenvalues not converged
     c_bands:  4 eigenvalues not converged
     c_bands:  4 eigenvalues not converged
     c_bands:  4 eigenvalues not converged
     c_bands:  4 eigenvalues not converged
     c_bands:  4 eigenvalues not converged
     c_bands:  4 eigenvalues not converged
     c_bands:  4 eigenvalues not converged
     c_bands:  4 eigenvalues not converged
     c_bands:  4 eigenvalues not converged
     c_bands:  4 eigenvalues not converged
     c_bands:  4 eigenvalues not converged
     c_bands:  4 eigenvalues not converged
     c_bands:  4 eigenvalues not converged
     c_bands:  4 eigenvalues not converged
     ethr =  5.14E-07,  avg # of iterations = 20.0

     negative rho (up,down):  1.948E-04 0.000E+00

     total cpu time spent up to now is      472.1 secs

     total energy              =      52.40821346 Ry
     estimated scf accuracy    <     322.63307840 Ry

     iteration # 53     ecut=    50.00 Ry     beta= 0.01
     Davidson diagonalization with overlap
     c_bands:  1 eigenvalues not converged
     c_bands:  2 eigenvalues not converged
     c_bands:  3 eigenvalues not converged
     c_bands:  3 eigenvalues not converged
     c_bands:  1 eigenvalues not converged
     c_bands:  1 eigenvalues not converged
     c_bands:  3 eigenvalues not converged
     c_bands:  3 eigenvalues not converged
     c_bands:  3 eigenvalues not converged
     c_bands:  2 eigenvalues not converged
     c_bands:  2 eigenvalues not converged
     c_bands:  2 eigenvalues not converged
     c_bands:  2 eigenvalues not converged
     c_bands:  3 eigenvalues not converged
     c_bands:  3 eigenvalues not converged
     c_bands:  3 eigenvalues not converged
     c_bands:  3 eigenvalues not converged
     c_bands:  3 eigenvalues not converged
     c_bands:  3 eigenvalues not converged
     c_bands:  2 eigenvalues not converged
     c_bands:  2 eigenvalues not converged
     c_bands:  3 eigenvalues not converged
     c_bands:  3 eigenvalues not converged
     c_bands:  3 eigenvalues not converged
     c_bands:  3 eigenvalues not converged
     c_bands:  3 eigenvalues not converged
     c_bands:  3 eigenvalues not converged
     c_bands:  3 eigenvalues not converged
     c_bands:  3 eigenvalues not converged
     c_bands:  3 eigenvalues not converged
     c_bands:  3 eigenvalues not converged
     c_bands:  3 eigenvalues not converged
     c_bands:  3 eigenvalues not converged
     c_bands:  3 eigenvalues not converged
     c_bands:  3 eigenvalues not converged
     c_bands:  3 eigenvalues not converged
     c_bands:  3 eigenvalues not converged
     c_bands:  3 eigenvalues not converged
     c_bands:  3 eigenvalues not converged
     c_bands:  3 eigenvalues not converged
     c_bands:  3 eigenvalues not converged
     c_bands:  3 eigenvalues not converged
     c_bands:  3 eigenvalues not converged
     c_bands:  3 eigenvalues not converged
     c_bands:  3 eigenvalues not converged
     c_bands:  3 eigenvalues not converged
     ethr =  5.14E-07,  avg # of iterations = 19.9

     negative rho (up,down):  1.635E-04 0.000E+00

     total cpu time spent up to now is      490.7 secs

     total energy              =     -30.64035630 Ry
     estimated scf accuracy    <       0.00003220 Ry

     iteration # 54     ecut=    50.00 Ry     beta= 0.01
     Davidson diagonalization with overlap
     c_bands:  1 eigenvalues not converged
     ethr =  4.03E-07,  avg # of iterations = 13.5

     negative rho (up,down):  6.265E-05 0.000E+00

     total cpu time spent up to now is      501.8 secs

     total energy              =     -30.64386829 Ry
     estimated scf accuracy    <       0.00011361 Ry

     iteration # 55     ecut=    50.00 Ry     beta= 0.01
     Davidson diagonalization with overlap
     ethr =  4.03E-07,  avg # of iterations =  7.9

     negative rho (up,down):  6.633E-05 0.000E+00

     total cpu time spent up to now is      509.0 secs

     total energy              =     -30.64791240 Ry
     estimated scf accuracy    <       0.00006746 Ry

     iteration # 56     ecut=    50.00 Ry     beta= 0.01
     Davidson diagonalization with overlap
     ethr =  4.03E-07,  avg # of iterations =  2.0

     negative rho (up,down):  7.736E-05 0.000E+00

     total cpu time spent up to now is      512.0 secs

     total energy              =     -30.64562017 Ry
     estimated scf accuracy    <       0.00006315 Ry

     iteration # 57     ecut=    50.00 Ry     beta= 0.01
     Davidson diagonalization with overlap
     ethr =  4.03E-07,  avg # of iterations =  5.1

     negative rho (up,down):  1.039E-04 0.000E+00

     total cpu time spent up to now is      516.9 secs

     total energy              =     -30.64750512 Ry
     estimated scf accuracy    <       0.00004473 Ry

     iteration # 58     ecut=    50.00 Ry     beta= 0.01
     Davidson diagonalization with overlap
     ethr =  4.03E-07,  avg # of iterations =  3.9

     negative rho (up,down):  1.109E-04 0.000E+00

     total cpu time spent up to now is      521.3 secs

     total energy              =     -30.64687534 Ry
     estimated scf accuracy    <       0.00008649 Ry

     iteration # 59     ecut=    50.00 Ry     beta= 0.01
     Davidson diagonalization with overlap
     ethr =  4.03E-07,  avg # of iterations =  3.6

     negative rho (up,down):  1.176E-04 0.000E+00

     total cpu time spent up to now is      525.2 secs

     total energy              =     -30.62303651 Ry
     estimated scf accuracy    <       0.00008069 Ry

     iteration # 60     ecut=    50.00 Ry     beta= 0.01
     Davidson diagonalization with overlap
     c_bands:  4 eigenvalues not converged
     c_bands:  4 eigenvalues not converged
     c_bands:  4 eigenvalues not converged
     c_bands:  4 eigenvalues not converged
     c_bands:  4 eigenvalues not converged
     c_bands:  4 eigenvalues not converged
     c_bands:  4 eigenvalues not converged
     c_bands:  4 eigenvalues not converged
     c_bands:  4 eigenvalues not converged
     c_bands:  4 eigenvalues not converged
     c_bands:  4 eigenvalues not converged
     c_bands:  4 eigenvalues not converged
     c_bands:  4 eigenvalues not converged
     c_bands:  4 eigenvalues not converged
     c_bands:  4 eigenvalues not converged
     c_bands:  4 eigenvalues not converged
     c_bands:  4 eigenvalues not converged
     c_bands:  4 eigenvalues not converged
     c_bands:  4 eigenvalues not converged
     c_bands:  4 eigenvalues not converged
     c_bands:  4 eigenvalues not converged
     c_bands:  4 eigenvalues not converged
     c_bands:  4 eigenvalues not converged
     c_bands:  4 eigenvalues not converged
     c_bands:  4 eigenvalues not converged
     c_bands:  4 eigenvalues not converged
     c_bands:  4 eigenvalues not converged
     c_bands:  4 eigenvalues not converged
     c_bands:  4 eigenvalues not converged
     c_bands:  4 eigenvalues not converged
     c_bands:  4 eigenvalues not converged
     c_bands:  4 eigenvalues not converged
     c_bands:  4 eigenvalues not converged
     c_bands:  4 eigenvalues not converged
     c_bands:  4 eigenvalues not converged
     c_bands:  4 eigenvalues not converged
     c_bands:  4 eigenvalues not converged
     c_bands:  4 eigenvalues not converged
     c_bands:  4 eigenvalues not converged
     c_bands:  4 eigenvalues not converged
     c_bands:  4 eigenvalues not converged
     c_bands:  4 eigenvalues not converged
     c_bands:  4 eigenvalues not converged
     c_bands:  4 eigenvalues not converged
     c_bands:  4 eigenvalues not converged
     c_bands:  4 eigenvalues not converged
     c_bands:  4 eigenvalues not converged
     ethr =  4.03E-07,  avg # of iterations = 20.0

     negative rho (up,down):  9.992E-05 0.000E+00

     total cpu time spent up to now is      545.5 secs

     total energy              =      81.07020732 Ry
     estimated scf accuracy    <     522.59342109 Ry

     iteration # 61     ecut=    50.00 Ry     beta= 0.01
     Davidson diagonalization with overlap
     c_bands:  3 eigenvalues not converged
     c_bands:  2 eigenvalues not converged
     c_bands:  2 eigenvalues not converged
     c_bands:  2 eigenvalues not converged
     c_bands:  3 eigenvalues not converged
     c_bands:  1 eigenvalues not converged
     c_bands:  3 eigenvalues not converged
     c_bands:  3 eigenvalues not converged
     c_bands:  2 eigenvalues not converged
     c_bands:  3 eigenvalues not converged
     c_bands:  3 eigenvalues not converged
     c_bands:  2 eigenvalues not converged
     c_bands:  2 eigenvalues not converged
     c_bands:  1 eigenvalues not converged
     c_bands:  1 eigenvalues not converged
     c_bands:  1 eigenvalues not converged
     c_bands:  2 eigenvalues not converged
     c_bands:  1 eigenvalues not converged
     c_bands:  1 eigenvalues not converged
     ethr =  4.03E-07,  avg # of iterations = 19.3

     negative rho (up,down):  2.217E-04 0.000E+00

     total cpu time spent up to now is      562.6 secs

     total energy              =     -30.63352833 Ry
     estimated scf accuracy    <       0.00015215 Ry

     iteration # 62     ecut=    50.00 Ry     beta= 0.01
     Davidson diagonalization with overlap
     c_bands:  2 eigenvalues not converged
     ethr =  4.03E-07,  avg # of iterations =  5.9

     negative rho (up,down):  2.477E-04 0.000E+00

     total cpu time spent up to now is      567.9 secs

     total energy              =     -30.64644838 Ry
     estimated scf accuracy    <       0.00022965 Ry

     iteration # 63     ecut=    50.00 Ry     beta= 0.01
     Davidson diagonalization with overlap
     ethr =  4.03E-07,  avg # of iterations =  2.0

     negative rho (up,down):  2.056E-04 0.000E+00

     total cpu time spent up to now is      571.0 secs

     total energy              =     -30.64556299 Ry
     estimated scf accuracy    <       0.00023241 Ry

     iteration # 64     ecut=    50.00 Ry     beta= 0.01
     Davidson diagonalization with overlap
     ethr =  4.03E-07,  avg # of iterations =  3.0

     negative rho (up,down):  1.955E-04 0.000E+00

     total cpu time spent up to now is      574.7 secs

     total energy              =     -30.64490296 Ry
     estimated scf accuracy    <       0.00015866 Ry

     iteration # 65     ecut=    50.00 Ry     beta= 0.01
     Davidson diagonalization with overlap
     ethr =  4.03E-07,  avg # of iterations =  5.8

     negative rho (up,down):  2.839E-04 0.000E+00

     total cpu time spent up to now is      579.9 secs

     total energy              =     -30.63654816 Ry
     estimated scf accuracy    <       0.00028313 Ry

     iteration # 66     ecut=    50.00 Ry     beta= 0.01
     Davidson diagonalization with overlap
     c_bands:  3 eigenvalues not converged
     c_bands:  3 eigenvalues not converged
     c_bands:  3 eigenvalues not converged
     c_bands:  3 eigenvalues not converged
     c_bands:  3 eigenvalues not converged
     c_bands:  3 eigenvalues not converged
     c_bands:  3 eigenvalues not converged
     c_bands:  3 eigenvalues not converged
     c_bands:  3 eigenvalues not converged
     c_bands:  3 eigenvalues not converged
     c_bands:  3 eigenvalues not converged
     c_bands:  3 eigenvalues not converged
     c_bands:  3 eigenvalues not converged
     c_bands:  3 eigenvalues not converged
     c_bands:  3 eigenvalues not converged
     c_bands:  3 eigenvalues not converged
     c_bands:  3 eigenvalues not converged
     c_bands:  2 eigenvalues not converged
     c_bands:  3 eigenvalues not converged
     c_bands:  3 eigenvalues not converged
     c_bands:  3 eigenvalues not converged
     c_bands:  3 eigenvalues not converged
     c_bands:  3 eigenvalues not converged
     c_bands:  3 eigenvalues not converged
     c_bands:  3 eigenvalues not converged
     c_bands:  3 eigenvalues not converged
     c_bands:  3 eigenvalues not converged
     c_bands:  3 eigenvalues not converged
     c_bands:  3 eigenvalues not converged
     c_bands:  3 eigenvalues not converged
     c_bands:  3 eigenvalues not converged
     c_bands:  3 eigenvalues not converged
     c_bands:  3 eigenvalues not converged
     c_bands:  3 eigenvalues not converged
     c_bands:  3 eigenvalues not converged
     c_bands:  3 eigenvalues not converged
     c_bands:  3 eigenvalues not converged
     c_bands:  3 eigenvalues not converged
     c_bands:  3 eigenvalues not converged
     c_bands:  3 eigenvalues not converged
     c_bands:  3 eigenvalues not converged
     c_bands:  3 eigenvalues not converged
     c_bands:  3 eigenvalues not converged
     ethr =  4.03E-07,  avg # of iterations = 19.8

     negative rho (up,down):  1.687E-04 0.000E+00

     total cpu time spent up to now is      597.5 secs

     total energy              =     -30.63869849 Ry
     estimated scf accuracy    <       0.00344204 Ry

     iteration # 67     ecut=    50.00 Ry     beta= 0.01
     Davidson diagonalization with overlap
     c_bands:  3 eigenvalues not converged
     ethr =  4.03E-07,  avg # of iterations = 17.6

     negative rho (up,down):  3.764E-05 0.000E+00

     total cpu time spent up to now is      612.0 secs

     total energy              =     -30.63707998 Ry
     estimated scf accuracy    <       0.00061807 Ry

     iteration # 68     ecut=    50.00 Ry     beta= 0.01
     Davidson diagonalization with overlap
     ethr =  4.03E-07,  avg # of iterations =  9.3

     negative rho (up,down):  3.287E-05 0.000E+00

     total cpu time spent up to now is      620.1 secs

     total energy              =     -30.64916377 Ry
     estimated scf accuracy    <       0.00002830 Ry

     iteration # 69     ecut=    50.00 Ry     beta= 0.01
     Davidson diagonalization with overlap
     ethr =  3.54E-07,  avg # of iterations =  2.9

     negative rho (up,down):  2.980E-05 0.000E+00

     total cpu time spent up to now is      623.6 secs

     total energy              =     -30.64853635 Ry
     estimated scf accuracy    <       0.00000541 Ry

     iteration # 70     ecut=    50.00 Ry     beta= 0.01
     Davidson diagonalization with overlap
     ethr =  6.76E-08,  avg # of iterations =  7.4

     negative rho (up,down):  2.050E-05 0.000E+00

     total cpu time spent up to now is      629.8 secs

     total energy              =     -30.64946169 Ry
     estimated scf accuracy    <       0.00000285 Ry

     iteration # 71     ecut=    50.00 Ry     beta= 0.01
     Davidson diagonalization with overlap
     ethr =  3.56E-08,  avg # of iterations =  6.8

     negative rho (up,down):  1.783E-05 0.000E+00

     total cpu time spent up to now is      635.7 secs

     total energy              =     -30.64870725 Ry
     estimated scf accuracy    <       0.00001121 Ry

     iteration # 72     ecut=    50.00 Ry     beta= 0.01
     Davidson diagonalization with overlap
     ethr =  3.56E-08,  avg # of iterations =  7.8

     negative rho (up,down):  1.821E-05 0.000E+00

     total cpu time spent up to now is      642.3 secs

     total energy              =     -30.64925212 Ry
     estimated scf accuracy    <       0.00001487 Ry

     iteration # 73     ecut=    50.00 Ry     beta= 0.01
     Davidson diagonalization with overlap
     ethr =  3.56E-08,  avg # of iterations =  6.3

     negative rho (up,down):  1.847E-05 0.000E+00

     total cpu time spent up to now is      647.8 secs

     total energy              =     -30.64949079 Ry
     estimated scf accuracy    <       0.00002425 Ry

     iteration # 74     ecut=    50.00 Ry     beta= 0.01
     Davidson diagonalization with overlap
     ethr =  3.56E-08,  avg # of iterations =  4.6

     negative rho (up,down):  1.265E-05 0.000E+00

     total cpu time spent up to now is      652.0 secs

     total energy              =     -30.65003940 Ry
     estimated scf accuracy    <       0.00002900 Ry

     iteration # 75     ecut=    50.00 Ry     beta= 0.01
     Davidson diagonalization with overlap
     ethr =  3.56E-08,  avg # of iterations =  3.7

     negative rho (up,down):  1.720E-05 0.000E+00

     total cpu time spent up to now is      656.2 secs

     total energy              =     -30.64557598 Ry
     estimated scf accuracy    <       0.00002551 Ry

     iteration # 76     ecut=    50.00 Ry     beta= 0.01
     Davidson diagonalization with overlap
     c_bands:  3 eigenvalues not converged
     c_bands:  2 eigenvalues not converged
     c_bands:  1 eigenvalues not converged
     c_bands:  3 eigenvalues not converged
     c_bands:  3 eigenvalues not converged
     c_bands:  2 eigenvalues not converged
     c_bands:  1 eigenvalues not converged
     c_bands:  1 eigenvalues not converged
     c_bands:  2 eigenvalues not converged
     c_bands:  2 eigenvalues not converged
     c_bands:  2 eigenvalues not converged
     c_bands:  2 eigenvalues not converged
     c_bands:  2 eigenvalues not converged
     c_bands:  3 eigenvalues not converged
     c_bands:  3 eigenvalues not converged
     c_bands:  1 eigenvalues not converged
     c_bands:  2 eigenvalues not converged
     c_bands:  1 eigenvalues not converged
     c_bands:  3 eigenvalues not converged
     c_bands:  3 eigenvalues not converged
     c_bands:  3 eigenvalues not converged
     c_bands:  3 eigenvalues not converged
     c_bands:  1 eigenvalues not converged
     c_bands:  2 eigenvalues not converged
     c_bands:  3 eigenvalues not converged
     c_bands:  1 eigenvalues not converged
     c_bands:  1 eigenvalues not converged
     c_bands:  2 eigenvalues not converged
     c_bands:  3 eigenvalues not converged
     c_bands:  3 eigenvalues not converged
     c_bands:  1 eigenvalues not converged
     c_bands:  3 eigenvalues not converged
     c_bands:  3 eigenvalues not converged
     c_bands:  3 eigenvalues not converged
     c_bands:  3 eigenvalues not converged
     c_bands:  2 eigenvalues not converged
     c_bands:  2 eigenvalues not converged
     c_bands:  3 eigenvalues not converged
     c_bands:  2 eigenvalues not converged
     c_bands:  1 eigenvalues not converged
     c_bands:  2 eigenvalues not converged
     ethr =  3.56E-08,  avg # of iterations = 19.8

     negative rho (up,down):  1.435E-05 0.000E+00

     total cpu time spent up to now is      673.6 secs

     total energy              =     -30.63412287 Ry
     estimated scf accuracy    <       0.00017055 Ry

     iteration # 77     ecut=    50.00 Ry     beta= 0.01
     Davidson diagonalization with overlap
     ethr =  3.56E-08,  avg # of iterations = 10.0

     negative rho (up,down):  1.453E-05 0.000E+00

     total cpu time spent up to now is      682.0 secs

     total energy              =     -30.65004558 Ry
     estimated scf accuracy    <       0.00001662 Ry

     iteration # 78     ecut=    50.00 Ry     beta= 0.01
     Davidson diagonalization with overlap
     ethr =  3.56E-08,  avg # of iterations =  1.0

     negative rho (up,down):  2.162E-05 0.000E+00

     total cpu time spent up to now is      684.5 secs

     total energy              =     -30.64951071 Ry
     estimated scf accuracy    <       0.00001974 Ry

     iteration # 79     ecut=    50.00 Ry     beta= 0.01
     Davidson diagonalization with overlap
     ethr =  3.56E-08,  avg # of iterations =  3.5

     negative rho (up,down):  1.190E-05 0.000E+00

     total cpu time spent up to now is      688.8 secs

     total energy              =     -30.65004561 Ry
     estimated scf accuracy    <       0.00000471 Ry

     iteration # 80     ecut=    50.00 Ry     beta= 0.01
     Davidson diagonalization with overlap
     ethr =  3.56E-08,  avg # of iterations =  5.8

     negative rho (up,down):  1.118E-05 0.000E+00

     total cpu time spent up to now is      694.1 secs

     total energy              =     -30.65001150 Ry
     estimated scf accuracy    <       0.00000755 Ry

     iteration # 81     ecut=    50.00 Ry     beta= 0.01
     Davidson diagonalization with overlap
     ethr =  3.56E-08,  avg # of iterations =  9.6

     negative rho (up,down):  8.596E-06 0.000E+00

     total cpu time spent up to now is      702.0 secs

     total energy              =     -30.64982985 Ry
     estimated scf accuracy    <       0.00000375 Ry

     iteration # 82     ecut=    50.00 Ry     beta= 0.01
     Davidson diagonalization with overlap
     ethr =  3.56E-08,  avg # of iterations =  7.7

     negative rho (up,down):  8.035E-06 0.000E+00

     total cpu time spent up to now is      708.5 secs

     total energy              =     -30.65042156 Ry
     estimated scf accuracy    <       0.00001094 Ry

     iteration # 83     ecut=    50.00 Ry     beta= 0.01
     Davidson diagonalization with overlap
     ethr =  3.56E-08,  avg # of iterations =  2.9

     negative rho (up,down):  7.723E-06 0.000E+00

     total cpu time spent up to now is      712.1 secs

     total energy              =     -30.65045202 Ry
     estimated scf accuracy    <       0.00000690 Ry

     iteration # 84     ecut=    50.00 Ry     beta= 0.01
     Davidson diagonalization with overlap
     ethr =  3.56E-08,  avg # of iterations =  7.3

     negative rho (up,down):  8.036E-06 0.000E+00

     total cpu time spent up to now is      718.0 secs

     total energy              =     -30.65024182 Ry
     estimated scf accuracy    <       0.00000480 Ry

     iteration # 85     ecut=    50.00 Ry     beta= 0.01
     Davidson diagonalization with overlap
     ethr =  3.56E-08,  avg # of iterations =  6.3

     negative rho (up,down):  5.065E-06 0.000E+00

     total cpu time spent up to now is      723.6 secs

     total energy              =     -30.65051477 Ry
     estimated scf accuracy    <       0.00002747 Ry

     iteration # 86     ecut=    50.00 Ry     beta= 0.01
     Davidson diagonalization with overlap
     ethr =  3.56E-08,  avg # of iterations =  4.7

     negative rho (up,down):  5.029E-06 0.000E+00

     total cpu time spent up to now is      728.1 secs

     total energy              =     -30.65064412 Ry
     estimated scf accuracy    <       0.00000794 Ry

     iteration # 87     ecut=    50.00 Ry     beta= 0.01
     Davidson diagonalization with overlap
     ethr =  3.56E-08,  avg # of iterations =  4.8

     negative rho (up,down):  5.777E-06 0.000E+00

     total cpu time spent up to now is      732.6 secs

     total energy              =     -30.65059214 Ry
     estimated scf accuracy    <       0.00000144 Ry

     iteration # 88     ecut=    50.00 Ry     beta= 0.01
     Davidson diagonalization with overlap
     ethr =  1.81E-08,  avg # of iterations =  3.9

     negative rho (up,down):  3.256E-06 0.000E+00

     total cpu time spent up to now is      736.8 secs

     total energy              =     -30.65047895 Ry
     estimated scf accuracy    <       0.00000223 Ry

     iteration # 89     ecut=    50.00 Ry     beta= 0.01
     Davidson diagonalization with overlap
     ethr =  1.81E-08,  avg # of iterations =  4.8

     total cpu time spent up to now is      741.4 secs

     total energy              =     -30.65077948 Ry
     estimated scf accuracy    <       0.00002317 Ry

     iteration # 90     ecut=    50.00 Ry     beta= 0.01
     Davidson diagonalization with overlap
     ethr =  1.81E-08,  avg # of iterations =  3.1

     total cpu time spent up to now is      745.4 secs

     total energy              =     -30.65093788 Ry
     estimated scf accuracy    <       0.00002239 Ry

     iteration # 91     ecut=    50.00 Ry     beta= 0.01
     Davidson diagonalization with overlap
     ethr =  1.81E-08,  avg # of iterations =  1.9

     total cpu time spent up to now is      748.2 secs

     total energy              =     -30.65091935 Ry
     estimated scf accuracy    <       0.00001565 Ry

     iteration # 92     ecut=    50.00 Ry     beta= 0.01
     Davidson diagonalization with overlap
     ethr =  1.81E-08,  avg # of iterations =  2.9

     negative rho (up,down):  5.035E-08 0.000E+00

     total cpu time spent up to now is      752.0 secs

     total energy              =     -30.65079273 Ry
     estimated scf accuracy    <       0.00000273 Ry

     iteration # 93     ecut=    50.00 Ry     beta= 0.01
     Davidson diagonalization with overlap
     ethr =  1.81E-08,  avg # of iterations =  3.6

     total cpu time spent up to now is      756.6 secs

     total energy              =     -30.65092397 Ry
     estimated scf accuracy    <       0.00000526 Ry

     iteration # 94     ecut=    50.00 Ry     beta= 0.01
     Davidson diagonalization with overlap
     ethr =  1.81E-08,  avg # of iterations =  3.0

     total cpu time spent up to now is      760.3 secs

     total energy              =     -30.65095255 Ry
     estimated scf accuracy    <       0.00000394 Ry

     iteration # 95     ecut=    50.00 Ry     beta= 0.01
     Davidson diagonalization with overlap
     ethr =  1.81E-08,  avg # of iterations =  2.0

     total cpu time spent up to now is      765.6 secs

     total energy              =     -30.65095265 Ry
     estimated scf accuracy    <       0.00000147 Ry

     iteration # 96     ecut=    50.00 Ry     beta= 0.01
     Davidson diagonalization with overlap
     ethr =  1.81E-08,  avg # of iterations =  1.0

     total cpu time spent up to now is      768.1 secs

     total energy              =     -30.65095498 Ry
     estimated scf accuracy    <       0.00000156 Ry

     iteration # 97     ecut=    50.00 Ry     beta= 0.01
     Davidson diagonalization with overlap
     ethr =  1.81E-08,  avg # of iterations =  2.0

     total cpu time spent up to now is      771.2 secs

     total energy              =     -30.65095613 Ry
     estimated scf accuracy    <       0.00000128 Ry

     iteration # 98     ecut=    50.00 Ry     beta= 0.01
     Davidson diagonalization with overlap
     ethr =  1.60E-08,  avg # of iterations =  1.0

     total cpu time spent up to now is      773.9 secs

     total energy              =     -30.65095242 Ry
     estimated scf accuracy    <       0.00000128 Ry

     iteration # 99     ecut=    50.00 Ry     beta= 0.01
     Davidson diagonalization with overlap
     ethr =  1.60E-08,  avg # of iterations =  2.0

     total cpu time spent up to now is      777.2 secs

     total energy              =     -30.65095476 Ry
     estimated scf accuracy    <       0.00000125 Ry

     iteration #100     ecut=    50.00 Ry     beta= 0.01
     Davidson diagonalization with overlap
     ethr =  1.56E-08,  avg # of iterations =  2.0

     total cpu time spent up to now is      780.7 secs

     total energy              =     -30.65094385 Ry
     estimated scf accuracy    <       0.00000227 Ry

     iteration #101     ecut=    50.00 Ry     beta= 0.01
     Davidson diagonalization with overlap
     ethr =  1.56E-08,  avg # of iterations =  2.0

     total cpu time spent up to now is      784.1 secs

     End of self-consistent calculation

          k = 0.0000 0.0000 0.0000 (  3215 PWs)   bands (ev):

   -15.4519  -3.1444  -3.1444  -3.1444

          k =-0.1000 0.1000-0.1000 (  3203 PWs)   bands (ev):

   -15.4470  -3.2276  -3.1501  -3.1501

          k =-0.2000 0.2000-0.2000 (  3215 PWs)   bands (ev):

   -15.4345  -3.4257  -3.1649  -3.1649

          k =-0.3000 0.3000-0.3000 (  3218 PWs)   bands (ev):

   -15.4188  -3.6414  -3.1828  -3.1828

          k =-0.4000 0.4000-0.4000 (  3220 PWs)   bands (ev):

   -15.4060  -3.7986  -3.1970  -3.1970

          k = 0.5000-0.5000 0.5000 (  3214 PWs)   bands (ev):

   -15.4010  -3.8553  -3.2024  -3.2024

          k = 0.0000 0.2000 0.0000 (  3203 PWs)   bands (ev):

   -15.4454  -3.2244  -3.1676  -3.1676

          k =-0.1000 0.3000-0.1000 (  3213 PWs)   bands (ev):

   -15.4354  -3.3727  -3.1918  -3.1784

          k =-0.2000 0.4000-0.2000 (  3214 PWs)   bands (ev):

   -15.4207  -3.5744  -3.2134  -3.1977

          k =-0.3000 0.5000-0.3000 (  3213 PWs)   bands (ev):

   -15.4069  -3.7424  -3.2257  -3.2241

          k = 0.6000-0.4000 0.6000 (  3210 PWs)   bands (ev):

   -15.3993  -3.8271  -3.2513  -3.2202

          k = 0.5000-0.3000 0.5000 (  3210 PWs)   bands (ev):

   -15.4010  -3.8083  -3.2644  -3.2032

          k = 0.4000-0.2000 0.4000 (  3220 PWs)   bands (ev):

   -15.4112  -3.6914  -3.2587  -3.1794

          k = 0.3000-0.1000 0.3000 (  3223 PWs)   bands (ev):

   -15.4261  -3.5091  -3.2339  -3.1576

          k = 0.2000 0.0000 0.2000 (  3227 PWs)   bands (ev):

   -15.4398  -3.3273  -3.1928  -3.1464

          k = 0.0000 0.4000 0.0000 (  3207 PWs)   bands (ev):

   -15.4285  -3.4107  -3.2277  -3.2277

          k =-0.1000 0.5000-0.1000 (  3218 PWs)   bands (ev):

   -15.4165  -3.5475  -3.2597  -3.2586

          k =-0.2000 0.6000-0.2000 (  3209 PWs)   bands (ev):

   -15.4036  -3.6832  -3.3064  -3.2731

          k = 0.7000-0.3000 0.7000 (  3211 PWs)   bands (ev):

   -15.3950  -3.7606  -3.3625  -3.2661

          k = 0.6000-0.2000 0.6000 (  3200 PWs)   bands (ev):

   -15.3939  -3.7613  -3.4027  -3.2400

          k = 0.5000-0.1000 0.5000 (  3197 PWs)   bands (ev):

   -15.4008  -3.6965  -3.4001  -3.2045

          k = 0.4000 0.0000 0.4000 (  3194 PWs)   bands (ev):

   -15.4130  -3.6022  -3.3361  -3.1729

          k = 0.0000 0.6000 0.0000 (  3222 PWs)   bands (ev):

   -15.4075  -3.6079  -3.3008  -3.3008

          k =-0.1000 0.7000-0.1000 (  3206 PWs)   bands (ev):

   -15.3972  -3.6915  -3.3496  -3.3245

          k = 0.8000-0.2000 0.8000 (  3214 PWs)   bands (ev):

   -15.3896  -3.7256  -3.4347  -3.3213

          k = 0.7000-0.1000 0.7000 (  3213 PWs)   bands (ev):

   -15.3876  -3.6888  -3.5340  -3.2923

          k = 0.6000-0.0000 0.6000 (  3214 PWs)   bands (ev):

   -15.3920  -3.6586  -3.5419  -3.2479

          k = 0.0000 0.8000 0.0000 (  3218 PWs)   bands (ev):

   -15.3903  -3.7488  -3.3591  -3.3591

          k = 0.9000-0.1000 0.9000 (  3232 PWs)   bands (ev):

   -15.3854  -3.7701  -3.4069  -3.3648

          k = 0.8000 0.0000 0.8000 (  3220 PWs)   bands (ev):

   -15.3843  -3.7258  -3.4986  -3.3397

          k = 0.0000-1.0000 0.0000 (  3250 PWs)   bands (ev):

   -15.3839  -3.7992  -3.3812  -3.3812

          k =-0.2000 0.4000 0.0000 (  3216 PWs)   bands (ev):

   -15.4244  -3.4893  -3.2580  -3.1861

          k =-0.3000 0.5000-0.1000 (  3205 PWs)   bands (ev):

   -15.4105  -3.6340  -3.3130  -3.2058

          k = 0.6000-0.4000 0.8000 (  3217 PWs)   bands (ev):

   -15.3994  -3.7474  -3.3411  -3.2316

          k = 0.5000-0.3000 0.7000 (  3214 PWs)   bands (ev):

   -15.3950  -3.7895  -3.3486  -3.2439

          k =-0.2000 0.6000 0.0000 (  3206 PWs)   bands (ev):

   -15.4051  -3.6354  -3.3372  -3.2707

          k = 0.7000-0.3000 0.9000 (  3211 PWs)   bands (ev):

   -15.3950  -3.7012  -3.4056  -3.2939

          k = 0.6000-0.2000 0.8000 (  3206 PWs)   bands (ev):

   -15.3896  -3.7188  -3.4661  -3.2971

          k = 0.5000-0.1000 0.7000 (  3204 PWs)   bands (ev):

   -15.3912  -3.6961  -3.4899  -3.2715

          k = 0.4000 0.0000 0.6000 (  3208 PWs)   bands (ev):

   -15.3993  -3.6694  -3.4304  -3.2335

          k = 0.8000-0.2000 1.0000 (  3210 PWs)   bands (ev):

   -15.3896  -3.7301  -3.4002  -3.3512

          k = 0.7000-0.1000 0.9000 (  3213 PWs)   bands (ev):

   -15.3853  -3.7110  -3.4860  -3.3547

          k = 0.6000 0.0000 0.8000 (  3211 PWs)   bands (ev):

   -15.3860  -3.6291  -3.5950  -3.3211

          k =-0.2000-1.0000 0.0000 (  3218 PWs)   bands (ev):

   -15.3837  -3.7619  -3.4240  -3.3840

          k = 0.6000-0.2000 1.0000 (  3217 PWs)   bands (ev):

   -15.3880  -3.6765  -3.5049  -3.3327

          k = 0.5000-0.1000 0.9000 (  3214 PWs)   bands (ev):

   -15.3853  -3.6399  -3.5636  -3.3544

          k =-0.4000-1.0000 0.0000 (  3216 PWs)   bands (ev):

   -15.3837  -3.6618  -3.5329  -3.3886

     highest occupied level (ev):    -3.1444

!    total energy              =     -30.65097432 Ry
     estimated scf accuracy    <       0.00000092 Ry

     The total energy is the sum of the following terms:
     one-electron contribution =     -15.61958671 Ry
     hartree contribution      =      10.10237429 Ry
     xc contribution           =      -6.19500398 Ry
     ewald contribution        =     -18.93875792 Ry

     convergence has been achieved in 101 iterations
     Writing meta-gga kinetic term

     Writing all to output data dir ./input_pw/LiCl/18/pwscf.save/
     Writing meta-gga kinetic term
 
     init_run     :      6.51s CPU     17.11s WALL (       1 calls)
     electrons    :    711.62s CPU    766.80s WALL (       1 calls)

     Called by init_run:
     wfcinit      :      6.31s CPU     16.21s WALL (       1 calls)
     potinit      :      0.07s CPU      0.32s WALL (       1 calls)
     hinit0       :      0.10s CPU      0.43s WALL (       1 calls)

     Called by electrons:
     c_bands      :    644.02s CPU    695.49s WALL (     101 calls)
     sum_band     :     58.34s CPU     61.55s WALL (     101 calls)
     v_of_rho     :      3.99s CPU      4.56s WALL (     102 calls)
     mix_rho      :      5.21s CPU      5.35s WALL (     101 calls)

     Called by c_bands:
     init_us_2    :      2.24s CPU      2.37s WALL (    9541 calls)
     init_us_2:cp :      2.22s CPU      2.35s WALL (    9541 calls)
     cegterg      :    641.91s CPU    693.28s WALL (    4747 calls)

     Called by *egterg:
     cdiaghg      :      1.34s CPU      1.55s WALL (   34526 calls)
     h_psi        :    637.35s CPU    697.64s WALL (   34573 calls)
     g_psi        :      0.66s CPU      0.71s WALL (   29779 calls)

     Called by h_psi:
     h_psi:calbec :      1.43s CPU      1.55s WALL (   34573 calls)
     vloc_psi     :    158.28s CPU    173.73s WALL (   34573 calls)
     add_vuspsi   :      1.32s CPU      1.42s WALL (   34573 calls)
     h_psi_meta   :    475.68s CPU    520.26s WALL (   34573 calls)

     General routines
     calbec       :      1.35s CPU      1.48s WALL (   34573 calls)
     fft          :      0.77s CPU      0.83s WALL (    1221 calls)
     ffts         :      2.43s CPU      2.51s WALL (    4028 calls)
     fftw         :    617.65s CPU    672.56s WALL ( 1022208 calls)
     interpolate  :      0.01s CPU      0.01s WALL (     102 calls)
 
     Parallel routines
 
     PWSCF        :  11m58.19s CPU  13m 4.12s WALL

 
   This run was terminated on:  14:41:47  14Mar2023            

=------------------------------------------------------------------------------=
   JOB DONE.
=------------------------------------------------------------------------------=
