
     Program PWSCF v.7.0 starts on 29Mar2023 at 11:31: 6 

     This program is part of the open-source Quantum ESPRESSO suite
     for quantum simulation of materials; please cite
         "P. Giannozzi et al., J. Phys.:Condens. Matter 21 395502 (2009);
         "P. Giannozzi et al., J. Phys.:Condens. Matter 29 465901 (2017);
         "P. Giannozzi et al., J. Chem. Phys. 152 154105 (2020);
          URL http://www.quantum-espresso.org", 
     in publications or presentations arising from this work. More details at
     http://www.quantum-espresso.org/quote

     Parallel version (MPI), running on     1 processors

     MPI processes distributed on     1 nodes
     23332 MiB available memory on the printing compute node when the environment starts
 
     Waiting for input...
     Reading input from standard input
Warning: card &CELL ignored
Warning: card / ignored

     Current dimensions of program PWSCF are:
     Max number of different atomic species (ntypx) = 10
     Max number of k-points (npk) =  40000
     Max angular momentum in pseudopotentials (lmaxx) =  4
     file Si.SCAN.UPF2: wavefunction(s)  0D renormalized

     WARNING: the MGGA functional with ID    5 has been 
     read together with other dft terms, but it should 
     stand alone in order to work properly. The other 
     terms will be ignored.

     Subspace diagonalization in iterative solution of the eigenvalue problem:
     a serial algorithm will be used

 
     G-vector sticks info
     --------------------
     sticks:   dense  smooth     PW     G-vecs:    dense   smooth      PW
     Sum        1069    1069    313                22899    22899    3719
 
     Using Slab Decomposition
 


     bravais-lattice index     =            2
     lattice parameter (alat)  =      12.4019  a.u.
     unit-cell volume          =     476.8745 (a.u.)^3
     number of atoms/cell      =            2
     number of atomic types    =            1
     number of electrons       =         8.00
     number of Kohn-Sham states=            4
     kinetic-energy cutoff     =      50.0000  Ry
     charge density cutoff     =     200.0000  Ry
     scf convergence threshold =      1.0E-06
     mixing beta               =       0.0100
     number of iterations used =            8  local-TF  mixing
     Exchange-correlation= SLA  PW   SCAN SCAN
                           (   0   0   0   0   0 263 267)

     celldm(1)=  12.401895  celldm(2)=   0.000000  celldm(3)=   0.000000
     celldm(4)=   0.000000  celldm(5)=   0.000000  celldm(6)=   0.000000

     crystal axes: (cart. coord. in units of alat)
               a(1) = (  -0.500000   0.000000   0.500000 )  
               a(2) = (   0.000000   0.500000   0.500000 )  
               a(3) = (  -0.500000   0.500000   0.000000 )  

     reciprocal axes: (cart. coord. in units 2 pi/alat)
               b(1) = ( -1.000000 -1.000000  1.000000 )  
               b(2) = (  1.000000  1.000000  1.000000 )  
               b(3) = ( -1.000000  1.000000 -1.000000 )  


     PseudoPot. # 1 for Si read from file:
     ~/Documents/TA/PWDFT.jl/pseudopotentials/scan_upf/Si.SCAN.UPF2
     MD5 check sum: Not computed, couldn't open file
     Pseudo is Norm-conserving, Zval =  4.0
     Generated by new atomic code, or converted to UPF format
     Using radial grid of 1475 points,  2 beta functions with: 
                l(1) =   0
                l(2) =   1

     atomic species   valence    mass     pseudopotential
        Si             4.00    28.08550     Si( 1.00)

     48 Sym. Ops., with inversion, found (24 have fractional translation)



   Cartesian axes

     site n.     atom                  positions (alat units)
         1           Si  tau(   1) = (   0.0000000   0.0000000   0.0000000  )
         2           Si  tau(   2) = (   0.2500000   0.2500000   0.2500000  )

     number of k points=    47
                       cart. coord. in units 2pi/alat
        k(    1) = (   0.0000000   0.0000000   0.0000000), wk =   0.0020000
        k(    2) = (  -0.1000000   0.1000000  -0.1000000), wk =   0.0160000
        k(    3) = (  -0.2000000   0.2000000  -0.2000000), wk =   0.0160000
        k(    4) = (  -0.3000000   0.3000000  -0.3000000), wk =   0.0160000
        k(    5) = (  -0.4000000   0.4000000  -0.4000000), wk =   0.0160000
        k(    6) = (   0.5000000  -0.5000000   0.5000000), wk =   0.0080000
        k(    7) = (   0.0000000   0.2000000   0.0000000), wk =   0.0120000
        k(    8) = (  -0.1000000   0.3000000  -0.1000000), wk =   0.0480000
        k(    9) = (  -0.2000000   0.4000000  -0.2000000), wk =   0.0480000
        k(   10) = (  -0.3000000   0.5000000  -0.3000000), wk =   0.0480000
        k(   11) = (   0.6000000  -0.4000000   0.6000000), wk =   0.0480000
        k(   12) = (   0.5000000  -0.3000000   0.5000000), wk =   0.0480000
        k(   13) = (   0.4000000  -0.2000000   0.4000000), wk =   0.0480000
        k(   14) = (   0.3000000  -0.1000000   0.3000000), wk =   0.0480000
        k(   15) = (   0.2000000   0.0000000   0.2000000), wk =   0.0240000
        k(   16) = (   0.0000000   0.4000000   0.0000000), wk =   0.0120000
        k(   17) = (  -0.1000000   0.5000000  -0.1000000), wk =   0.0480000
        k(   18) = (  -0.2000000   0.6000000  -0.2000000), wk =   0.0480000
        k(   19) = (   0.7000000  -0.3000000   0.7000000), wk =   0.0480000
        k(   20) = (   0.6000000  -0.2000000   0.6000000), wk =   0.0480000
        k(   21) = (   0.5000000  -0.1000000   0.5000000), wk =   0.0480000
        k(   22) = (   0.4000000   0.0000000   0.4000000), wk =   0.0240000
        k(   23) = (   0.0000000   0.6000000   0.0000000), wk =   0.0120000
        k(   24) = (  -0.1000000   0.7000000  -0.1000000), wk =   0.0480000
        k(   25) = (   0.8000000  -0.2000000   0.8000000), wk =   0.0480000
        k(   26) = (   0.7000000  -0.1000000   0.7000000), wk =   0.0480000
        k(   27) = (   0.6000000  -0.0000000   0.6000000), wk =   0.0240000
        k(   28) = (   0.0000000   0.8000000   0.0000000), wk =   0.0120000
        k(   29) = (   0.9000000  -0.1000000   0.9000000), wk =   0.0480000
        k(   30) = (   0.8000000   0.0000000   0.8000000), wk =   0.0240000
        k(   31) = (   0.0000000  -1.0000000   0.0000000), wk =   0.0060000
        k(   32) = (  -0.2000000   0.4000000   0.0000000), wk =   0.0480000
        k(   33) = (  -0.3000000   0.5000000  -0.1000000), wk =   0.0960000
        k(   34) = (   0.6000000  -0.4000000   0.8000000), wk =   0.0960000
        k(   35) = (   0.5000000  -0.3000000   0.7000000), wk =   0.0480000
        k(   36) = (  -0.2000000   0.6000000   0.0000000), wk =   0.0480000
        k(   37) = (   0.7000000  -0.3000000   0.9000000), wk =   0.0960000
        k(   38) = (   0.6000000  -0.2000000   0.8000000), wk =   0.0960000
        k(   39) = (   0.5000000  -0.1000000   0.7000000), wk =   0.0960000
        k(   40) = (   0.4000000   0.0000000   0.6000000), wk =   0.0480000
        k(   41) = (   0.8000000  -0.2000000   1.0000000), wk =   0.0480000
        k(   42) = (   0.7000000  -0.1000000   0.9000000), wk =   0.0960000
        k(   43) = (   0.6000000   0.0000000   0.8000000), wk =   0.0480000
        k(   44) = (  -0.2000000  -1.0000000   0.0000000), wk =   0.0240000
        k(   45) = (   0.6000000  -0.2000000   1.0000000), wk =   0.0480000
        k(   46) = (   0.5000000  -0.1000000   0.9000000), wk =   0.0480000
        k(   47) = (  -0.4000000  -1.0000000   0.0000000), wk =   0.0240000

     Dense  grid:    22899 G-vectors     FFT dimensions: (  40,  40,  40)

     Estimated max dynamical RAM per process >      42.05 MB

     WARNING: libxc functional with ID  263 depends
      on external parameters: check the user_guide of
      QE if you need to modify them or to check their
      default values.

     Initial potential from superposition of free atoms

     starting charge       7.9990, renormalised to       8.0000
     Starting wfcs are   18 randomized atomic wfcs

     total cpu time spent up to now is       11.0 secs

     Self-consistent Calculation

     iteration #  1     ecut=    50.00 Ry     beta= 0.01
     Davidson diagonalization with overlap
     ethr =  1.00E-02,  avg # of iterations =  1.1

     Threshold (ethr) on eigenvalues was too large:
     Diagonalizing with lowered threshold

     Davidson diagonalization with overlap
     ethr =  3.61E-04,  avg # of iterations =  2.0

     total cpu time spent up to now is       25.4 secs

     total energy              =     -15.53561389 Ry
     estimated scf accuracy    <       0.03073322 Ry

     iteration #  2     ecut=    50.00 Ry     beta= 0.01
     Davidson diagonalization with overlap
     ethr =  3.84E-04,  avg # of iterations =  1.0

     total cpu time spent up to now is       32.3 secs

     total energy              =     -15.48005826 Ry
     estimated scf accuracy    <       0.03088210 Ry

     iteration #  3     ecut=    50.00 Ry     beta= 0.01
     Davidson diagonalization with overlap
     ethr =  3.84E-04,  avg # of iterations =  2.0

     total cpu time spent up to now is       40.8 secs

     total energy              =     -15.55047375 Ry
     estimated scf accuracy    <       0.05209809 Ry

     iteration #  4     ecut=    50.00 Ry     beta= 0.01
     Davidson diagonalization with overlap
     ethr =  3.84E-04,  avg # of iterations =  2.0

     total cpu time spent up to now is       46.8 secs

     total energy              =     -15.56003653 Ry
     estimated scf accuracy    <       0.00641206 Ry

     iteration #  5     ecut=    50.00 Ry     beta= 0.01
     Davidson diagonalization with overlap
     ethr =  8.02E-05,  avg # of iterations =  1.5

     total cpu time spent up to now is       50.8 secs

     total energy              =     -15.56051450 Ry
     estimated scf accuracy    <       0.00315245 Ry

     iteration #  6     ecut=    50.00 Ry     beta= 0.01
     Davidson diagonalization with overlap
     ethr =  3.94E-05,  avg # of iterations =  1.0

     total cpu time spent up to now is       54.9 secs

     total energy              =     -15.56005518 Ry
     estimated scf accuracy    <       0.00296379 Ry

     iteration #  7     ecut=    50.00 Ry     beta= 0.01
     Davidson diagonalization with overlap
     ethr =  3.70E-05,  avg # of iterations =  1.0

     total cpu time spent up to now is       58.7 secs

     total energy              =     -15.56041806 Ry
     estimated scf accuracy    <       0.00538213 Ry

     iteration #  8     ecut=    50.00 Ry     beta= 0.01
     Davidson diagonalization with overlap
     ethr =  3.70E-05,  avg # of iterations =  1.8

     total cpu time spent up to now is       62.4 secs

     total energy              =     -15.56068429 Ry
     estimated scf accuracy    <       0.00048578 Ry

     iteration #  9     ecut=    50.00 Ry     beta= 0.01
     Davidson diagonalization with overlap
     ethr =  6.07E-06,  avg # of iterations =  1.0

     total cpu time spent up to now is       65.9 secs

     total energy              =     -15.56069440 Ry
     estimated scf accuracy    <       0.00047387 Ry

     iteration # 10     ecut=    50.00 Ry     beta= 0.01
     Davidson diagonalization with overlap
     ethr =  5.92E-06,  avg # of iterations =  1.0

     total cpu time spent up to now is       69.3 secs

     total energy              =     -15.56069658 Ry
     estimated scf accuracy    <       0.00047379 Ry

     iteration # 11     ecut=    50.00 Ry     beta= 0.01
     Davidson diagonalization with overlap
     ethr =  5.92E-06,  avg # of iterations =  1.0

     total cpu time spent up to now is       72.2 secs

     total energy              =     -15.56064012 Ry
     estimated scf accuracy    <       0.00047787 Ry

     iteration # 12     ecut=    50.00 Ry     beta= 0.01
     Davidson diagonalization with overlap
     ethr =  5.92E-06,  avg # of iterations =  1.0

     total cpu time spent up to now is       74.3 secs

     total energy              =     -15.56063920 Ry
     estimated scf accuracy    <       0.00017755 Ry

     iteration # 13     ecut=    50.00 Ry     beta= 0.01
     Davidson diagonalization with overlap
     ethr =  2.22E-06,  avg # of iterations =  2.1

     total cpu time spent up to now is       76.5 secs

     total energy              =     -15.56067366 Ry
     estimated scf accuracy    <       0.00001540 Ry

     iteration # 14     ecut=    50.00 Ry     beta= 0.01
     Davidson diagonalization with overlap
     ethr =  1.93E-07,  avg # of iterations =  2.0

     total cpu time spent up to now is       78.1 secs

     total energy              =     -15.56067982 Ry
     estimated scf accuracy    <       0.00001307 Ry

     iteration # 15     ecut=    50.00 Ry     beta= 0.01
     Davidson diagonalization with overlap
     ethr =  1.63E-07,  avg # of iterations =  1.0

     total cpu time spent up to now is       79.6 secs

     total energy              =     -15.56066954 Ry
     estimated scf accuracy    <       0.00001515 Ry

     iteration # 16     ecut=    50.00 Ry     beta= 0.01
     Davidson diagonalization with overlap
     ethr =  1.63E-07,  avg # of iterations =  2.3

     total cpu time spent up to now is       81.7 secs

     total energy              =     -15.56067396 Ry
     estimated scf accuracy    <       0.00002548 Ry

     iteration # 17     ecut=    50.00 Ry     beta= 0.01
     Davidson diagonalization with overlap
     ethr =  1.63E-07,  avg # of iterations =  1.0

     total cpu time spent up to now is       83.2 secs

     total energy              =     -15.56067036 Ry
     estimated scf accuracy    <       0.00002750 Ry

     iteration # 18     ecut=    50.00 Ry     beta= 0.01
     Davidson diagonalization with overlap
     ethr =  1.63E-07,  avg # of iterations =  1.1

     total cpu time spent up to now is       84.7 secs

     total energy              =     -15.56067337 Ry
     estimated scf accuracy    <       0.00001485 Ry

     iteration # 19     ecut=    50.00 Ry     beta= 0.01
     Davidson diagonalization with overlap
     ethr =  1.63E-07,  avg # of iterations =  2.1

     total cpu time spent up to now is       86.8 secs

     total energy              =     -15.56067819 Ry
     estimated scf accuracy    <       0.00002814 Ry

     iteration # 20     ecut=    50.00 Ry     beta= 0.01
     Davidson diagonalization with overlap
     ethr =  1.63E-07,  avg # of iterations =  1.0

     total cpu time spent up to now is       88.3 secs

     total energy              =     -15.56067740 Ry
     estimated scf accuracy    <       0.00002087 Ry

     iteration # 21     ecut=    50.00 Ry     beta= 0.01
     Davidson diagonalization with overlap
     ethr =  1.63E-07,  avg # of iterations =  1.0

     total cpu time spent up to now is       89.7 secs

     total energy              =     -15.56068361 Ry
     estimated scf accuracy    <       0.00001814 Ry

     iteration # 22     ecut=    50.00 Ry     beta= 0.01
     Davidson diagonalization with overlap
     ethr =  1.63E-07,  avg # of iterations =  2.0

     total cpu time spent up to now is       91.8 secs

     End of self-consistent calculation

          k = 0.0000 0.0000 0.0000 (  2741 PWs)   bands (ev):

    -7.8845  -0.0449   1.4755   1.4755

          k =-0.1000 0.1000-0.1000 (  2803 PWs)   bands (ev):

    -7.8029  -0.6871   1.3651   1.3651

          k =-0.2000 0.2000-0.2000 (  2830 PWs)   bands (ev):

    -7.5654  -1.7818   1.1301   1.1301

          k =-0.3000 0.3000-0.3000 (  2845 PWs)   bands (ev):

    -7.2001  -2.8494   0.9034   0.9034

          k =-0.4000 0.4000-0.4000 (  2851 PWs)   bands (ev):

    -6.7929  -3.7020   0.7513   0.7513

          k = 0.5000-0.5000 0.5000 (  2884 PWs)   bands (ev):

    -6.5817  -4.0652   0.6985   0.6985

          k = 0.0000 0.2000 0.0000 (  2814 PWs)   bands (ev):

    -7.7753  -0.8103   1.1794   1.1794

          k =-0.1000 0.3000-0.1000 (  2822 PWs)   bands (ev):

    -7.5881  -1.6275   0.9111   0.9185

          k =-0.2000 0.4000-0.2000 (  2850 PWs)   bands (ev):

    -7.2602  -2.6224   0.5827   0.7016

          k =-0.3000 0.5000-0.3000 (  2847 PWs)   bands (ev):

    -6.8494  -3.5207   0.2951   0.5820

          k = 0.6000-0.4000 0.6000 (  2855 PWs)   bands (ev):

    -6.5323  -4.0701   0.1154   0.5768

          k = 0.5000-0.3000 0.5000 (  2848 PWs)   bands (ev):

    -6.6097  -3.9446   0.0714   0.6833

          k = 0.4000-0.2000 0.4000 (  2853 PWs)   bands (ev):

    -6.9911  -3.2412   0.1767   0.8830

          k = 0.3000-0.1000 0.3000 (  2841 PWs)   bands (ev):

    -7.3849  -2.2944   0.4416   1.1326

          k = 0.2000 0.0000 0.2000 (  2828 PWs)   bands (ev):

    -7.6688  -1.3392   0.8733   1.3396

          k = 0.0000 0.4000 0.0000 (  2850 PWs)   bands (ev):

    -7.4512  -2.0010   0.6413   0.6413

          k =-0.1000 0.5000-0.1000 (  2851 PWs)   bands (ev):

    -7.1657  -2.7261   0.2962   0.4160

          k =-0.2000 0.6000-0.2000 (  2850 PWs)   bands (ev):

    -6.7692  -3.5214  -0.1237   0.2974

          k = 0.7000-0.3000 0.7000 (  2852 PWs)   bands (ev):

    -6.3819  -4.1459  -0.4506   0.3039

          k = 0.6000-0.2000 0.6000 (  2856 PWs)   bands (ev):

    -6.3160  -4.2407  -0.6025   0.4324

          k = 0.5000-0.1000 0.5000 (  2846 PWs)   bands (ev):

    -6.6523  -3.7289  -0.5332   0.6593

          k = 0.4000 0.0000 0.4000 (  2848 PWs)   bands (ev):

    -7.0635  -2.9933  -0.1942   0.9294

          k = 0.0000 0.6000 0.0000 (  2854 PWs)   bands (ev):

    -6.9218  -3.1876   0.1728   0.1728

          k =-0.1000 0.7000-0.1000 (  2845 PWs)   bands (ev):

    -6.5507  -3.8133  -0.1616   0.0353

          k = 0.8000-0.2000 0.8000 (  2849 PWs)   bands (ev):

    -6.1267  -4.4042  -0.5980   0.0270

          k = 0.7000-0.1000 0.7000 (  2852 PWs)   bands (ev):

    -5.9356  -4.6366  -0.8861   0.1482

          k = 0.6000-0.0000 0.6000 (  2844 PWs)   bands (ev):

    -6.2359  -4.2692  -0.8906   0.3773

          k = 0.0000 0.8000 0.0000 (  2854 PWs)   bands (ev):

    -6.2043  -4.3062  -0.1290  -0.1290

          k = 0.9000-0.1000 0.9000 (  2848 PWs)   bands (ev):

    -5.7681  -4.8361  -0.4000  -0.1648

          k = 0.8000 0.0000 0.8000 (  2854 PWs)   bands (ev):

    -5.5528  -5.0570  -0.7628  -0.0669

          k = 0.0000-1.0000 0.0000 (  2874 PWs)   bands (ev):

    -5.3225  -5.3225  -0.2324  -0.2324

          k =-0.2000 0.4000 0.0000 (  2835 PWs)   bands (ev):

    -7.3528  -2.3158   0.3321   0.8500

          k =-0.3000 0.5000-0.1000 (  2854 PWs)   bands (ev):

    -6.9887  -3.1446  -0.0910   0.6457

          k = 0.6000-0.4000 0.8000 (  2845 PWs)   bands (ev):

    -6.5759  -3.8868  -0.3314   0.4625

          k = 0.5000-0.3000 0.7000 (  2846 PWs)   bands (ev):

    -6.3552  -4.2250  -0.4082   0.3928

          k =-0.2000 0.6000 0.0000 (  2844 PWs)   bands (ev):

    -6.8394  -3.3535  -0.1147   0.2581

          k = 0.7000-0.3000 0.9000 (  2842 PWs)   bands (ev):

    -6.4226  -4.0149  -0.4899   0.0950

          k = 0.6000-0.2000 0.8000 (  2853 PWs)   bands (ev):

    -6.0881  -4.4675  -0.7401   0.0653

          k = 0.5000-0.1000 0.7000 (  2855 PWs)   bands (ev):

    -6.1968  -4.3268  -0.7933   0.1910

          k = 0.4000 0.0000 0.6000 (  2841 PWs)   bands (ev):

    -6.6013  -3.7630  -0.5880   0.4232

          k = 0.8000-0.2000 1.0000 (  2846 PWs)   bands (ev):

    -6.1492  -4.3668  -0.3660  -0.1746

          k = 0.7000-0.1000 0.9000 (  2855 PWs)   bands (ev):

    -5.7376  -4.8476  -0.6953  -0.2242

          k = 0.6000 0.0000 0.8000 (  2844 PWs)   bands (ev):

    -5.7862  -4.7881  -0.9021  -0.0750

          k =-0.2000-1.0000 0.0000 (  2850 PWs)   bands (ev):

    -5.3124  -5.3124  -0.3883  -0.3883

          k = 0.6000-0.2000 1.0000 (  2842 PWs)   bands (ev):

    -5.9978  -4.5399  -0.7367  -0.1837

          k = 0.5000-0.1000 0.9000 (  2844 PWs)   bands (ev):

    -5.7177  -4.8559  -0.8100  -0.3132

          k =-0.4000-1.0000 0.0000 (  2842 PWs)   bands (ev):

    -5.2957  -5.2957  -0.5999  -0.5999

     highest occupied level (ev):     1.4755

!    total energy              =     -15.56068596 Ry
     estimated scf accuracy    <       0.00000059 Ry

     The total energy is the sum of the following terms:
     one-electron contribution =       0.99981788 Ry
     hartree contribution      =       1.64062555 Ry
     xc contribution           =      -4.30183874 Ry
     ewald contribution        =     -13.89929065 Ry

     convergence has been achieved in  22 iterations
     Writing meta-gga kinetic term

     Writing all to output data dir ./input_pw/Si/15/pwscf.save/
     Writing meta-gga kinetic term
 
     init_run     :      5.39s CPU     10.93s WALL (       1 calls)
     electrons    :     60.69s CPU     80.77s WALL (       1 calls)

     Called by init_run:
     wfcinit      :      5.24s CPU     10.53s WALL (       1 calls)
     potinit      :      0.05s CPU      0.17s WALL (       1 calls)
     hinit0       :      0.07s CPU      0.17s WALL (       1 calls)

     Called by electrons:
     c_bands      :     47.99s CPU     64.41s WALL (      23 calls)
     sum_band     :     11.32s CPU     14.70s WALL (      23 calls)
     v_of_rho     :      0.77s CPU      1.04s WALL (      23 calls)
     mix_rho      :      0.63s CPU      0.74s WALL (      23 calls)

     Called by c_bands:
     init_us_2    :      0.59s CPU      0.79s WALL (    2209 calls)
     init_us_2:cp :      0.58s CPU      0.79s WALL (    2209 calls)
     cegterg      :     47.29s CPU     63.40s WALL (    1081 calls)

     Called by *egterg:
     cdiaghg      :      0.12s CPU      0.17s WALL (    2585 calls)
     h_psi        :     51.57s CPU     72.42s WALL (    2679 calls)
     g_psi        :      0.04s CPU      0.04s WALL (    1551 calls)

     Called by h_psi:
     h_psi:calbec :      0.19s CPU      0.33s WALL (    2679 calls)
     vloc_psi     :     12.73s CPU     17.97s WALL (    2679 calls)
     add_vuspsi   :      0.17s CPU      0.29s WALL (    2679 calls)
     h_psi_meta   :     38.41s CPU     53.76s WALL (    2679 calls)

     General routines
     calbec       :      0.19s CPU      0.31s WALL (    2679 calls)
     fft          :      0.14s CPU      0.24s WALL (     275 calls)
     ffts         :      0.23s CPU      0.30s WALL (     441 calls)
     fftw         :     53.16s CPU     73.60s WALL (  104248 calls)
     interpolate  :      0.00s CPU      0.00s WALL (      23 calls)
 
     Parallel routines
 
     PWSCF        :   1m 6.11s CPU   1m31.77s WALL

 
   This run was terminated on:  11:32:38  29Mar2023            

=------------------------------------------------------------------------------=
   JOB DONE.
=------------------------------------------------------------------------------=
