
     Program PWSCF v.7.0 starts on 21Feb2023 at 12:49:40 

     This program is part of the open-source Quantum ESPRESSO suite
     for quantum simulation of materials; please cite
         "P. Giannozzi et al., J. Phys.:Condens. Matter 21 395502 (2009);
         "P. Giannozzi et al., J. Phys.:Condens. Matter 29 465901 (2017);
         "P. Giannozzi et al., J. Chem. Phys. 152 154105 (2020);
          URL http://www.quantum-espresso.org", 
     in publications or presentations arising from this work. More details at
     http://www.quantum-espresso.org/quote

     Parallel version (MPI), running on     1 processors

     MPI processes distributed on     1 nodes
     3385 MiB available memory on the printing compute node when the environment starts
 
     Waiting for input...
     Reading input from standard input
Warning: card &CELL ignored
Warning: card / ignored

     Current dimensions of program PWSCF are:
     Max number of different atomic species (ntypx) = 10
     Max number of k-points (npk) =  40000
     Max angular momentum in pseudopotentials (lmaxx) =  4
     file Si.SCAN.UPF2: wavefunction(s)  0D renormalized

     WARNING: the MGGA functional with ID    5 has been 
     read together with other dft terms, but it should 
     stand alone in order to work properly. The other 
     terms will be ignored.

     Subspace diagonalization in iterative solution of the eigenvalue problem:
     a serial algorithm will be used

 
     G-vector sticks info
     --------------------
     sticks:   dense  smooth     PW     G-vecs:    dense   smooth      PW
     Sum        1039    1039    313                22219    22219    3695
 
     Using Slab Decomposition
 


     bravais-lattice index     =            2
     lattice parameter (alat)  =      12.2977  a.u.
     unit-cell volume          =     464.9558 (a.u.)^3
     number of atoms/cell      =            2
     number of atomic types    =            1
     number of electrons       =         8.00
     number of Kohn-Sham states=            4
     kinetic-energy cutoff     =      50.0000  Ry
     charge density cutoff     =     200.0000  Ry
     scf convergence threshold =      1.0E-06
     mixing beta               =       0.0100
     number of iterations used =            8  local-TF  mixing
     Exchange-correlation= SLA  PW   SCAN SCAN
                           (   0   0   0   0   0 263 267)

     celldm(1)=  12.297700  celldm(2)=   0.000000  celldm(3)=   0.000000
     celldm(4)=   0.000000  celldm(5)=   0.000000  celldm(6)=   0.000000

     crystal axes: (cart. coord. in units of alat)
               a(1) = (  -0.500000   0.000000   0.500000 )  
               a(2) = (   0.000000   0.500000   0.500000 )  
               a(3) = (  -0.500000   0.500000   0.000000 )  

     reciprocal axes: (cart. coord. in units 2 pi/alat)
               b(1) = ( -1.000000 -1.000000  1.000000 )  
               b(2) = (  1.000000  1.000000  1.000000 )  
               b(3) = ( -1.000000  1.000000 -1.000000 )  


     PseudoPot. # 1 for Si read from file:
     ~/Documents/TA/PWDFT.jl/pseudopotentials/scan_upf/Si.SCAN.UPF2
     MD5 check sum: Not computed, couldn't open file
     Pseudo is Norm-conserving, Zval =  4.0
     Generated by new atomic code, or converted to UPF format
     Using radial grid of 1475 points,  2 beta functions with: 
                l(1) =   0
                l(2) =   1

     atomic species   valence    mass     pseudopotential
        Si             4.00    28.08550     Si( 1.00)

     48 Sym. Ops., with inversion, found (24 have fractional translation)



   Cartesian axes

     site n.     atom                  positions (alat units)
         1           Si  tau(   1) = (   0.0000000   0.0000000   0.0000000  )
         2           Si  tau(   2) = (   0.2500000   0.2500000   0.2500000  )

     number of k points=    47
                       cart. coord. in units 2pi/alat
        k(    1) = (   0.0000000   0.0000000   0.0000000), wk =   0.0020000
        k(    2) = (  -0.1000000   0.1000000  -0.1000000), wk =   0.0160000
        k(    3) = (  -0.2000000   0.2000000  -0.2000000), wk =   0.0160000
        k(    4) = (  -0.3000000   0.3000000  -0.3000000), wk =   0.0160000
        k(    5) = (  -0.4000000   0.4000000  -0.4000000), wk =   0.0160000
        k(    6) = (   0.5000000  -0.5000000   0.5000000), wk =   0.0080000
        k(    7) = (   0.0000000   0.2000000   0.0000000), wk =   0.0120000
        k(    8) = (  -0.1000000   0.3000000  -0.1000000), wk =   0.0480000
        k(    9) = (  -0.2000000   0.4000000  -0.2000000), wk =   0.0480000
        k(   10) = (  -0.3000000   0.5000000  -0.3000000), wk =   0.0480000
        k(   11) = (   0.6000000  -0.4000000   0.6000000), wk =   0.0480000
        k(   12) = (   0.5000000  -0.3000000   0.5000000), wk =   0.0480000
        k(   13) = (   0.4000000  -0.2000000   0.4000000), wk =   0.0480000
        k(   14) = (   0.3000000  -0.1000000   0.3000000), wk =   0.0480000
        k(   15) = (   0.2000000   0.0000000   0.2000000), wk =   0.0240000
        k(   16) = (   0.0000000   0.4000000   0.0000000), wk =   0.0120000
        k(   17) = (  -0.1000000   0.5000000  -0.1000000), wk =   0.0480000
        k(   18) = (  -0.2000000   0.6000000  -0.2000000), wk =   0.0480000
        k(   19) = (   0.7000000  -0.3000000   0.7000000), wk =   0.0480000
        k(   20) = (   0.6000000  -0.2000000   0.6000000), wk =   0.0480000
        k(   21) = (   0.5000000  -0.1000000   0.5000000), wk =   0.0480000
        k(   22) = (   0.4000000   0.0000000   0.4000000), wk =   0.0240000
        k(   23) = (   0.0000000   0.6000000   0.0000000), wk =   0.0120000
        k(   24) = (  -0.1000000   0.7000000  -0.1000000), wk =   0.0480000
        k(   25) = (   0.8000000  -0.2000000   0.8000000), wk =   0.0480000
        k(   26) = (   0.7000000  -0.1000000   0.7000000), wk =   0.0480000
        k(   27) = (   0.6000000  -0.0000000   0.6000000), wk =   0.0240000
        k(   28) = (   0.0000000   0.8000000   0.0000000), wk =   0.0120000
        k(   29) = (   0.9000000  -0.1000000   0.9000000), wk =   0.0480000
        k(   30) = (   0.8000000   0.0000000   0.8000000), wk =   0.0240000
        k(   31) = (   0.0000000  -1.0000000   0.0000000), wk =   0.0060000
        k(   32) = (  -0.2000000   0.4000000   0.0000000), wk =   0.0480000
        k(   33) = (  -0.3000000   0.5000000  -0.1000000), wk =   0.0960000
        k(   34) = (   0.6000000  -0.4000000   0.8000000), wk =   0.0960000
        k(   35) = (   0.5000000  -0.3000000   0.7000000), wk =   0.0480000
        k(   36) = (  -0.2000000   0.6000000   0.0000000), wk =   0.0480000
        k(   37) = (   0.7000000  -0.3000000   0.9000000), wk =   0.0960000
        k(   38) = (   0.6000000  -0.2000000   0.8000000), wk =   0.0960000
        k(   39) = (   0.5000000  -0.1000000   0.7000000), wk =   0.0960000
        k(   40) = (   0.4000000   0.0000000   0.6000000), wk =   0.0480000
        k(   41) = (   0.8000000  -0.2000000   1.0000000), wk =   0.0480000
        k(   42) = (   0.7000000  -0.1000000   0.9000000), wk =   0.0960000
        k(   43) = (   0.6000000   0.0000000   0.8000000), wk =   0.0480000
        k(   44) = (  -0.2000000  -1.0000000   0.0000000), wk =   0.0240000
        k(   45) = (   0.6000000  -0.2000000   1.0000000), wk =   0.0480000
        k(   46) = (   0.5000000  -0.1000000   0.9000000), wk =   0.0480000
        k(   47) = (  -0.4000000  -1.0000000   0.0000000), wk =   0.0240000

     Dense  grid:    22219 G-vectors     FFT dimensions: (  40,  40,  40)

     Estimated max dynamical RAM per process >      41.07 MB

     WARNING: libxc functional with ID  263 depends
      on external parameters: check the user_guide of
      QE if you need to modify them or to check their
      default values.

     Initial potential from superposition of free atoms

     starting charge       7.9990, renormalised to       8.0000
     Starting wfcs are   18 randomized atomic wfcs

     total cpu time spent up to now is       11.2 secs

     Self-consistent Calculation

     iteration #  1     ecut=    50.00 Ry     beta= 0.01
     Davidson diagonalization with overlap
     ethr =  1.00E-02,  avg # of iterations =  1.1

     Threshold (ethr) on eigenvalues was too large:
     Diagonalizing with lowered threshold

     Davidson diagonalization with overlap
     ethr =  3.71E-04,  avg # of iterations =  2.0

     total cpu time spent up to now is       25.5 secs

     total energy              =     -15.54643199 Ry
     estimated scf accuracy    <       0.03159848 Ry

     iteration #  2     ecut=    50.00 Ry     beta= 0.01
     Davidson diagonalization with overlap
     ethr =  3.95E-04,  avg # of iterations =  1.0

     total cpu time spent up to now is       31.8 secs

     total energy              =     -15.50989007 Ry
     estimated scf accuracy    <       0.03172926 Ry

     iteration #  3     ecut=    50.00 Ry     beta= 0.01
     Davidson diagonalization with overlap
     ethr =  3.95E-04,  avg # of iterations =  2.0

     total cpu time spent up to now is       39.4 secs

     total energy              =     -15.56686669 Ry
     estimated scf accuracy    <       0.04988737 Ry

     iteration #  4     ecut=    50.00 Ry     beta= 0.01
     Davidson diagonalization with overlap
     ethr =  3.95E-04,  avg # of iterations =  2.0

     total cpu time spent up to now is       43.6 secs

     total energy              =     -15.57242767 Ry
     estimated scf accuracy    <       0.00504891 Ry

     iteration #  5     ecut=    50.00 Ry     beta= 0.01
     Davidson diagonalization with overlap
     ethr =  6.31E-05,  avg # of iterations =  1.0

     total cpu time spent up to now is       47.4 secs

     total energy              =     -15.57269690 Ry
     estimated scf accuracy    <       0.00332545 Ry

     iteration #  6     ecut=    50.00 Ry     beta= 0.01
     Davidson diagonalization with overlap
     ethr =  4.16E-05,  avg # of iterations =  1.0

     total cpu time spent up to now is       51.3 secs

     total energy              =     -15.57216489 Ry
     estimated scf accuracy    <       0.00313550 Ry

     iteration #  7     ecut=    50.00 Ry     beta= 0.01
     Davidson diagonalization with overlap
     ethr =  3.92E-05,  avg # of iterations =  1.0

     total cpu time spent up to now is       54.7 secs

     total energy              =     -15.57249193 Ry
     estimated scf accuracy    <       0.00647408 Ry

     iteration #  8     ecut=    50.00 Ry     beta= 0.01
     Davidson diagonalization with overlap
     ethr =  3.92E-05,  avg # of iterations =  2.0

     total cpu time spent up to now is       58.7 secs

     total energy              =     -15.57285047 Ry
     estimated scf accuracy    <       0.00030112 Ry

     iteration #  9     ecut=    50.00 Ry     beta= 0.01
     Davidson diagonalization with overlap
     ethr =  3.76E-06,  avg # of iterations =  1.0

     total cpu time spent up to now is       62.3 secs

     total energy              =     -15.57285777 Ry
     estimated scf accuracy    <       0.00030319 Ry

     iteration # 10     ecut=    50.00 Ry     beta= 0.01
     Davidson diagonalization with overlap
     ethr =  3.76E-06,  avg # of iterations =  1.0

     total cpu time spent up to now is       65.3 secs

     total energy              =     -15.57285657 Ry
     estimated scf accuracy    <       0.00029803 Ry

     iteration # 11     ecut=    50.00 Ry     beta= 0.01
     Davidson diagonalization with overlap
     ethr =  3.73E-06,  avg # of iterations =  1.0

     total cpu time spent up to now is       67.8 secs

     total energy              =     -15.57283365 Ry
     estimated scf accuracy    <       0.00023246 Ry

     iteration # 12     ecut=    50.00 Ry     beta= 0.01
     Davidson diagonalization with overlap
     ethr =  2.91E-06,  avg # of iterations =  1.7

     total cpu time spent up to now is       69.5 secs

     total energy              =     -15.57285657 Ry
     estimated scf accuracy    <       0.00000715 Ry

     iteration # 13     ecut=    50.00 Ry     beta= 0.01
     Davidson diagonalization with overlap
     ethr =  8.94E-08,  avg # of iterations =  3.1

     total cpu time spent up to now is       71.7 secs

     total energy              =     -15.57286052 Ry
     estimated scf accuracy    <       0.00000343 Ry

     iteration # 14     ecut=    50.00 Ry     beta= 0.01
     Davidson diagonalization with overlap
     ethr =  4.29E-08,  avg # of iterations =  1.0

     total cpu time spent up to now is       73.2 secs

     total energy              =     -15.57286114 Ry
     estimated scf accuracy    <       0.00000315 Ry

     iteration # 15     ecut=    50.00 Ry     beta= 0.01
     Davidson diagonalization with overlap
     ethr =  3.93E-08,  avg # of iterations =  3.1

     total cpu time spent up to now is       75.6 secs

     End of self-consistent calculation

          k = 0.0000 0.0000 0.0000 (  2733 PWs)   bands (ev):

    -7.8290   0.3086   1.6261   1.6261

          k =-0.1000 0.1000-0.1000 (  2746 PWs)   bands (ev):

    -7.7454  -0.4113   1.5128   1.5128

          k =-0.2000 0.2000-0.2000 (  2773 PWs)   bands (ev):

    -7.5014  -1.5675   1.2721   1.2721

          k =-0.3000 0.3000-0.3000 (  2788 PWs)   bands (ev):

    -7.1257  -2.6770   1.0405   1.0405

          k =-0.4000 0.4000-0.4000 (  2797 PWs)   bands (ev):

    -6.7056  -3.5597   0.8853   0.8853

          k = 0.5000-0.5000 0.5000 (  2788 PWs)   bands (ev):

    -6.4864  -3.9362   0.8315   0.8315

          k = 0.0000 0.2000 0.0000 (  2758 PWs)   bands (ev):

    -7.7171  -0.5371   1.3211   1.3211

          k =-0.1000 0.3000-0.1000 (  2769 PWs)   bands (ev):

    -7.5249  -1.3986   1.0500   1.0535

          k =-0.2000 0.4000-0.2000 (  2778 PWs)   bands (ev):

    -7.1878  -2.4352   0.7179   0.8319

          k =-0.3000 0.5000-0.3000 (  2773 PWs)   bands (ev):

    -6.7646  -3.3664   0.4258   0.7104

          k = 0.6000-0.4000 0.6000 (  2782 PWs)   bands (ev):

    -6.4363  -3.9360   0.2423   0.7059

          k = 0.5000-0.3000 0.5000 (  2789 PWs)   bands (ev):

    -6.5166  -3.8058   0.1953   0.8155

          k = 0.4000-0.2000 0.4000 (  2773 PWs)   bands (ev):

    -6.9107  -3.0770   0.2993   1.0202

          k = 0.3000-0.1000 0.3000 (  2779 PWs)   bands (ev):

    -7.3160  -2.0950   0.5659   1.2759

          k = 0.2000 0.0000 0.2000 (  2759 PWs)   bands (ev):

    -7.6076  -1.0995   1.0060   1.4878

          k = 0.0000 0.4000 0.0000 (  2778 PWs)   bands (ev):

    -7.3844  -1.7797   0.7689   0.7689

          k =-0.1000 0.5000-0.1000 (  2779 PWs)   bands (ev):

    -7.0912  -2.5309   0.4163   0.5383

          k =-0.2000 0.6000-0.2000 (  2773 PWs)   bands (ev):

    -6.6832  -3.3544  -0.0125   0.4175

          k = 0.7000-0.3000 0.7000 (  2778 PWs)   bands (ev):

    -6.2832  -4.0012  -0.3470   0.4249

          k = 0.6000-0.2000 0.6000 (  2782 PWs)   bands (ev):

    -6.2146  -4.0999  -0.5041   0.5573

          k = 0.5000-0.1000 0.5000 (  2775 PWs)   bands (ev):

    -6.5622  -3.5702  -0.4362   0.7904

          k = 0.4000 0.0000 0.4000 (  2786 PWs)   bands (ev):

    -6.9856  -2.8118  -0.0903   1.0676

          k = 0.0000 0.6000 0.0000 (  2778 PWs)   bands (ev):

    -6.8410  -3.0034   0.2892   0.2892

          k =-0.1000 0.7000-0.1000 (  2778 PWs)   bands (ev):

    -6.4596  -3.6478  -0.0549   0.1486

          k = 0.8000-0.2000 0.8000 (  2772 PWs)   bands (ev):

    -6.0227  -4.2568  -0.5047   0.1406

          k = 0.7000-0.1000 0.7000 (  2775 PWs)   bands (ev):

    -5.8242  -4.4978  -0.8022   0.2652

          k = 0.6000-0.0000 0.6000 (  2764 PWs)   bands (ev):

    -6.1336  -4.1208  -0.8072   0.5005

          k = 0.0000 0.8000 0.0000 (  2790 PWs)   bands (ev):

    -6.1041  -4.1538  -0.0197  -0.0197

          k = 0.9000-0.1000 0.9000 (  2780 PWs)   bands (ev):

    -5.6556  -4.6984  -0.3000  -0.0561

          k = 0.8000 0.0000 0.8000 (  2804 PWs)   bands (ev):

    -5.4320  -4.9269  -0.6759   0.0445

          k = 0.0000-1.0000 0.0000 (  2778 PWs)   bands (ev):

    -5.1983  -5.1983  -0.1253  -0.1253

          k =-0.2000 0.4000 0.0000 (  2783 PWs)   bands (ev):

    -7.2832  -2.1107   0.4505   0.9868

          k =-0.3000 0.5000-0.1000 (  2771 PWs)   bands (ev):

    -6.9088  -2.9682   0.0188   0.7767

          k = 0.6000-0.4000 0.8000 (  2772 PWs)   bands (ev):

    -6.4831  -3.7366  -0.2236   0.5877

          k = 0.5000-0.3000 0.7000 (  2776 PWs)   bands (ev):

    -6.2544  -4.0874  -0.3006   0.5158

          k =-0.2000 0.6000 0.0000 (  2776 PWs)   bands (ev):

    -6.7559  -3.1764  -0.0075   0.3771

          k = 0.7000-0.3000 0.9000 (  2777 PWs)   bands (ev):

    -6.3269  -3.8580  -0.3925   0.2088

          k = 0.6000-0.2000 0.8000 (  2778 PWs)   bands (ev):

    -5.9811  -4.3258  -0.6495   0.1782

          k = 0.5000-0.1000 0.7000 (  2769 PWs)   bands (ev):

    -6.0932  -4.1808  -0.7053   0.3077

          k = 0.4000 0.0000 0.6000 (  2771 PWs)   bands (ev):

    -6.5103  -3.6005  -0.4949   0.5471

          k = 0.8000-0.2000 1.0000 (  2775 PWs)   bands (ev):

    -6.0469  -4.2163  -0.2651  -0.0684

          k = 0.7000-0.1000 0.9000 (  2774 PWs)   bands (ev):

    -5.6226  -4.7105  -0.6061  -0.1196

          k = 0.6000 0.0000 0.8000 (  2779 PWs)   bands (ev):

    -5.6711  -4.6509  -0.8199   0.0340

          k =-0.2000-1.0000 0.0000 (  2788 PWs)   bands (ev):

    -5.1872  -5.1872  -0.2880  -0.2880

          k = 0.6000-0.2000 1.0000 (  2767 PWs)   bands (ev):

    -5.8897  -4.3948  -0.6485  -0.0793

          k = 0.5000-0.1000 0.9000 (  2770 PWs)   bands (ev):

    -5.6011  -4.7194  -0.7245  -0.2129

          k =-0.4000-1.0000 0.0000 (  2768 PWs)   bands (ev):

    -5.1689  -5.1689  -0.5083  -0.5083

     highest occupied level (ev):     1.6261

!    total energy              =     -15.57286344 Ry
     estimated scf accuracy    <       0.00000027 Ry

     The total energy is the sum of the following terms:
     one-electron contribution =       1.15206561 Ry
     hartree contribution      =       1.61331296 Ry
     xc contribution           =      -4.32118696 Ry
     ewald contribution        =     -14.01705505 Ry

     convergence has been achieved in  15 iterations
     Writing meta-gga kinetic term

     Writing all to output data dir ./input_pw/Si/15/pwscf.save/
     Writing meta-gga kinetic term
 
     init_run     :      5.37s CPU     11.13s WALL (       1 calls)
     electrons    :     47.50s CPU     64.38s WALL (       1 calls)

     Called by init_run:
     wfcinit      :      5.23s CPU     10.77s WALL (       1 calls)
     potinit      :      0.04s CPU      0.13s WALL (       1 calls)
     hinit0       :      0.07s CPU      0.16s WALL (       1 calls)

     Called by electrons:
     c_bands      :     37.82s CPU     51.59s WALL (      16 calls)
     sum_band     :      8.65s CPU     11.59s WALL (      16 calls)
     v_of_rho     :      0.58s CPU      0.76s WALL (      16 calls)
     mix_rho      :      0.45s CPU      0.54s WALL (      16 calls)

     Called by c_bands:
     init_us_2    :      0.45s CPU      0.58s WALL (    1551 calls)
     init_us_2:cp :      0.45s CPU      0.57s WALL (    1551 calls)
     cegterg      :     37.28s CPU     50.92s WALL (     752 calls)

     Called by *egterg:
     cdiaghg      :      0.10s CPU      0.15s WALL (    1882 calls)
     h_psi        :     41.72s CPU     60.52s WALL (    1976 calls)
     g_psi        :      0.03s CPU      0.05s WALL (    1177 calls)

     Called by h_psi:
     h_psi:calbec :      0.16s CPU      0.21s WALL (    1976 calls)
     vloc_psi     :     10.30s CPU     15.10s WALL (    1976 calls)
     add_vuspsi   :      0.14s CPU      0.30s WALL (    1976 calls)
     h_psi_meta   :     31.06s CPU     44.85s WALL (    1976 calls)

     General routines
     calbec       :      0.15s CPU      0.20s WALL (    1976 calls)
     fft          :      0.11s CPU      0.18s WALL (     191 calls)
     ffts         :      0.17s CPU      0.22s WALL (     292 calls)
     fftw         :     42.64s CPU     61.52s WALL (   75920 calls)
     interpolate  :      0.00s CPU      0.00s WALL (      16 calls)
 
     Parallel routines
 
     PWSCF        :     52.91s CPU   1m15.60s WALL

 
   This run was terminated on:  12:50:55  21Feb2023            

=------------------------------------------------------------------------------=
   JOB DONE.
=------------------------------------------------------------------------------=
