
     Program PWSCF v.7.0 starts on 29Mar2023 at 11:31: 6 

     This program is part of the open-source Quantum ESPRESSO suite
     for quantum simulation of materials; please cite
         "P. Giannozzi et al., J. Phys.:Condens. Matter 21 395502 (2009);
         "P. Giannozzi et al., J. Phys.:Condens. Matter 29 465901 (2017);
         "P. Giannozzi et al., J. Chem. Phys. 152 154105 (2020);
          URL http://www.quantum-espresso.org", 
     in publications or presentations arising from this work. More details at
     http://www.quantum-espresso.org/quote

     Parallel version (MPI), running on     1 processors

     MPI processes distributed on     1 nodes
     23382 MiB available memory on the printing compute node when the environment starts
 
     Waiting for input...
     Reading input from standard input
Warning: card &CELL ignored
Warning: card / ignored

     Current dimensions of program PWSCF are:
     Max number of different atomic species (ntypx) = 10
     Max number of k-points (npk) =  40000
     Max angular momentum in pseudopotentials (lmaxx) =  4
     file Si.SCAN.UPF2: wavefunction(s)  0D renormalized

     WARNING: the MGGA functional with ID    5 has been 
     read together with other dft terms, but it should 
     stand alone in order to work properly. The other 
     terms will be ignored.

     Subspace diagonalization in iterative solution of the eigenvalue problem:
     a serial algorithm will be used

 
     G-vector sticks info
     --------------------
     sticks:   dense  smooth     PW     G-vecs:    dense   smooth      PW
     Sum         757     757    241                13731    13731    2397
 
     Using Slab Decomposition
 


     bravais-lattice index     =            2
     lattice parameter (alat)  =      10.4727  a.u.
     unit-cell volume          =     287.1557 (a.u.)^3
     number of atoms/cell      =            2
     number of atomic types    =            1
     number of electrons       =         8.00
     number of Kohn-Sham states=            4
     kinetic-energy cutoff     =      50.0000  Ry
     charge density cutoff     =     200.0000  Ry
     scf convergence threshold =      1.0E-06
     mixing beta               =       0.0100
     number of iterations used =            8  local-TF  mixing
     Exchange-correlation= SLA  PW   SCAN SCAN
                           (   0   0   0   0   0 263 267)

     celldm(1)=  10.472711  celldm(2)=   0.000000  celldm(3)=   0.000000
     celldm(4)=   0.000000  celldm(5)=   0.000000  celldm(6)=   0.000000

     crystal axes: (cart. coord. in units of alat)
               a(1) = (  -0.500000   0.000000   0.500000 )  
               a(2) = (   0.000000   0.500000   0.500000 )  
               a(3) = (  -0.500000   0.500000   0.000000 )  

     reciprocal axes: (cart. coord. in units 2 pi/alat)
               b(1) = ( -1.000000 -1.000000  1.000000 )  
               b(2) = (  1.000000  1.000000  1.000000 )  
               b(3) = ( -1.000000  1.000000 -1.000000 )  


     PseudoPot. # 1 for Si read from file:
     ~/Documents/TA/PWDFT.jl/pseudopotentials/scan_upf/Si.SCAN.UPF2
     MD5 check sum: Not computed, couldn't open file
     Pseudo is Norm-conserving, Zval =  4.0
     Generated by new atomic code, or converted to UPF format
     Using radial grid of 1475 points,  2 beta functions with: 
                l(1) =   0
                l(2) =   1

     atomic species   valence    mass     pseudopotential
        Si             4.00    28.08550     Si( 1.00)

     48 Sym. Ops., with inversion, found (24 have fractional translation)



   Cartesian axes

     site n.     atom                  positions (alat units)
         1           Si  tau(   1) = (   0.0000000   0.0000000   0.0000000  )
         2           Si  tau(   2) = (   0.2500000   0.2500000   0.2500000  )

     number of k points=    47
                       cart. coord. in units 2pi/alat
        k(    1) = (   0.0000000   0.0000000   0.0000000), wk =   0.0020000
        k(    2) = (  -0.1000000   0.1000000  -0.1000000), wk =   0.0160000
        k(    3) = (  -0.2000000   0.2000000  -0.2000000), wk =   0.0160000
        k(    4) = (  -0.3000000   0.3000000  -0.3000000), wk =   0.0160000
        k(    5) = (  -0.4000000   0.4000000  -0.4000000), wk =   0.0160000
        k(    6) = (   0.5000000  -0.5000000   0.5000000), wk =   0.0080000
        k(    7) = (   0.0000000   0.2000000   0.0000000), wk =   0.0120000
        k(    8) = (  -0.1000000   0.3000000  -0.1000000), wk =   0.0480000
        k(    9) = (  -0.2000000   0.4000000  -0.2000000), wk =   0.0480000
        k(   10) = (  -0.3000000   0.5000000  -0.3000000), wk =   0.0480000
        k(   11) = (   0.6000000  -0.4000000   0.6000000), wk =   0.0480000
        k(   12) = (   0.5000000  -0.3000000   0.5000000), wk =   0.0480000
        k(   13) = (   0.4000000  -0.2000000   0.4000000), wk =   0.0480000
        k(   14) = (   0.3000000  -0.1000000   0.3000000), wk =   0.0480000
        k(   15) = (   0.2000000   0.0000000   0.2000000), wk =   0.0240000
        k(   16) = (   0.0000000   0.4000000   0.0000000), wk =   0.0120000
        k(   17) = (  -0.1000000   0.5000000  -0.1000000), wk =   0.0480000
        k(   18) = (  -0.2000000   0.6000000  -0.2000000), wk =   0.0480000
        k(   19) = (   0.7000000  -0.3000000   0.7000000), wk =   0.0480000
        k(   20) = (   0.6000000  -0.2000000   0.6000000), wk =   0.0480000
        k(   21) = (   0.5000000  -0.1000000   0.5000000), wk =   0.0480000
        k(   22) = (   0.4000000   0.0000000   0.4000000), wk =   0.0240000
        k(   23) = (   0.0000000   0.6000000   0.0000000), wk =   0.0120000
        k(   24) = (  -0.1000000   0.7000000  -0.1000000), wk =   0.0480000
        k(   25) = (   0.8000000  -0.2000000   0.8000000), wk =   0.0480000
        k(   26) = (   0.7000000  -0.1000000   0.7000000), wk =   0.0480000
        k(   27) = (   0.6000000  -0.0000000   0.6000000), wk =   0.0240000
        k(   28) = (   0.0000000   0.8000000   0.0000000), wk =   0.0120000
        k(   29) = (   0.9000000  -0.1000000   0.9000000), wk =   0.0480000
        k(   30) = (   0.8000000   0.0000000   0.8000000), wk =   0.0240000
        k(   31) = (   0.0000000  -1.0000000   0.0000000), wk =   0.0060000
        k(   32) = (  -0.2000000   0.4000000   0.0000000), wk =   0.0480000
        k(   33) = (  -0.3000000   0.5000000  -0.1000000), wk =   0.0960000
        k(   34) = (   0.6000000  -0.4000000   0.8000000), wk =   0.0960000
        k(   35) = (   0.5000000  -0.3000000   0.7000000), wk =   0.0480000
        k(   36) = (  -0.2000000   0.6000000   0.0000000), wk =   0.0480000
        k(   37) = (   0.7000000  -0.3000000   0.9000000), wk =   0.0960000
        k(   38) = (   0.6000000  -0.2000000   0.8000000), wk =   0.0960000
        k(   39) = (   0.5000000  -0.1000000   0.7000000), wk =   0.0960000
        k(   40) = (   0.4000000   0.0000000   0.6000000), wk =   0.0480000
        k(   41) = (   0.8000000  -0.2000000   1.0000000), wk =   0.0480000
        k(   42) = (   0.7000000  -0.1000000   0.9000000), wk =   0.0960000
        k(   43) = (   0.6000000   0.0000000   0.8000000), wk =   0.0480000
        k(   44) = (  -0.2000000  -1.0000000   0.0000000), wk =   0.0240000
        k(   45) = (   0.6000000  -0.2000000   1.0000000), wk =   0.0480000
        k(   46) = (   0.5000000  -0.1000000   0.9000000), wk =   0.0480000
        k(   47) = (  -0.4000000  -1.0000000   0.0000000), wk =   0.0240000

     Dense  grid:    13731 G-vectors     FFT dimensions: (  36,  36,  36)

     Estimated max dynamical RAM per process >      26.22 MB

     WARNING: libxc functional with ID  263 depends
      on external parameters: check the user_guide of
      QE if you need to modify them or to check their
      default values.

     Initial potential from superposition of free atoms

     starting charge       7.9990, renormalised to       8.0000
     Starting wfcs are   18 randomized atomic wfcs

     total cpu time spent up to now is        8.6 secs

     Self-consistent Calculation

     iteration #  1     ecut=    50.00 Ry     beta= 0.01
     Davidson diagonalization with overlap
     ethr =  1.00E-02,  avg # of iterations =  1.9

     Threshold (ethr) on eigenvalues was too large:
     Diagonalizing with lowered threshold

     Davidson diagonalization with overlap
     ethr =  6.86E-04,  avg # of iterations =  1.7

     total cpu time spent up to now is       20.1 secs

     total energy              =     -15.65139029 Ry
     estimated scf accuracy    <       0.05827296 Ry

     iteration #  2     ecut=    50.00 Ry     beta= 0.01
     Davidson diagonalization with overlap
     ethr =  7.28E-04,  avg # of iterations =  1.0

     total cpu time spent up to now is       25.1 secs

     total energy              =     -15.73145945 Ry
     estimated scf accuracy    <       0.05795015 Ry

     iteration #  3     ecut=    50.00 Ry     beta= 0.01
     Davidson diagonalization with overlap
     ethr =  7.24E-04,  avg # of iterations =  1.8

     total cpu time spent up to now is       31.2 secs

     total energy              =     -15.74008560 Ry
     estimated scf accuracy    <       0.03736537 Ry

     iteration #  4     ecut=    50.00 Ry     beta= 0.01
     Davidson diagonalization with overlap
     ethr =  4.67E-04,  avg # of iterations =  1.1

     total cpu time spent up to now is       36.3 secs

     total energy              =     -15.74623975 Ry
     estimated scf accuracy    <       0.00511974 Ry

     iteration #  5     ecut=    50.00 Ry     beta= 0.01
     Davidson diagonalization with overlap
     ethr =  6.40E-05,  avg # of iterations =  1.3

     total cpu time spent up to now is       40.4 secs

     total energy              =     -15.74667485 Ry
     estimated scf accuracy    <       0.00690102 Ry

     iteration #  6     ecut=    50.00 Ry     beta= 0.01
     Davidson diagonalization with overlap
     ethr =  6.40E-05,  avg # of iterations =  1.0

     total cpu time spent up to now is       43.4 secs

     total energy              =     -15.74672862 Ry
     estimated scf accuracy    <       0.00746188 Ry

     iteration #  7     ecut=    50.00 Ry     beta= 0.01
     Davidson diagonalization with overlap
     ethr =  6.40E-05,  avg # of iterations =  1.0

     total cpu time spent up to now is       46.1 secs

     total energy              =     -15.74586514 Ry
     estimated scf accuracy    <       0.00424536 Ry

     iteration #  8     ecut=    50.00 Ry     beta= 0.01
     Davidson diagonalization with overlap
     ethr =  5.31E-05,  avg # of iterations =  1.0

     total cpu time spent up to now is       48.8 secs

     total energy              =     -15.74609441 Ry
     estimated scf accuracy    <       0.00026440 Ry

     iteration #  9     ecut=    50.00 Ry     beta= 0.01
     Davidson diagonalization with overlap
     ethr =  3.30E-06,  avg # of iterations =  1.3

     total cpu time spent up to now is       51.4 secs

     total energy              =     -15.74610078 Ry
     estimated scf accuracy    <       0.00017496 Ry

     iteration # 10     ecut=    50.00 Ry     beta= 0.01
     Davidson diagonalization with overlap
     ethr =  2.19E-06,  avg # of iterations =  1.0

     total cpu time spent up to now is       54.4 secs

     total energy              =     -15.74603883 Ry
     estimated scf accuracy    <       0.00015496 Ry

     iteration # 11     ecut=    50.00 Ry     beta= 0.01
     Davidson diagonalization with overlap
     ethr =  1.94E-06,  avg # of iterations =  2.0

     total cpu time spent up to now is       57.6 secs

     total energy              =     -15.74604993 Ry
     estimated scf accuracy    <       0.00004063 Ry

     iteration # 12     ecut=    50.00 Ry     beta= 0.01
     Davidson diagonalization with overlap
     ethr =  5.08E-07,  avg # of iterations =  1.0

     total cpu time spent up to now is       60.4 secs

     total energy              =     -15.74605012 Ry
     estimated scf accuracy    <       0.00002413 Ry

     iteration # 13     ecut=    50.00 Ry     beta= 0.01
     Davidson diagonalization with overlap
     ethr =  3.02E-07,  avg # of iterations =  1.0

     total cpu time spent up to now is       63.3 secs

     total energy              =     -15.74604535 Ry
     estimated scf accuracy    <       0.00002018 Ry

     iteration # 14     ecut=    50.00 Ry     beta= 0.01
     Davidson diagonalization with overlap
     ethr =  2.52E-07,  avg # of iterations =  1.0

     total cpu time spent up to now is       66.0 secs

     total energy              =     -15.74603971 Ry
     estimated scf accuracy    <       0.00001315 Ry

     iteration # 15     ecut=    50.00 Ry     beta= 0.01
     Davidson diagonalization with overlap
     ethr =  1.64E-07,  avg # of iterations =  2.0

     total cpu time spent up to now is       69.4 secs

     End of self-consistent calculation

          k = 0.0000 0.0000 0.0000 (  1687 PWs)   bands (ev):

    -6.5057   5.3984   5.3984   5.3984

          k =-0.1000 0.1000-0.1000 (  1732 PWs)   bands (ev):

    -6.3754   4.3077   5.2162   5.2162

          k =-0.2000 0.2000-0.2000 (  1724 PWs)   bands (ev):

    -5.9910   2.4778   4.8517   4.8517

          k =-0.3000 0.3000-0.3000 (  1712 PWs)   bands (ev):

    -5.3810   0.7086   4.5202   4.5202

          k =-0.4000 0.4000-0.4000 (  1718 PWs)   bands (ev):

    -4.6471  -0.7500   4.3059   4.3059

          k = 0.5000-0.5000 0.5000 (  1718 PWs)   bands (ev):

    -4.2119  -1.4306   4.2329   4.2329

          k = 0.0000 0.2000 0.0000 (  1731 PWs)   bands (ev):

    -6.3316   4.4791   4.8710   4.8710

          k =-0.1000 0.3000-0.1000 (  1727 PWs)   bands (ev):

    -6.0306   3.0097   4.4518   4.6119

          k =-0.2000 0.4000-0.2000 (  1714 PWs)   bands (ev):

    -5.4909   1.2740   4.1340   4.1953

          k =-0.3000 0.5000-0.3000 (  1713 PWs)   bands (ev):

    -4.7765  -0.2805   3.7931   3.9803

          k = 0.6000-0.4000 0.6000 (  1717 PWs)   bands (ev):

    -4.1544  -1.2959   3.5100   4.0036

          k = 0.5000-0.3000 0.5000 (  1721 PWs)   bands (ev):

    -4.3153  -1.0540   3.3893   4.1926

          k = 0.4000-0.2000 0.4000 (  1708 PWs)   bands (ev):

    -5.0280   0.2069   3.4570   4.5157

          k = 0.3000-0.1000 0.3000 (  1722 PWs)   bands (ev):

    -5.6968   1.8356   3.7378   4.9081

          k = 0.2000 0.0000 0.2000 (  1735 PWs)   bands (ev):

    -6.1598   3.4222   4.3340   5.2227

          k = 0.0000 0.4000 0.0000 (  1736 PWs)   bands (ev):

    -5.8132   2.8003   3.9922   3.9922

          k =-0.1000 0.5000-0.1000 (  1705 PWs)   bands (ev):

    -5.3501   1.5701   3.5081   3.6475

          k =-0.2000 0.6000-0.2000 (  1703 PWs)   bands (ev):

    -4.6815   0.1559   2.9036   3.4845

          k = 0.7000-0.3000 0.7000 (  1709 PWs)   bands (ev):

    -3.9659  -1.0038   2.4064   3.5210

          k = 0.6000-0.2000 0.6000 (  1728 PWs)   bands (ev):

    -3.8197  -1.2044   2.1184   3.7484

          k = 0.5000-0.1000 0.5000 (  1715 PWs)   bands (ev):

    -4.4568  -0.2425   2.1105   4.1308

          k = 0.4000 0.0000 0.4000 (  1714 PWs)   bands (ev):

    -5.1656   0.9781   2.5659   4.5815

          k = 0.0000 0.6000 0.0000 (  1712 PWs)   bands (ev):

    -4.9634   1.0084   3.2613   3.2613

          k =-0.1000 0.7000-0.1000 (  1709 PWs)   bands (ev):

    -4.3547   0.0057   2.6770   3.0564

          k = 0.8000-0.2000 0.8000 (  1703 PWs)   bands (ev):

    -3.6151  -0.9908   1.8929   3.0591

          k = 0.7000-0.1000 0.7000 (  1719 PWs)   bands (ev):

    -3.2119  -1.4520   1.3624   3.2673

          k = 0.6000-0.0000 0.6000 (  1708 PWs)   bands (ev):

    -3.7404  -0.8692   1.3412   3.6513

          k = 0.0000 0.8000 0.0000 (  1712 PWs)   bands (ev):

    -3.8062  -0.7498   2.7993   2.7993

          k = 0.9000-0.1000 0.9000 (  1712 PWs)   bands (ev):

    -3.0832  -1.5890   2.2627   2.7497

          k = 0.8000 0.0000 0.8000 (  1716 PWs)   bands (ev):

    -2.6256  -2.0010   1.5327   2.9127

          k = 0.0000-1.0000 0.0000 (  1724 PWs)   bands (ev):

    -2.3815  -2.3815   2.6423   2.6423

          k =-0.2000 0.4000 0.0000 (  1726 PWs)   bands (ev):

    -5.6493   2.0743   3.4476   4.4742

          k =-0.3000 0.5000-0.1000 (  1712 PWs)   bands (ev):

    -5.0431   0.6840   2.8671   4.1154

          k = 0.6000-0.4000 0.8000 (  1716 PWs)   bands (ev):

    -4.3084  -0.6542   2.6291   3.7788

          k = 0.5000-0.3000 0.7000 (  1718 PWs)   bands (ev):

    -3.8647  -1.3128   2.5662   3.6459

          k =-0.2000 0.6000 0.0000 (  1711 PWs)   bands (ev):

    -4.8160   0.6598   2.7337   3.4122

          k = 0.7000-0.3000 0.9000 (  1710 PWs)   bands (ev):

    -4.1041  -0.4316   2.1368   3.1012

          k = 0.6000-0.2000 0.8000 (  1715 PWs)   bands (ev):

    -3.4706  -1.2724   1.7391   3.0471

          k = 0.5000-0.1000 0.7000 (  1719 PWs)   bands (ev):

    -3.6676  -1.0199   1.5991   3.2773

          k = 0.4000 0.0000 0.6000 (  1712 PWs)   bands (ev):

    -4.3898  -0.0848   1.8993   3.6979

          k = 0.8000-0.2000 1.0000 (  1701 PWs)   bands (ev):

    -3.6916  -0.8387   2.3266   2.6375

          k = 0.7000-0.1000 0.9000 (  1707 PWs)   bands (ev):

    -2.9656  -1.6105   1.6696   2.5523

          k = 0.6000 0.0000 0.8000 (  1717 PWs)   bands (ev):

    -2.9805  -1.5765   1.2751   2.8131

          k =-0.2000-1.0000 0.0000 (  1708 PWs)   bands (ev):

    -2.3335  -2.3335   2.2812   2.2812

          k = 0.6000-0.2000 1.0000 (  1701 PWs)   bands (ev):

    -3.3812  -1.1352   1.6132   2.5619

          k = 0.5000-0.1000 0.9000 (  1712 PWs)   bands (ev):

    -2.8807  -1.6403   1.4634   2.3224

          k =-0.4000-1.0000 0.0000 (  1710 PWs)   bands (ev):

    -2.2496  -2.2496   1.8126   1.8126

     highest occupied level (ev):     5.3984

!    total energy              =     -15.74604101 Ry
     estimated scf accuracy    <       0.00000061 Ry

     The total energy is the sum of the following terms:
     one-electron contribution =       4.32561012 Ry
     hartree contribution      =       1.16223059 Ry
     xc contribution           =      -4.77419543 Ry
     ewald contribution        =     -16.45968629 Ry

     convergence has been achieved in  15 iterations
     Writing meta-gga kinetic term

     Writing all to output data dir ./input_pw/Si/8/pwscf.save/
     Writing meta-gga kinetic term
 
     init_run     :      4.19s CPU      8.52s WALL (       1 calls)
     electrons    :     40.69s CPU     60.84s WALL (       1 calls)

     Called by init_run:
     wfcinit      :      4.07s CPU      8.31s WALL (       1 calls)
     potinit      :      0.04s CPU      0.10s WALL (       1 calls)
     hinit0       :      0.07s CPU      0.10s WALL (       1 calls)

     Called by electrons:
     c_bands      :     31.94s CPU     47.73s WALL (      16 calls)
     sum_band     :      7.94s CPU     11.93s WALL (      16 calls)
     v_of_rho     :      0.48s CPU      0.73s WALL (      16 calls)
     mix_rho      :      0.34s CPU      0.48s WALL (      16 calls)

     Called by c_bands:
     init_us_2    :      0.33s CPU      0.55s WALL (    1551 calls)
     init_us_2:cp :      0.33s CPU      0.52s WALL (    1551 calls)
     cegterg      :     31.54s CPU     47.02s WALL (     752 calls)

     Called by *egterg:
     cdiaghg      :      0.11s CPU      0.16s WALL (    1697 calls)
     h_psi        :     35.00s CPU     54.37s WALL (    1791 calls)
     g_psi        :      0.02s CPU      0.04s WALL (     992 calls)

     Called by h_psi:
     h_psi:calbec :      0.12s CPU      0.16s WALL (    1791 calls)
     vloc_psi     :      8.68s CPU     13.15s WALL (    1791 calls)
     add_vuspsi   :      0.10s CPU      0.23s WALL (    1791 calls)
     h_psi_meta   :     26.04s CPU     40.75s WALL (    1791 calls)

     General routines
     calbec       :      0.12s CPU      0.15s WALL (    1791 calls)
     fft          :      0.10s CPU      0.14s WALL (     191 calls)
     ffts         :      0.14s CPU      0.19s WALL (     266 calls)
     fftw         :     36.85s CPU     57.24s WALL (   71040 calls)
     interpolate  :      0.00s CPU      0.03s WALL (      16 calls)
 
     Parallel routines
 
     PWSCF        :     44.92s CPU   1m 9.42s WALL

 
   This run was terminated on:  11:32:16  29Mar2023            

=------------------------------------------------------------------------------=
   JOB DONE.
=------------------------------------------------------------------------------=
