
     Program PWSCF v.7.0 starts on 21Feb2023 at 12:49:41 

     This program is part of the open-source Quantum ESPRESSO suite
     for quantum simulation of materials; please cite
         "P. Giannozzi et al., J. Phys.:Condens. Matter 21 395502 (2009);
         "P. Giannozzi et al., J. Phys.:Condens. Matter 29 465901 (2017);
         "P. Giannozzi et al., J. Chem. Phys. 152 154105 (2020);
          URL http://www.quantum-espresso.org", 
     in publications or presentations arising from this work. More details at
     http://www.quantum-espresso.org/quote

     Parallel version (MPI), running on     1 processors

     MPI processes distributed on     1 nodes
     2890 MiB available memory on the printing compute node when the environment starts
 
     Waiting for input...
     Reading input from standard input
Warning: card &CELL ignored
Warning: card / ignored

     Current dimensions of program PWSCF are:
     Max number of different atomic species (ntypx) = 10
     Max number of k-points (npk) =  40000
     Max angular momentum in pseudopotentials (lmaxx) =  4
     file Si.SCAN.UPF2: wavefunction(s)  0D renormalized

     WARNING: the MGGA functional with ID    5 has been 
     read together with other dft terms, but it should 
     stand alone in order to work properly. The other 
     terms will be ignored.

     Subspace diagonalization in iterative solution of the eigenvalue problem:
     a serial algorithm will be used

 
     G-vector sticks info
     --------------------
     sticks:   dense  smooth     PW     G-vecs:    dense   smooth      PW
     Sum         745     745    235                13371    13371    2277
 
     Using Slab Decomposition
 


     bravais-lattice index     =            2
     lattice parameter (alat)  =      10.3847  a.u.
     unit-cell volume          =     279.9767 (a.u.)^3
     number of atoms/cell      =            2
     number of atomic types    =            1
     number of electrons       =         8.00
     number of Kohn-Sham states=            4
     kinetic-energy cutoff     =      50.0000  Ry
     charge density cutoff     =     200.0000  Ry
     scf convergence threshold =      1.0E-06
     mixing beta               =       0.0100
     number of iterations used =            8  local-TF  mixing
     Exchange-correlation= SLA  PW   SCAN SCAN
                           (   0   0   0   0   0 263 267)

     celldm(1)=  10.384700  celldm(2)=   0.000000  celldm(3)=   0.000000
     celldm(4)=   0.000000  celldm(5)=   0.000000  celldm(6)=   0.000000

     crystal axes: (cart. coord. in units of alat)
               a(1) = (  -0.500000   0.000000   0.500000 )  
               a(2) = (   0.000000   0.500000   0.500000 )  
               a(3) = (  -0.500000   0.500000   0.000000 )  

     reciprocal axes: (cart. coord. in units 2 pi/alat)
               b(1) = ( -1.000000 -1.000000  1.000000 )  
               b(2) = (  1.000000  1.000000  1.000000 )  
               b(3) = ( -1.000000  1.000000 -1.000000 )  


     PseudoPot. # 1 for Si read from file:
     ~/Documents/TA/PWDFT.jl/pseudopotentials/scan_upf/Si.SCAN.UPF2
     MD5 check sum: Not computed, couldn't open file
     Pseudo is Norm-conserving, Zval =  4.0
     Generated by new atomic code, or converted to UPF format
     Using radial grid of 1475 points,  2 beta functions with: 
                l(1) =   0
                l(2) =   1

     atomic species   valence    mass     pseudopotential
        Si             4.00    28.08550     Si( 1.00)

     48 Sym. Ops., with inversion, found (24 have fractional translation)



   Cartesian axes

     site n.     atom                  positions (alat units)
         1           Si  tau(   1) = (   0.0000000   0.0000000   0.0000000  )
         2           Si  tau(   2) = (   0.2500000   0.2500000   0.2500000  )

     number of k points=    47
                       cart. coord. in units 2pi/alat
        k(    1) = (   0.0000000   0.0000000   0.0000000), wk =   0.0020000
        k(    2) = (  -0.1000000   0.1000000  -0.1000000), wk =   0.0160000
        k(    3) = (  -0.2000000   0.2000000  -0.2000000), wk =   0.0160000
        k(    4) = (  -0.3000000   0.3000000  -0.3000000), wk =   0.0160000
        k(    5) = (  -0.4000000   0.4000000  -0.4000000), wk =   0.0160000
        k(    6) = (   0.5000000  -0.5000000   0.5000000), wk =   0.0080000
        k(    7) = (   0.0000000   0.2000000   0.0000000), wk =   0.0120000
        k(    8) = (  -0.1000000   0.3000000  -0.1000000), wk =   0.0480000
        k(    9) = (  -0.2000000   0.4000000  -0.2000000), wk =   0.0480000
        k(   10) = (  -0.3000000   0.5000000  -0.3000000), wk =   0.0480000
        k(   11) = (   0.6000000  -0.4000000   0.6000000), wk =   0.0480000
        k(   12) = (   0.5000000  -0.3000000   0.5000000), wk =   0.0480000
        k(   13) = (   0.4000000  -0.2000000   0.4000000), wk =   0.0480000
        k(   14) = (   0.3000000  -0.1000000   0.3000000), wk =   0.0480000
        k(   15) = (   0.2000000   0.0000000   0.2000000), wk =   0.0240000
        k(   16) = (   0.0000000   0.4000000   0.0000000), wk =   0.0120000
        k(   17) = (  -0.1000000   0.5000000  -0.1000000), wk =   0.0480000
        k(   18) = (  -0.2000000   0.6000000  -0.2000000), wk =   0.0480000
        k(   19) = (   0.7000000  -0.3000000   0.7000000), wk =   0.0480000
        k(   20) = (   0.6000000  -0.2000000   0.6000000), wk =   0.0480000
        k(   21) = (   0.5000000  -0.1000000   0.5000000), wk =   0.0480000
        k(   22) = (   0.4000000   0.0000000   0.4000000), wk =   0.0240000
        k(   23) = (   0.0000000   0.6000000   0.0000000), wk =   0.0120000
        k(   24) = (  -0.1000000   0.7000000  -0.1000000), wk =   0.0480000
        k(   25) = (   0.8000000  -0.2000000   0.8000000), wk =   0.0480000
        k(   26) = (   0.7000000  -0.1000000   0.7000000), wk =   0.0480000
        k(   27) = (   0.6000000  -0.0000000   0.6000000), wk =   0.0240000
        k(   28) = (   0.0000000   0.8000000   0.0000000), wk =   0.0120000
        k(   29) = (   0.9000000  -0.1000000   0.9000000), wk =   0.0480000
        k(   30) = (   0.8000000   0.0000000   0.8000000), wk =   0.0240000
        k(   31) = (   0.0000000  -1.0000000   0.0000000), wk =   0.0060000
        k(   32) = (  -0.2000000   0.4000000   0.0000000), wk =   0.0480000
        k(   33) = (  -0.3000000   0.5000000  -0.1000000), wk =   0.0960000
        k(   34) = (   0.6000000  -0.4000000   0.8000000), wk =   0.0960000
        k(   35) = (   0.5000000  -0.3000000   0.7000000), wk =   0.0480000
        k(   36) = (  -0.2000000   0.6000000   0.0000000), wk =   0.0480000
        k(   37) = (   0.7000000  -0.3000000   0.9000000), wk =   0.0960000
        k(   38) = (   0.6000000  -0.2000000   0.8000000), wk =   0.0960000
        k(   39) = (   0.5000000  -0.1000000   0.7000000), wk =   0.0960000
        k(   40) = (   0.4000000   0.0000000   0.6000000), wk =   0.0480000
        k(   41) = (   0.8000000  -0.2000000   1.0000000), wk =   0.0480000
        k(   42) = (   0.7000000  -0.1000000   0.9000000), wk =   0.0960000
        k(   43) = (   0.6000000   0.0000000   0.8000000), wk =   0.0480000
        k(   44) = (  -0.2000000  -1.0000000   0.0000000), wk =   0.0240000
        k(   45) = (   0.6000000  -0.2000000   1.0000000), wk =   0.0480000
        k(   46) = (   0.5000000  -0.1000000   0.9000000), wk =   0.0480000
        k(   47) = (  -0.4000000  -1.0000000   0.0000000), wk =   0.0240000

     Dense  grid:    13371 G-vectors     FFT dimensions: (  36,  36,  36)

     Estimated max dynamical RAM per process >      25.69 MB

     WARNING: libxc functional with ID  263 depends
      on external parameters: check the user_guide of
      QE if you need to modify them or to check their
      default values.

     Initial potential from superposition of free atoms

     starting charge       7.9990, renormalised to       8.0000
     Starting wfcs are   18 randomized atomic wfcs

     total cpu time spent up to now is        9.0 secs

     Self-consistent Calculation

     iteration #  1     ecut=    50.00 Ry     beta= 0.01
     Davidson diagonalization with overlap
     ethr =  1.00E-02,  avg # of iterations =  1.9

     Threshold (ethr) on eigenvalues was too large:
     Diagonalizing with lowered threshold

     Davidson diagonalization with overlap
     ethr =  7.12E-04,  avg # of iterations =  1.7

     total cpu time spent up to now is       19.9 secs

     total energy              =     -15.65024362 Ry
     estimated scf accuracy    <       0.06047095 Ry

     iteration #  2     ecut=    50.00 Ry     beta= 0.01
     Davidson diagonalization with overlap
     ethr =  7.56E-04,  avg # of iterations =  1.0

     total cpu time spent up to now is       24.6 secs

     total energy              =     -15.73639069 Ry
     estimated scf accuracy    <       0.06009259 Ry

     iteration #  3     ecut=    50.00 Ry     beta= 0.01
     Davidson diagonalization with overlap
     ethr =  7.51E-04,  avg # of iterations =  1.8

     total cpu time spent up to now is       30.3 secs

     total energy              =     -15.74231849 Ry
     estimated scf accuracy    <       0.03654195 Ry

     iteration #  4     ecut=    50.00 Ry     beta= 0.01
     Davidson diagonalization with overlap
     ethr =  4.57E-04,  avg # of iterations =  1.3

     total cpu time spent up to now is       35.1 secs

     total energy              =     -15.74881107 Ry
     estimated scf accuracy    <       0.00540092 Ry

     iteration #  5     ecut=    50.00 Ry     beta= 0.01
     Davidson diagonalization with overlap
     ethr =  6.75E-05,  avg # of iterations =  1.3

     total cpu time spent up to now is       39.0 secs

     total energy              =     -15.74931455 Ry
     estimated scf accuracy    <       0.00714528 Ry

     iteration #  6     ecut=    50.00 Ry     beta= 0.01
     Davidson diagonalization with overlap
     ethr =  6.75E-05,  avg # of iterations =  1.0

     total cpu time spent up to now is       41.4 secs

     total energy              =     -15.74879040 Ry
     estimated scf accuracy    <       0.00792721 Ry

     iteration #  7     ecut=    50.00 Ry     beta= 0.01
     Davidson diagonalization with overlap
     ethr =  6.75E-05,  avg # of iterations =  1.0

     total cpu time spent up to now is       43.8 secs

     total energy              =     -15.74838546 Ry
     estimated scf accuracy    <       0.00263336 Ry

     iteration #  8     ecut=    50.00 Ry     beta= 0.01
     Davidson diagonalization with overlap
     ethr =  3.29E-05,  avg # of iterations =  1.0

     total cpu time spent up to now is       46.2 secs

     total energy              =     -15.74852739 Ry
     estimated scf accuracy    <       0.00025296 Ry

     iteration #  9     ecut=    50.00 Ry     beta= 0.01
     Davidson diagonalization with overlap
     ethr =  3.16E-06,  avg # of iterations =  1.0

     total cpu time spent up to now is       48.7 secs

     total energy              =     -15.74852732 Ry
     estimated scf accuracy    <       0.00018884 Ry

     iteration # 10     ecut=    50.00 Ry     beta= 0.01
     Davidson diagonalization with overlap
     ethr =  2.36E-06,  avg # of iterations =  1.0

     total cpu time spent up to now is       51.4 secs

     total energy              =     -15.74845705 Ry
     estimated scf accuracy    <       0.00017842 Ry

     iteration # 11     ecut=    50.00 Ry     beta= 0.01
     Davidson diagonalization with overlap
     ethr =  2.23E-06,  avg # of iterations =  2.0

     total cpu time spent up to now is       54.9 secs

     total energy              =     -15.74847607 Ry
     estimated scf accuracy    <       0.00002121 Ry

     iteration # 12     ecut=    50.00 Ry     beta= 0.01
     Davidson diagonalization with overlap
     ethr =  2.65E-07,  avg # of iterations =  1.0

     total cpu time spent up to now is       57.9 secs

     total energy              =     -15.74847668 Ry
     estimated scf accuracy    <       0.00001558 Ry

     iteration # 13     ecut=    50.00 Ry     beta= 0.01
     Davidson diagonalization with overlap
     ethr =  1.95E-07,  avg # of iterations =  1.0

     total cpu time spent up to now is       60.5 secs

     total energy              =     -15.74847614 Ry
     estimated scf accuracy    <       0.00001286 Ry

     iteration # 14     ecut=    50.00 Ry     beta= 0.01
     Davidson diagonalization with overlap
     ethr =  1.61E-07,  avg # of iterations =  1.0

     total cpu time spent up to now is       63.0 secs

     total energy              =     -15.74846482 Ry
     estimated scf accuracy    <       0.00001339 Ry

     iteration # 15     ecut=    50.00 Ry     beta= 0.01
     Davidson diagonalization with overlap
     ethr =  1.61E-07,  avg # of iterations =  2.0

     total cpu time spent up to now is       65.9 secs

     End of self-consistent calculation

          k = 0.0000 0.0000 0.0000 (  1687 PWs)   bands (ev):

    -6.4219   5.6482   5.6482   5.6482

          k =-0.1000 0.1000-0.1000 (  1684 PWs)   bands (ev):

    -6.2887   4.5565   5.4615   5.4615

          k =-0.2000 0.2000-0.2000 (  1669 PWs)   bands (ev):

    -5.8959   2.7023   5.0896   5.0896

          k =-0.3000 0.3000-0.3000 (  1652 PWs)   bands (ev):

    -5.2714   0.9008   4.7526   4.7526

          k =-0.4000 0.4000-0.4000 (  1673 PWs)   bands (ev):

    -4.5171  -0.5904   4.5354   4.5354

          k = 0.5000-0.5000 0.5000 (  1676 PWs)   bands (ev):

    -4.0658  -1.2913   4.4615   4.4615

          k = 0.0000 0.2000 0.0000 (  1695 PWs)   bands (ev):

    -6.2440   4.7502   5.1056   5.1056

          k =-0.1000 0.3000-0.1000 (  1673 PWs)   bands (ev):

    -5.9364   3.2532   4.6770   4.8518

          k =-0.2000 0.4000-0.2000 (  1669 PWs)   bands (ev):

    -5.3844   1.4837   4.3538   4.4292

          k =-0.3000 0.5000-0.3000 (  1669 PWs)   bands (ev):

    -4.6516  -0.1049   4.0195   4.1988

          k = 0.6000-0.4000 0.6000 (  1672 PWs)   bands (ev):

    -4.0086  -1.1485   3.7296   4.2247

          k = 0.5000-0.3000 0.5000 (  1669 PWs)   bands (ev):

    -4.1756  -0.8990   3.6039   4.4191

          k = 0.4000-0.2000 0.4000 (  1668 PWs)   bands (ev):

    -4.9098   0.3939   3.6690   4.7499

          k = 0.3000-0.1000 0.3000 (  1663 PWs)   bands (ev):

    -5.5950   2.0572   3.9501   5.1508

          k = 0.2000 0.0000 0.2000 (  1675 PWs)   bands (ev):

    -6.0685   3.6718   4.5537   5.4714

          k = 0.0000 0.4000 0.0000 (  1664 PWs)   bands (ev):

    -5.7145   3.0678   4.2061   4.2061

          k =-0.1000 0.5000-0.1000 (  1667 PWs)   bands (ev):

    -5.2411   1.8102   3.7172   3.8547

          k =-0.2000 0.6000-0.2000 (  1669 PWs)   bands (ev):

    -4.5562   0.3604   3.1032   3.6894

          k = 0.7000-0.3000 0.7000 (  1671 PWs)   bands (ev):

    -3.8193  -0.8320   2.5960   3.7283

          k = 0.6000-0.2000 0.6000 (  1669 PWs)   bands (ev):

    -3.6671  -1.0399   2.2993   3.9622

          k = 0.5000-0.1000 0.5000 (  1669 PWs)   bands (ev):

    -4.3246  -0.0488   2.2846   4.3544

          k = 0.4000 0.0000 0.4000 (  1666 PWs)   bands (ev):

    -5.0515   1.2004   2.7432   4.8165

          k = 0.0000 0.6000 0.0000 (  1680 PWs)   bands (ev):

    -4.8461   1.2510   3.4600   3.4600

          k =-0.1000 0.7000-0.1000 (  1675 PWs)   bands (ev):

    -4.2235   0.2284   2.8594   3.2513

          k = 0.8000-0.2000 0.8000 (  1676 PWs)   bands (ev):

    -3.4644  -0.7918   2.0534   3.2549

          k = 0.7000-0.1000 0.7000 (  1668 PWs)   bands (ev):

    -3.0458  -1.2690   1.5078   3.4686

          k = 0.6000-0.0000 0.6000 (  1682 PWs)   bands (ev):

    -3.5894  -0.6726   1.4848   3.8622

          k = 0.0000 0.8000 0.0000 (  1668 PWs)   bands (ev):

    -3.6635  -0.5409   2.9887   2.9887

          k = 0.9000-0.1000 0.9000 (  1675 PWs)   bands (ev):

    -2.9235  -1.3969   2.4335   2.9384

          k = 0.8000 0.0000 0.8000 (  1672 PWs)   bands (ev):

    -2.4484  -1.8212   1.6783   3.1054

          k = 0.0000-1.0000 0.0000 (  1660 PWs)   bands (ev):

    -2.2075  -2.2075   2.8287   2.8287

          k =-0.2000 0.4000 0.0000 (  1671 PWs)   bands (ev):

    -5.5467   2.3154   3.6465   4.7081

          k =-0.3000 0.5000-0.1000 (  1673 PWs)   bands (ev):

    -4.9262   0.8952   3.0601   4.3389

          k = 0.6000-0.4000 0.8000 (  1670 PWs)   bands (ev):

    -4.1714  -0.4778   2.8248   3.9918

          k = 0.5000-0.3000 0.7000 (  1674 PWs)   bands (ev):

    -3.7119  -1.1574   2.7637   3.8545

          k =-0.2000 0.6000 0.0000 (  1675 PWs)   bands (ev):

    -4.6948   0.8905   2.9168   3.6148

          k = 0.7000-0.3000 0.9000 (  1665 PWs)   bands (ev):

    -3.9650  -0.2255   2.3084   3.2932

          k = 0.6000-0.2000 0.8000 (  1674 PWs)   bands (ev):

    -3.3114  -1.0925   1.9033   3.2375

          k = 0.5000-0.1000 0.7000 (  1674 PWs)   bands (ev):

    -3.5143  -0.8322   1.7564   3.4749

          k = 0.4000 0.0000 0.6000 (  1673 PWs)   bands (ev):

    -4.2569   0.1263   2.0597   3.9080

          k = 0.8000-0.2000 1.0000 (  1672 PWs)   bands (ev):

    -3.5449  -0.6303   2.5001   2.8170

          k = 0.7000-0.1000 0.9000 (  1672 PWs)   bands (ev):

    -2.7989  -1.4184   1.8203   2.7300

          k = 0.6000 0.0000 0.8000 (  1674 PWs)   bands (ev):

    -2.8099  -1.3876   1.4133   2.9980

          k =-0.2000-1.0000 0.0000 (  1670 PWs)   bands (ev):

    -2.1562  -2.1562   2.4525   2.4525

          k = 0.6000-0.2000 1.0000 (  1677 PWs)   bands (ev):

    -3.2237  -0.9338   1.7639   2.7360

          k = 0.5000-0.1000 0.9000 (  1668 PWs)   bands (ev):

    -2.7084  -1.4503   1.6089   2.4894

          k =-0.4000-1.0000 0.0000 (  1664 PWs)   bands (ev):

    -2.0663  -2.0663   1.9654   1.9654

     highest occupied level (ev):     5.6482

!    total energy              =     -15.74846682 Ry
     estimated scf accuracy    <       0.00000095 Ry

     The total energy is the sum of the following terms:
     one-electron contribution =       4.51086297 Ry
     hartree contribution      =       1.14159956 Ry
     xc contribution           =      -4.80174614 Ry
     ewald contribution        =     -16.59918320 Ry

     convergence has been achieved in  15 iterations
     Writing meta-gga kinetic term

     Writing all to output data dir ./input_pw/Si/8/pwscf.save/
     Writing meta-gga kinetic term
 
     init_run     :      4.14s CPU      8.96s WALL (       1 calls)
     electrons    :     40.36s CPU     56.92s WALL (       1 calls)

     Called by init_run:
     wfcinit      :      4.03s CPU      8.71s WALL (       1 calls)
     potinit      :      0.04s CPU      0.15s WALL (       1 calls)
     hinit0       :      0.07s CPU      0.08s WALL (       1 calls)

     Called by electrons:
     c_bands      :     31.74s CPU     44.72s WALL (      16 calls)
     sum_band     :      7.81s CPU     11.16s WALL (      16 calls)
     v_of_rho     :      0.49s CPU      0.70s WALL (      16 calls)
     mix_rho      :      0.33s CPU      0.45s WALL (      16 calls)

     Called by c_bands:
     init_us_2    :      0.32s CPU      0.45s WALL (    1551 calls)
     init_us_2:cp :      0.32s CPU      0.45s WALL (    1551 calls)
     cegterg      :     31.36s CPU     44.17s WALL (     752 calls)

     Called by *egterg:
     cdiaghg      :      0.11s CPU      0.15s WALL (    1698 calls)
     h_psi        :     34.80s CPU     52.00s WALL (    1792 calls)
     g_psi        :      0.02s CPU      0.04s WALL (     993 calls)

     Called by h_psi:
     h_psi:calbec :      0.12s CPU      0.17s WALL (    1792 calls)
     vloc_psi     :      8.62s CPU     13.15s WALL (    1792 calls)
     add_vuspsi   :      0.09s CPU      0.17s WALL (    1792 calls)
     h_psi_meta   :     25.91s CPU     38.39s WALL (    1792 calls)

     General routines
     calbec       :      0.11s CPU      0.16s WALL (    1792 calls)
     fft          :      0.10s CPU      0.20s WALL (     191 calls)
     ffts         :      0.14s CPU      0.14s WALL (     266 calls)
     fftw         :     36.74s CPU     54.43s WALL (   71296 calls)
     interpolate  :      0.00s CPU      0.00s WALL (      16 calls)
 
     Parallel routines
 
     PWSCF        :     44.54s CPU   1m 5.93s WALL

 
   This run was terminated on:  12:50:47  21Feb2023            

=------------------------------------------------------------------------------=
   JOB DONE.
=------------------------------------------------------------------------------=
