
     Program PWSCF v.7.0 starts on  7Jul2023 at 14:23:45 

     This program is part of the open-source Quantum ESPRESSO suite
     for quantum simulation of materials; please cite
         "P. Giannozzi et al., J. Phys.:Condens. Matter 21 395502 (2009);
         "P. Giannozzi et al., J. Phys.:Condens. Matter 29 465901 (2017);
         "P. Giannozzi et al., J. Chem. Phys. 152 154105 (2020);
          URL http://www.quantum-espresso.org", 
     in publications or presentations arising from this work. More details at
     http://www.quantum-espresso.org/quote

     Parallel version (MPI), running on     1 processors

     MPI processes distributed on     1 nodes
     27208 MiB available memory on the printing compute node when the environment starts
 
     Waiting for input...
     Reading input from standard input
Warning: card &CELL ignored
Warning: card / ignored

     Current dimensions of program PWSCF are:
     Max number of different atomic species (ntypx) = 10
     Max number of k-points (npk) =  40000
     Max angular momentum in pseudopotentials (lmaxx) =  4

     WARNING: the MGGA functional with ID    5 has been 
     read together with other dft terms, but it should 
     stand alone in order to work properly. The other 
     terms will be ignored.

     WARNING: the MGGA functional with ID    5 has been 
     read together with other dft terms, but it should 
     stand alone in order to work properly. The other 
     terms will be ignored.

     Subspace diagonalization in iterative solution of the eigenvalue problem:
     a serial algorithm will be used

 
     G-vector sticks info
     --------------------
     sticks:   dense  smooth     PW     G-vecs:    dense   smooth      PW
     Sum         295     295     97                 3287     3287     645
 
     Using Slab Decomposition
 


     bravais-lattice index     =            2
     lattice parameter (alat)  =       6.5007  a.u.
     unit-cell volume          =      68.6771 (a.u.)^3
     number of atoms/cell      =            2
     number of atomic types    =            2
     number of electrons       =         8.00
     number of Kohn-Sham states=            4
     kinetic-energy cutoff     =      50.0000  Ry
     charge density cutoff     =     200.0000  Ry
     scf convergence threshold =      2.0E-05
     mixing beta               =       0.2000
     number of iterations used =            8  local-TF  mixing
     Exchange-correlation= SLA  PW   SCAN SCAN
                           (   0   0   0   0   0 263 267)

     celldm(1)=   6.500658  celldm(2)=   0.000000  celldm(3)=   0.000000
     celldm(4)=   0.000000  celldm(5)=   0.000000  celldm(6)=   0.000000

     crystal axes: (cart. coord. in units of alat)
               a(1) = (  -0.500000   0.000000   0.500000 )  
               a(2) = (   0.000000   0.500000   0.500000 )  
               a(3) = (  -0.500000   0.500000   0.000000 )  

     reciprocal axes: (cart. coord. in units 2 pi/alat)
               b(1) = ( -1.000000 -1.000000  1.000000 )  
               b(2) = (  1.000000  1.000000  1.000000 )  
               b(3) = ( -1.000000  1.000000 -1.000000 )  


     PseudoPot. # 1 for Li read from file:
     ~/Documents/TA/PWDFT.jl/pseudopotentials/scan_upf/Li.SCAN.UPF2
     MD5 check sum: Not computed, couldn't open file
     Pseudo is Norm-conserving, Zval =  1.0
     Generated by new atomic code, or converted to UPF format
     Using radial grid of 1321 points,  1 beta functions with: 
                l(1) =   0

     PseudoPot. # 2 for F  read from file:
     ~/Documents/TA/PWDFT.jl/pseudopotentials/scan_upf/F.SCAN.UPF2
     MD5 check sum: Not computed, couldn't open file
     Pseudo is Norm-conserving, Zval =  7.0
     Generated by new atomic code, or converted to UPF format
     Using radial grid of 1431 points,  1 beta functions with: 
                l(1) =   0

     atomic species   valence    mass     pseudopotential
        Li             1.00     6.94100     Li( 1.00)
        F              7.00    18.99800     F ( 1.00)

     48 Sym. Ops., with inversion, found



   Cartesian axes

     site n.     atom                  positions (alat units)
         1           Li  tau(   1) = (   0.0000000   0.0000000   0.0000000  )
         2           F   tau(   2) = (   0.5000000   0.5000000   0.5000000  )

     number of k points=    47
                       cart. coord. in units 2pi/alat
        k(    1) = (   0.0000000   0.0000000   0.0000000), wk =   0.0020000
        k(    2) = (  -0.1000000   0.1000000  -0.1000000), wk =   0.0160000
        k(    3) = (  -0.2000000   0.2000000  -0.2000000), wk =   0.0160000
        k(    4) = (  -0.3000000   0.3000000  -0.3000000), wk =   0.0160000
        k(    5) = (  -0.4000000   0.4000000  -0.4000000), wk =   0.0160000
        k(    6) = (   0.5000000  -0.5000000   0.5000000), wk =   0.0080000
        k(    7) = (   0.0000000   0.2000000   0.0000000), wk =   0.0120000
        k(    8) = (  -0.1000000   0.3000000  -0.1000000), wk =   0.0480000
        k(    9) = (  -0.2000000   0.4000000  -0.2000000), wk =   0.0480000
        k(   10) = (  -0.3000000   0.5000000  -0.3000000), wk =   0.0480000
        k(   11) = (   0.6000000  -0.4000000   0.6000000), wk =   0.0480000
        k(   12) = (   0.5000000  -0.3000000   0.5000000), wk =   0.0480000
        k(   13) = (   0.4000000  -0.2000000   0.4000000), wk =   0.0480000
        k(   14) = (   0.3000000  -0.1000000   0.3000000), wk =   0.0480000
        k(   15) = (   0.2000000   0.0000000   0.2000000), wk =   0.0240000
        k(   16) = (   0.0000000   0.4000000   0.0000000), wk =   0.0120000
        k(   17) = (  -0.1000000   0.5000000  -0.1000000), wk =   0.0480000
        k(   18) = (  -0.2000000   0.6000000  -0.2000000), wk =   0.0480000
        k(   19) = (   0.7000000  -0.3000000   0.7000000), wk =   0.0480000
        k(   20) = (   0.6000000  -0.2000000   0.6000000), wk =   0.0480000
        k(   21) = (   0.5000000  -0.1000000   0.5000000), wk =   0.0480000
        k(   22) = (   0.4000000   0.0000000   0.4000000), wk =   0.0240000
        k(   23) = (   0.0000000   0.6000000   0.0000000), wk =   0.0120000
        k(   24) = (  -0.1000000   0.7000000  -0.1000000), wk =   0.0480000
        k(   25) = (   0.8000000  -0.2000000   0.8000000), wk =   0.0480000
        k(   26) = (   0.7000000  -0.1000000   0.7000000), wk =   0.0480000
        k(   27) = (   0.6000000  -0.0000000   0.6000000), wk =   0.0240000
        k(   28) = (   0.0000000   0.8000000   0.0000000), wk =   0.0120000
        k(   29) = (   0.9000000  -0.1000000   0.9000000), wk =   0.0480000
        k(   30) = (   0.8000000   0.0000000   0.8000000), wk =   0.0240000
        k(   31) = (   0.0000000  -1.0000000   0.0000000), wk =   0.0060000
        k(   32) = (  -0.2000000   0.4000000   0.0000000), wk =   0.0480000
        k(   33) = (  -0.3000000   0.5000000  -0.1000000), wk =   0.0960000
        k(   34) = (   0.6000000  -0.4000000   0.8000000), wk =   0.0960000
        k(   35) = (   0.5000000  -0.3000000   0.7000000), wk =   0.0480000
        k(   36) = (  -0.2000000   0.6000000   0.0000000), wk =   0.0480000
        k(   37) = (   0.7000000  -0.3000000   0.9000000), wk =   0.0960000
        k(   38) = (   0.6000000  -0.2000000   0.8000000), wk =   0.0960000
        k(   39) = (   0.5000000  -0.1000000   0.7000000), wk =   0.0960000
        k(   40) = (   0.4000000   0.0000000   0.6000000), wk =   0.0480000
        k(   41) = (   0.8000000  -0.2000000   1.0000000), wk =   0.0480000
        k(   42) = (   0.7000000  -0.1000000   0.9000000), wk =   0.0960000
        k(   43) = (   0.6000000   0.0000000   0.8000000), wk =   0.0480000
        k(   44) = (  -0.2000000  -1.0000000   0.0000000), wk =   0.0240000
        k(   45) = (   0.6000000  -0.2000000   1.0000000), wk =   0.0480000
        k(   46) = (   0.5000000  -0.1000000   0.9000000), wk =   0.0480000
        k(   47) = (  -0.4000000  -1.0000000   0.0000000), wk =   0.0240000

     Dense  grid:     3287 G-vectors     FFT dimensions: (  24,  24,  24)

     Estimated max dynamical RAM per process >       6.64 MB

     WARNING: libxc functional with ID  263 depends
      on external parameters: check the user_guide of
      QE if you need to modify them or to check their
      default values.

     Initial potential from superposition of free atoms

     starting charge       7.9953, renormalised to       8.0000
     Starting wfcs are    8 randomized atomic wfcs

     total cpu time spent up to now is        1.0 secs

     Self-consistent Calculation

     iteration #  1     ecut=    50.00 Ry     beta= 0.20
     Davidson diagonalization with overlap
     ethr =  1.00E-02,  avg # of iterations =  2.0

     total cpu time spent up to now is        2.7 secs

     total energy              =     -48.37248789 Ry
     estimated scf accuracy    <      18.20497054 Ry

     iteration #  2     ecut=    50.00 Ry     beta= 0.20
     Davidson diagonalization with overlap
     ethr =  1.00E-02,  avg # of iterations =  1.0

     total cpu time spent up to now is        4.1 secs

     total energy              =     -48.38593152 Ry
     estimated scf accuracy    <      11.68799573 Ry

     iteration #  3     ecut=    50.00 Ry     beta= 0.20
     Davidson diagonalization with overlap
     ethr =  1.00E-02,  avg # of iterations =  1.0

     total cpu time spent up to now is        5.4 secs

     total energy              =     -48.38840330 Ry
     estimated scf accuracy    <       0.00566673 Ry

     iteration #  4     ecut=    50.00 Ry     beta= 0.20
     Davidson diagonalization with overlap
     ethr =  7.08E-05,  avg # of iterations =  1.0

     total cpu time spent up to now is        6.8 secs

     total energy              =     -48.38869450 Ry
     estimated scf accuracy    <       0.00597526 Ry

     iteration #  5     ecut=    50.00 Ry     beta= 0.20
     Davidson diagonalization with overlap
     ethr =  7.08E-05,  avg # of iterations =  1.0

     total cpu time spent up to now is        8.1 secs

     total energy              =     -48.38894706 Ry
     estimated scf accuracy    <       0.00246535 Ry

     iteration #  6     ecut=    50.00 Ry     beta= 0.20
     Davidson diagonalization with overlap
     ethr =  3.08E-05,  avg # of iterations =  1.0

     total cpu time spent up to now is        9.5 secs

     total energy              =     -48.38902266 Ry
     estimated scf accuracy    <       0.00068377 Ry

     iteration #  7     ecut=    50.00 Ry     beta= 0.20
     Davidson diagonalization with overlap
     ethr =  8.55E-06,  avg # of iterations =  1.0

     total cpu time spent up to now is       10.8 secs

     End of self-consistent calculation

          k = 0.0000 0.0000 0.0000 (   411 PWs)   bands (ev):

   -19.2208   4.7881   4.7881   4.7881

          k =-0.1000 0.1000-0.1000 (   405 PWs)   bands (ev):

   -19.1222   4.4141   4.7684   4.7684

          k =-0.2000 0.2000-0.2000 (   402 PWs)   bands (ev):

   -18.8564   3.2173   4.6675   4.6675

          k =-0.3000 0.3000-0.3000 (   407 PWs)   bands (ev):

   -18.5043   1.7207   4.5128   4.5128

          k =-0.4000 0.4000-0.4000 (   413 PWs)   bands (ev):

   -18.1962   0.6114   4.3442   4.3442

          k = 0.5000-0.5000 0.5000 (   410 PWs)   bands (ev):

   -18.0715   0.2916   4.2775   4.2775

          k = 0.0000 0.2000 0.0000 (   399 PWs)   bands (ev):

   -19.0863   4.6177   4.6233   4.6233

          k =-0.1000 0.3000-0.1000 (   406 PWs)   bands (ev):

   -18.8696   3.5335   4.3357   4.5613

          k =-0.2000 0.4000-0.2000 (   403 PWs)   bands (ev):

   -18.5328   2.1434   4.2112   4.4069

          k =-0.3000 0.5000-0.3000 (   411 PWs)   bands (ev):

   -18.1951   0.8983   4.0692   4.0722

          k = 0.6000-0.4000 0.6000 (   411 PWs)   bands (ev):

   -17.9993   0.3333   3.7790   4.0979

          k = 0.5000-0.3000 0.5000 (   411 PWs)   bands (ev):

   -18.0447   0.4539   3.6744   4.2890

          k = 0.4000-0.2000 0.4000 (   409 PWs)   bands (ev):

   -18.3076   1.2959   3.7444   4.5690

          k = 0.3000-0.1000 0.3000 (   404 PWs)   bands (ev):

   -18.6613   2.6369   3.9956   4.7887

          k = 0.2000 0.0000 0.2000 (   403 PWs)   bands (ev):

   -18.9655   3.8485   4.3860   4.8567

          k = 0.0000 0.4000 0.0000 (   407 PWs)   bands (ev):

   -18.6963   3.3055   3.9981   3.9981

          k =-0.1000 0.5000-0.1000 (   411 PWs)   bands (ev):

   -18.3871   2.0731   3.7266   3.7270

          k =-0.2000 0.6000-0.2000 (   417 PWs)   bands (ev):

   -18.0434   0.9488   3.2489   3.5203

          k = 0.7000-0.3000 0.7000 (   412 PWs)   bands (ev):

   -17.8042   0.3520   2.7215   3.6871

          k = 0.6000-0.2000 0.6000 (   404 PWs)   bands (ev):

   -17.7865   0.4487   2.4252   4.0105

          k = 0.5000-0.1000 0.5000 (   412 PWs)   bands (ev):

   -18.0014   1.1008   2.3473   4.2987

          k = 0.4000 0.0000 0.4000 (   409 PWs)   bands (ev):

   -18.3402   2.0057   2.8788   4.6443

          k = 0.0000 0.6000 0.0000 (   423 PWs)   bands (ev):

   -18.1075   1.1995   3.2720   3.2720

          k =-0.1000 0.7000-0.1000 (   416 PWs)   bands (ev):

   -17.7843   0.3085   2.9176   3.0932

          k = 0.8000-0.2000 0.8000 (   416 PWs)   bands (ev):

   -17.5493  -0.1385   2.2793   3.0873

          k = 0.7000-0.1000 0.7000 (   410 PWs)   bands (ev):

   -17.5118   0.0382   1.7088   3.4634

          k = 0.6000-0.0000 0.6000 (   407 PWs)   bands (ev):

   -17.6918   0.9517   1.3231   3.8873

          k = 0.0000 0.8000 0.0000 (   424 PWs)   bands (ev):

   -17.5093  -0.5269   2.7188   2.7188

          k = 0.9000-0.1000 0.9000 (   415 PWs)   bands (ev):

   -17.3289  -0.9166   2.4605   2.7511

          k = 0.8000 0.0000 0.8000 (   411 PWs)   bands (ev):

   -17.3305  -0.6405   1.9538   3.0180

          k = 0.0000-1.0000 0.0000 (   412 PWs)   bands (ev):

   -17.2407  -1.2592   2.6615   2.6615

          k =-0.2000 0.4000 0.0000 (   408 PWs)   bands (ev):

   -18.6078   2.7255   3.7111   4.4626

          k =-0.3000 0.5000-0.1000 (   407 PWs)   bands (ev):

   -18.2595   1.6164   3.1922   4.3095

          k = 0.6000-0.4000 0.8000 (   413 PWs)   bands (ev):

   -17.9554   0.6716   2.8548   4.0398

          k = 0.5000-0.3000 0.7000 (   410 PWs)   bands (ev):

   -17.8324   0.3518   2.8024   3.9293

          k =-0.2000 0.6000 0.0000 (   413 PWs)   bands (ev):

   -18.0655   1.1838   2.9253   3.6800

          k = 0.7000-0.3000 0.9000 (   412 PWs)   bands (ev):

   -17.7578   0.4843   2.2617   3.5741

          k = 0.6000-0.2000 0.8000 (   408 PWs)   bands (ev):

   -17.5978   0.2889   1.7739   3.6119

          k = 0.5000-0.1000 0.7000 (   408 PWs)   bands (ev):

   -17.6662   0.6850   1.5425   3.7823

          k = 0.4000 0.0000 0.6000 (   416 PWs)   bands (ev):

   -17.9284   1.1823   1.9549   4.0146

          k = 0.8000-0.2000 1.0000 (   416 PWs)   bands (ev):

   -17.5181  -0.3327   2.3665   3.0407

          k = 0.7000-0.1000 0.9000 (   411 PWs)   bands (ev):

   -17.3815  -0.3880   1.7375   3.1739

          k = 0.6000 0.0000 0.8000 (   410 PWs)   bands (ev):

   -17.4411   0.1682   1.2183   3.4201

          k =-0.2000-1.0000 0.0000 (   414 PWs)   bands (ev):

   -17.2751  -0.9801   2.2016   2.8362

          k = 0.6000-0.2000 1.0000 (   408 PWs)   bands (ev):

   -17.5114   0.3287   1.3288   3.4989

          k = 0.5000-0.1000 0.9000 (   408 PWs)   bands (ev):

   -17.4137   0.4364   0.7686   3.4905

          k =-0.4000-1.0000 0.0000 (   408 PWs)   bands (ev):

   -17.3284  -0.1143   1.0531   3.3574

     highest occupied level (ev):     4.8567

!    total energy              =     -48.38903536 Ry
     estimated scf accuracy    <       0.00001266 Ry

     The total energy is the sum of the following terms:
     one-electron contribution =     -13.59489962 Ry
     hartree contribution      =      12.91251602 Ry
     xc contribution           =     -10.09517160 Ry
     ewald contribution        =     -37.61148016 Ry

     convergence has been achieved in   7 iterations
     Writing meta-gga kinetic term

     Writing all to output data dir ./input_pw/LiF/0/pwscf.save/
     Writing meta-gga kinetic term
 
     init_run     :      0.56s CPU      0.94s WALL (       1 calls)
     electrons    :      4.72s CPU      9.77s WALL (       1 calls)

     Called by init_run:
     wfcinit      :      0.49s CPU      0.73s WALL (       1 calls)
     potinit      :      0.01s CPU      0.06s WALL (       1 calls)
     hinit0       :      0.06s CPU      0.14s WALL (       1 calls)

     Called by electrons:
     c_bands      :      3.71s CPU      7.68s WALL (       7 calls)
     sum_band     :      0.92s CPU      1.88s WALL (       7 calls)
     v_of_rho     :      0.07s CPU      0.17s WALL (       8 calls)
     mix_rho      :      0.03s CPU      0.08s WALL (       7 calls)

     Called by c_bands:
     init_us_2    :      0.02s CPU      0.03s WALL (     705 calls)
     init_us_2:cp :      0.02s CPU      0.02s WALL (     705 calls)
     cegterg      :      3.69s CPU      7.65s WALL (     329 calls)

     Called by *egterg:
     cdiaghg      :      0.03s CPU      0.06s WALL (     705 calls)
     h_psi        :      4.08s CPU      8.21s WALL (     752 calls)
     g_psi        :      0.00s CPU      0.01s WALL (     376 calls)

     Called by h_psi:
     h_psi:calbec :      0.01s CPU      0.02s WALL (     752 calls)
     vloc_psi     :      1.01s CPU      2.03s WALL (     752 calls)
     add_vuspsi   :      0.01s CPU      0.02s WALL (     752 calls)
     h_psi_meta   :      3.04s CPU      6.11s WALL (     752 calls)

     General routines
     calbec       :      0.01s CPU      0.01s WALL (     752 calls)
     fft          :      0.01s CPU      0.04s WALL (      93 calls)
     ffts         :      0.02s CPU      0.05s WALL (     152 calls)
     fftw         :      4.47s CPU      9.04s WALL (   30440 calls)
     interpolate  :      0.00s CPU      0.00s WALL (       8 calls)
 
     Parallel routines
 
     PWSCF        :      5.33s CPU     10.82s WALL

 
   This run was terminated on:  14:23:56   7Jul2023            

=------------------------------------------------------------------------------=
   JOB DONE.
=------------------------------------------------------------------------------=
