
     Program PWSCF v.7.0 starts on 10Apr2023 at  9:43:44 

     This program is part of the open-source Quantum ESPRESSO suite
     for quantum simulation of materials; please cite
         "P. Giannozzi et al., J. Phys.:Condens. Matter 21 395502 (2009);
         "P. Giannozzi et al., J. Phys.:Condens. Matter 29 465901 (2017);
         "P. Giannozzi et al., J. Chem. Phys. 152 154105 (2020);
          URL http://www.quantum-espresso.org", 
     in publications or presentations arising from this work. More details at
     http://www.quantum-espresso.org/quote

     Parallel version (MPI), running on     1 processors

     MPI processes distributed on     1 nodes
     19443 MiB available memory on the printing compute node when the environment starts
 
     Waiting for input...
     Reading input from standard input
Warning: card &CELL ignored
Warning: card / ignored

     Current dimensions of program PWSCF are:
     Max number of different atomic species (ntypx) = 10
     Max number of k-points (npk) =  40000
     Max angular momentum in pseudopotentials (lmaxx) =  4

     WARNING: the MGGA functional with ID    5 has been 
     read together with other dft terms, but it should 
     stand alone in order to work properly. The other 
     terms will be ignored.

     WARNING: the MGGA functional with ID    5 has been 
     read together with other dft terms, but it should 
     stand alone in order to work properly. The other 
     terms will be ignored.

     Subspace diagonalization in iterative solution of the eigenvalue problem:
     a serial algorithm will be used

 
     G-vector sticks info
     --------------------
     sticks:   dense  smooth     PW     G-vecs:    dense   smooth      PW
     Sum         241     241     85                 2445     2445     531
 
     Using Slab Decomposition
 


     bravais-lattice index     =            2
     lattice parameter (alat)  =       5.8959  a.u.
     unit-cell volume          =      51.2390 (a.u.)^3
     number of atoms/cell      =            2
     number of atomic types    =            2
     number of electrons       =         8.00
     number of Kohn-Sham states=            4
     kinetic-energy cutoff     =      50.0000  Ry
     charge density cutoff     =     200.0000  Ry
     scf convergence threshold =      1.0E-06
     mixing beta               =       0.0100
     number of iterations used =            8  local-TF  mixing
     Exchange-correlation= SLA  PW   SCAN SCAN
                           (   0   0   0   0   0 263 267)

     celldm(1)=   5.895946  celldm(2)=   0.000000  celldm(3)=   0.000000
     celldm(4)=   0.000000  celldm(5)=   0.000000  celldm(6)=   0.000000

     crystal axes: (cart. coord. in units of alat)
               a(1) = (  -0.500000   0.000000   0.500000 )  
               a(2) = (   0.000000   0.500000   0.500000 )  
               a(3) = (  -0.500000   0.500000   0.000000 )  

     reciprocal axes: (cart. coord. in units 2 pi/alat)
               b(1) = ( -1.000000 -1.000000  1.000000 )  
               b(2) = (  1.000000  1.000000  1.000000 )  
               b(3) = ( -1.000000  1.000000 -1.000000 )  


     PseudoPot. # 1 for Li read from file:
     ~/Documents/TA/PWDFT.jl/pseudopotentials/scan_upf/Li.SCAN.UPF2
     MD5 check sum: Not computed, couldn't open file
     Pseudo is Norm-conserving, Zval =  1.0
     Generated by new atomic code, or converted to UPF format
     Using radial grid of 1321 points,  1 beta functions with: 
                l(1) =   0

     PseudoPot. # 2 for F  read from file:
     ~/Documents/TA/PWDFT.jl/pseudopotentials/scan_upf/F.SCAN.UPF2
     MD5 check sum: Not computed, couldn't open file
     Pseudo is Norm-conserving, Zval =  7.0
     Generated by new atomic code, or converted to UPF format
     Using radial grid of 1431 points,  1 beta functions with: 
                l(1) =   0

     atomic species   valence    mass     pseudopotential
        Li             1.00     6.94100     Li( 1.00)
        F              7.00    18.99800     F ( 1.00)

     48 Sym. Ops., with inversion, found



   Cartesian axes

     site n.     atom                  positions (alat units)
         1           Li  tau(   1) = (   0.0000000   0.0000000   0.0000000  )
         2           F   tau(   2) = (   0.5000000   0.5000000   0.5000000  )

     number of k points=    47
                       cart. coord. in units 2pi/alat
        k(    1) = (   0.0000000   0.0000000   0.0000000), wk =   0.0020000
        k(    2) = (  -0.1000000   0.1000000  -0.1000000), wk =   0.0160000
        k(    3) = (  -0.2000000   0.2000000  -0.2000000), wk =   0.0160000
        k(    4) = (  -0.3000000   0.3000000  -0.3000000), wk =   0.0160000
        k(    5) = (  -0.4000000   0.4000000  -0.4000000), wk =   0.0160000
        k(    6) = (   0.5000000  -0.5000000   0.5000000), wk =   0.0080000
        k(    7) = (   0.0000000   0.2000000   0.0000000), wk =   0.0120000
        k(    8) = (  -0.1000000   0.3000000  -0.1000000), wk =   0.0480000
        k(    9) = (  -0.2000000   0.4000000  -0.2000000), wk =   0.0480000
        k(   10) = (  -0.3000000   0.5000000  -0.3000000), wk =   0.0480000
        k(   11) = (   0.6000000  -0.4000000   0.6000000), wk =   0.0480000
        k(   12) = (   0.5000000  -0.3000000   0.5000000), wk =   0.0480000
        k(   13) = (   0.4000000  -0.2000000   0.4000000), wk =   0.0480000
        k(   14) = (   0.3000000  -0.1000000   0.3000000), wk =   0.0480000
        k(   15) = (   0.2000000   0.0000000   0.2000000), wk =   0.0240000
        k(   16) = (   0.0000000   0.4000000   0.0000000), wk =   0.0120000
        k(   17) = (  -0.1000000   0.5000000  -0.1000000), wk =   0.0480000
        k(   18) = (  -0.2000000   0.6000000  -0.2000000), wk =   0.0480000
        k(   19) = (   0.7000000  -0.3000000   0.7000000), wk =   0.0480000
        k(   20) = (   0.6000000  -0.2000000   0.6000000), wk =   0.0480000
        k(   21) = (   0.5000000  -0.1000000   0.5000000), wk =   0.0480000
        k(   22) = (   0.4000000   0.0000000   0.4000000), wk =   0.0240000
        k(   23) = (   0.0000000   0.6000000   0.0000000), wk =   0.0120000
        k(   24) = (  -0.1000000   0.7000000  -0.1000000), wk =   0.0480000
        k(   25) = (   0.8000000  -0.2000000   0.8000000), wk =   0.0480000
        k(   26) = (   0.7000000  -0.1000000   0.7000000), wk =   0.0480000
        k(   27) = (   0.6000000  -0.0000000   0.6000000), wk =   0.0240000
        k(   28) = (   0.0000000   0.8000000   0.0000000), wk =   0.0120000
        k(   29) = (   0.9000000  -0.1000000   0.9000000), wk =   0.0480000
        k(   30) = (   0.8000000   0.0000000   0.8000000), wk =   0.0240000
        k(   31) = (   0.0000000  -1.0000000   0.0000000), wk =   0.0060000
        k(   32) = (  -0.2000000   0.4000000   0.0000000), wk =   0.0480000
        k(   33) = (  -0.3000000   0.5000000  -0.1000000), wk =   0.0960000
        k(   34) = (   0.6000000  -0.4000000   0.8000000), wk =   0.0960000
        k(   35) = (   0.5000000  -0.3000000   0.7000000), wk =   0.0480000
        k(   36) = (  -0.2000000   0.6000000   0.0000000), wk =   0.0480000
        k(   37) = (   0.7000000  -0.3000000   0.9000000), wk =   0.0960000
        k(   38) = (   0.6000000  -0.2000000   0.8000000), wk =   0.0960000
        k(   39) = (   0.5000000  -0.1000000   0.7000000), wk =   0.0960000
        k(   40) = (   0.4000000   0.0000000   0.6000000), wk =   0.0480000
        k(   41) = (   0.8000000  -0.2000000   1.0000000), wk =   0.0480000
        k(   42) = (   0.7000000  -0.1000000   0.9000000), wk =   0.0960000
        k(   43) = (   0.6000000   0.0000000   0.8000000), wk =   0.0480000
        k(   44) = (  -0.2000000  -1.0000000   0.0000000), wk =   0.0240000
        k(   45) = (   0.6000000  -0.2000000   1.0000000), wk =   0.0480000
        k(   46) = (   0.5000000  -0.1000000   0.9000000), wk =   0.0480000
        k(   47) = (  -0.4000000  -1.0000000   0.0000000), wk =   0.0240000

     Dense  grid:     2445 G-vectors     FFT dimensions: (  20,  20,  20)

     Estimated max dynamical RAM per process >       4.69 MB

     WARNING: libxc functional with ID  263 depends
      on external parameters: check the user_guide of
      QE if you need to modify them or to check their
      default values.

     Initial potential from superposition of free atoms

     starting charge       7.9953, renormalised to       8.0000
     Starting wfcs are    8 randomized atomic wfcs

     total cpu time spent up to now is        1.0 secs

     Self-consistent Calculation

     iteration #  1     ecut=    50.00 Ry     beta= 0.01
     Davidson diagonalization with overlap
     ethr =  1.00E-02,  avg # of iterations =  2.0

     total cpu time spent up to now is        2.0 secs

     total energy              =     -48.06753404 Ry
     estimated scf accuracy    <      18.61020508 Ry

     iteration #  2     ecut=    50.00 Ry     beta= 0.01
     Davidson diagonalization with overlap
     ethr =  1.00E-02,  avg # of iterations =  1.0

     total cpu time spent up to now is        2.8 secs

     total energy              =     -48.11796273 Ry
     estimated scf accuracy    <      18.11236955 Ry

     iteration #  3     ecut=    50.00 Ry     beta= 0.01
     Davidson diagonalization with overlap
     ethr =  1.00E-02,  avg # of iterations =  1.0

     total cpu time spent up to now is        3.6 secs

     total energy              =     -48.13158560 Ry
     estimated scf accuracy    <       2.87759940 Ry

     iteration #  4     ecut=    50.00 Ry     beta= 0.01
     Davidson diagonalization with overlap
     ethr =  1.00E-02,  avg # of iterations =  1.0

     total cpu time spent up to now is        4.3 secs

     total energy              =     -48.13200388 Ry
     estimated scf accuracy    <       0.00432788 Ry

     iteration #  5     ecut=    50.00 Ry     beta= 0.01
     Davidson diagonalization with overlap
     ethr =  5.41E-05,  avg # of iterations =  1.0

     total cpu time spent up to now is        5.1 secs

     total energy              =     -48.13194351 Ry
     estimated scf accuracy    <       0.00405895 Ry

     iteration #  6     ecut=    50.00 Ry     beta= 0.01
     Davidson diagonalization with overlap
     ethr =  5.07E-05,  avg # of iterations =  1.0

     total cpu time spent up to now is        5.9 secs

     total energy              =     -48.13107972 Ry
     estimated scf accuracy    <       0.00364332 Ry

     iteration #  7     ecut=    50.00 Ry     beta= 0.01
     Davidson diagonalization with overlap
     ethr =  4.55E-05,  avg # of iterations =  2.0

     total cpu time spent up to now is        7.1 secs

     total energy              =     -48.13190797 Ry
     estimated scf accuracy    <       0.00969630 Ry

     iteration #  8     ecut=    50.00 Ry     beta= 0.01
     Davidson diagonalization with overlap
     ethr =  4.55E-05,  avg # of iterations =  1.0

     total cpu time spent up to now is        7.9 secs

     total energy              =     -48.13169762 Ry
     estimated scf accuracy    <       0.00955131 Ry

     iteration #  9     ecut=    50.00 Ry     beta= 0.01
     Davidson diagonalization with overlap
     ethr =  4.55E-05,  avg # of iterations =  1.0

     total cpu time spent up to now is        8.5 secs

     total energy              =     -48.13178449 Ry
     estimated scf accuracy    <       0.00008042 Ry

     iteration # 10     ecut=    50.00 Ry     beta= 0.01
     Davidson diagonalization with overlap
     ethr =  1.01E-06,  avg # of iterations =  2.0

     total cpu time spent up to now is        9.7 secs

     total energy              =     -48.13179781 Ry
     estimated scf accuracy    <       0.00020285 Ry

     iteration # 11     ecut=    50.00 Ry     beta= 0.01
     Davidson diagonalization with overlap
     ethr =  1.01E-06,  avg # of iterations =  1.0

     total cpu time spent up to now is       10.6 secs

     total energy              =     -48.13179028 Ry
     estimated scf accuracy    <       0.00023531 Ry

     iteration # 12     ecut=    50.00 Ry     beta= 0.01
     Davidson diagonalization with overlap
     ethr =  1.01E-06,  avg # of iterations =  1.0

     total cpu time spent up to now is       11.6 secs

     total energy              =     -48.13179177 Ry
     estimated scf accuracy    <       0.00002294 Ry

     iteration # 13     ecut=    50.00 Ry     beta= 0.01
     Davidson diagonalization with overlap
     ethr =  2.87E-07,  avg # of iterations =  1.0

     total cpu time spent up to now is       12.4 secs

     End of self-consistent calculation

          k = 0.0000 0.0000 0.0000 (   331 PWs)   bands (ev):

   -16.4977   8.9576   8.9576   8.9576

          k =-0.1000 0.1000-0.1000 (   310 PWs)   bands (ev):

   -16.3857   8.6212   9.0895   9.0895

          k =-0.2000 0.2000-0.2000 (   311 PWs)   bands (ev):

   -16.0820   7.0770   8.8763   8.8763

          k =-0.3000 0.3000-0.3000 (   305 PWs)   bands (ev):

   -15.6643   5.3863   8.6841   8.6841

          k =-0.4000 0.4000-0.4000 (   302 PWs)   bands (ev):

   -15.2863   4.0013   8.5545   8.5545

          k = 0.5000-0.5000 0.5000 (   302 PWs)   bands (ev):

   -15.1315   3.4720   8.4928   8.4928

          k = 0.0000 0.2000 0.0000 (   307 PWs)   bands (ev):

   -16.3421   8.8456   8.8645   8.8645

          k =-0.1000 0.3000-0.1000 (   307 PWs)   bands (ev):

   -16.0831   7.6038   8.5096   8.7488

          k =-0.2000 0.4000-0.2000 (   300 PWs)   bands (ev):

   -15.6713   5.8715   8.3033   8.5453

          k =-0.3000 0.5000-0.3000 (   299 PWs)   bands (ev):

   -15.2438   4.3137   8.1244   8.1864

          k = 0.6000-0.4000 0.6000 (   307 PWs)   bands (ev):

   -14.9930   3.4541   7.6863   8.1241

          k = 0.5000-0.3000 0.5000 (   303 PWs)   bands (ev):

   -15.0541   3.6729   7.5319   8.4665

          k = 0.4000-0.2000 0.4000 (   305 PWs)   bands (ev):

   -15.3951   4.8186   7.5975   8.7790

          k = 0.3000-0.1000 0.3000 (   306 PWs)   bands (ev):

   -15.8376   6.5269   7.9057   9.0462

          k = 0.2000 0.0000 0.2000 (   311 PWs)   bands (ev):

   -16.2039   7.9874   8.4571   9.0914

          k = 0.0000 0.4000 0.0000 (   303 PWs)   bands (ev):

   -15.8447   7.4011   7.9919   7.9919

          k =-0.1000 0.5000-0.1000 (   305 PWs)   bands (ev):

   -15.4228   5.7768   7.5484   7.5783

          k =-0.2000 0.6000-0.2000 (   316 PWs)   bands (ev):

   -14.9471   4.0689   6.8092   7.3336

          k = 0.7000-0.3000 0.7000 (   306 PWs)   bands (ev):

   -14.6088   3.2205   6.2467   7.4875

          k = 0.6000-0.2000 0.6000 (   303 PWs)   bands (ev):

   -14.5993   3.3011   5.8116   7.9231

          k = 0.5000-0.1000 0.5000 (   307 PWs)   bands (ev):

   -14.9260   4.3220   5.7148   8.4417

          k = 0.4000 0.0000 0.4000 (   305 PWs)   bands (ev):

   -15.4075   5.8501   6.2730   8.8934

          k = 0.0000 0.6000 0.0000 (   311 PWs)   bands (ev):

   -14.9784   4.4582   6.9658   6.9658

          k =-0.1000 0.7000-0.1000 (   313 PWs)   bands (ev):

   -14.4653   2.9643   6.3948   6.6503

          k = 0.8000-0.2000 0.8000 (   307 PWs)   bands (ev):

   -14.0907   2.1971   5.6484   6.7064

          k = 0.7000-0.1000 0.7000 (   304 PWs)   bands (ev):

   -14.0629   2.3614   4.9858   7.1255

          k = 0.6000-0.0000 0.6000 (   303 PWs)   bands (ev):

   -14.4037   3.4473   4.7378   7.8129

          k = 0.0000 0.8000 0.0000 (   322 PWs)   bands (ev):

   -13.9539   1.5217   6.1523   6.1523

          k = 0.9000-0.1000 0.9000 (   306 PWs)   bands (ev):

   -13.6244   0.9778   5.8082   6.1680

          k = 0.8000 0.0000 0.8000 (   300 PWs)   bands (ev):

   -13.6671   1.2878   5.3027   6.5177

          k = 0.0000-1.0000 0.0000 (   302 PWs)   bands (ev):

   -13.4311   0.4804   5.9999   5.9999

          k =-0.2000 0.4000 0.0000 (   306 PWs)   bands (ev):

   -15.7476   6.7215   7.4533   8.6357

          k =-0.3000 0.5000-0.1000 (   311 PWs)   bands (ev):

   -15.2866   5.1052   6.6885   8.3576

          k = 0.6000-0.4000 0.8000 (   306 PWs)   bands (ev):

   -14.8643   3.7927   6.3505   8.1154

          k = 0.5000-0.3000 0.7000 (   302 PWs)   bands (ev):

   -14.6894   3.3224   6.2454   8.0046

          k =-0.2000 0.6000 0.0000 (   309 PWs)   bands (ev):

   -14.9466   4.3855   6.3729   7.5584

          k = 0.7000-0.3000 0.9000 (   304 PWs)   bands (ev):

   -14.4747   3.3300   5.4582   7.4631

          k = 0.6000-0.2000 0.8000 (   299 PWs)   bands (ev):

   -14.2292   2.9098   4.8374   7.5765

          k = 0.5000-0.1000 0.7000 (   305 PWs)   bands (ev):

   -14.3582   3.4251   4.5617   7.7284

          k = 0.4000 0.0000 0.6000 (   310 PWs)   bands (ev):

   -14.7837   4.5385   4.9336   8.0921

          k = 0.8000-0.2000 1.0000 (   311 PWs)   bands (ev):

   -14.0028   1.9454   5.5141   6.6920

          k = 0.7000-0.1000 0.9000 (   302 PWs)   bands (ev):

   -13.7750   1.7036   4.6934   7.0357

          k = 0.6000 0.0000 0.8000 (   300 PWs)   bands (ev):

   -13.9210   2.4139   4.1880   7.3715

          k =-0.2000-1.0000 0.0000 (   304 PWs)   bands (ev):

   -13.5294   0.8785   5.2730   6.4572

          k = 0.6000-0.2000 1.0000 (   305 PWs)   bands (ev):

   -14.0451   2.8645   3.9688   7.5163

          k = 0.5000-0.1000 0.9000 (   304 PWs)   bands (ev):

   -13.8663   2.8877   3.2694   7.4742

          k =-0.4000-1.0000 0.0000 (   302 PWs)   bands (ev):

   -13.6826   1.9839   3.6458   7.4002

     highest occupied level (ev):     9.0914

!    total energy              =     -48.13179227 Ry
     estimated scf accuracy    <       0.00000078 Ry

     The total energy is the sum of the following terms:
     one-electron contribution =      -7.22241233 Ry
     hartree contribution      =      10.85845354 Ry
     xc contribution           =     -10.29876562 Ry
     ewald contribution        =     -41.46906786 Ry

     convergence has been achieved in  13 iterations
     Writing meta-gga kinetic term

     Writing all to output data dir ./input_pw/LiF/0/pwscf.save/
     Writing meta-gga kinetic term
 
     init_run     :      0.37s CPU      0.90s WALL (       1 calls)
     electrons    :      5.36s CPU     11.38s WALL (       1 calls)

     Called by init_run:
     wfcinit      :      0.30s CPU      0.72s WALL (       1 calls)
     potinit      :      0.01s CPU      0.03s WALL (       1 calls)
     hinit0       :      0.06s CPU      0.14s WALL (       1 calls)

     Called by electrons:
     c_bands      :      4.24s CPU      9.12s WALL (      13 calls)
     sum_band     :      1.01s CPU      2.01s WALL (      13 calls)
     v_of_rho     :      0.07s CPU      0.17s WALL (      14 calls)
     mix_rho      :      0.04s CPU      0.10s WALL (      13 calls)

     Called by c_bands:
     init_us_2    :      0.03s CPU      0.05s WALL (    1269 calls)
     init_us_2:cp :      0.02s CPU      0.05s WALL (    1269 calls)
     cegterg      :      4.21s CPU      9.06s WALL (     611 calls)

     Called by *egterg:
     cdiaghg      :      0.05s CPU      0.07s WALL (    1363 calls)
     h_psi        :      4.37s CPU      9.47s WALL (    1410 calls)
     g_psi        :      0.00s CPU      0.00s WALL (     752 calls)

     Called by h_psi:
     h_psi:calbec :      0.01s CPU      0.03s WALL (    1410 calls)
     vloc_psi     :      1.08s CPU      2.27s WALL (    1410 calls)
     add_vuspsi   :      0.01s CPU      0.01s WALL (    1410 calls)
     h_psi_meta   :      3.25s CPU      7.14s WALL (    1410 calls)

     General routines
     calbec       :      0.01s CPU      0.02s WALL (    1410 calls)
     fft          :      0.02s CPU      0.07s WALL (     165 calls)
     ffts         :      0.02s CPU      0.05s WALL (     286 calls)
     fftw         :      4.78s CPU     10.20s WALL (   56160 calls)
     interpolate  :      0.00s CPU      0.00s WALL (      14 calls)
 
     Parallel routines
 
     PWSCF        :      5.78s CPU     12.44s WALL

 
   This run was terminated on:   9:43:57  10Apr2023            

=------------------------------------------------------------------------------=
   JOB DONE.
=------------------------------------------------------------------------------=
