
     Program PWSCF v.7.0 starts on 14Mar2023 at 14:31: 7 

     This program is part of the open-source Quantum ESPRESSO suite
     for quantum simulation of materials; please cite
         "P. Giannozzi et al., J. Phys.:Condens. Matter 21 395502 (2009);
         "P. Giannozzi et al., J. Phys.:Condens. Matter 29 465901 (2017);
         "P. Giannozzi et al., J. Chem. Phys. 152 154105 (2020);
          URL http://www.quantum-espresso.org", 
     in publications or presentations arising from this work. More details at
     http://www.quantum-espresso.org/quote

     Parallel version (MPI), running on     1 processors

     MPI processes distributed on     1 nodes
     26616 MiB available memory on the printing compute node when the environment starts
 
     Waiting for input...
     Reading input from standard input
Warning: card &CELL ignored
Warning: card / ignored

     Current dimensions of program PWSCF are:
     Max number of different atomic species (ntypx) = 10
     Max number of k-points (npk) =  40000
     Max angular momentum in pseudopotentials (lmaxx) =  4
     file Cl.SCAN.UPF2: wavefunction(s)  0D renormalized

     WARNING: the MGGA functional with ID    5 has been 
     read together with other dft terms, but it should 
     stand alone in order to work properly. The other 
     terms will be ignored.

     WARNING: the MGGA functional with ID    5 has been 
     read together with other dft terms, but it should 
     stand alone in order to work properly. The other 
     terms will be ignored.

     Subspace diagonalization in iterative solution of the eigenvalue problem:
     a serial algorithm will be used

 
     G-vector sticks info
     --------------------
     sticks:   dense  smooth     PW     G-vecs:    dense   smooth      PW
     Sum         595     595    199                 9841     9841    1759
 
     Using Slab Decomposition
 


     bravais-lattice index     =            2
     lattice parameter (alat)  =       9.3590  a.u.
     unit-cell volume          =     204.9408 (a.u.)^3
     number of atoms/cell      =            2
     number of atomic types    =            2
     number of electrons       =         8.00
     number of Kohn-Sham states=            4
     kinetic-energy cutoff     =      50.0000  Ry
     charge density cutoff     =     200.0000  Ry
     scf convergence threshold =      1.0E-06
     mixing beta               =       0.0100
     number of iterations used =            8  local-TF  mixing
     Exchange-correlation= SLA  PW   SCAN SCAN
                           (   0   0   0   0   0 263 267)

     celldm(1)=   9.359000  celldm(2)=   0.000000  celldm(3)=   0.000000
     celldm(4)=   0.000000  celldm(5)=   0.000000  celldm(6)=   0.000000

     crystal axes: (cart. coord. in units of alat)
               a(1) = (  -0.500000   0.000000   0.500000 )  
               a(2) = (   0.000000   0.500000   0.500000 )  
               a(3) = (  -0.500000   0.500000   0.000000 )  

     reciprocal axes: (cart. coord. in units 2 pi/alat)
               b(1) = ( -1.000000 -1.000000  1.000000 )  
               b(2) = (  1.000000  1.000000  1.000000 )  
               b(3) = ( -1.000000  1.000000 -1.000000 )  


     PseudoPot. # 1 for Li read from file:
     ~/Documents/TA/PWDFT.jl/pseudopotentials/scan_upf/Li.SCAN.UPF2
     MD5 check sum: Not computed, couldn't open file
     Pseudo is Norm-conserving, Zval =  1.0
     Generated by new atomic code, or converted to UPF format
     Using radial grid of 1321 points,  1 beta functions with: 
                l(1) =   0

     PseudoPot. # 2 for Cl read from file:
     ~/Documents/TA/PWDFT.jl/pseudopotentials/scan_upf/Cl.SCAN.UPF2
     MD5 check sum: Not computed, couldn't open file
     Pseudo is Norm-conserving, Zval =  7.0
     Generated by new atomic code, or converted to UPF format
     Using radial grid of 1493 points,  2 beta functions with: 
                l(1) =   0
                l(2) =   1

     atomic species   valence    mass     pseudopotential
        Na             1.00     6.94100     Li( 1.00)
        Cl             7.00    35.45300     Cl( 1.00)

     48 Sym. Ops., with inversion, found



   Cartesian axes

     site n.     atom                  positions (alat units)
         1           Na  tau(   1) = (   0.0000000   0.0000000   0.0000000  )
         2           Cl  tau(   2) = (   0.5000000   0.5000000   0.5000000  )

     number of k points=    47
                       cart. coord. in units 2pi/alat
        k(    1) = (   0.0000000   0.0000000   0.0000000), wk =   0.0020000
        k(    2) = (  -0.1000000   0.1000000  -0.1000000), wk =   0.0160000
        k(    3) = (  -0.2000000   0.2000000  -0.2000000), wk =   0.0160000
        k(    4) = (  -0.3000000   0.3000000  -0.3000000), wk =   0.0160000
        k(    5) = (  -0.4000000   0.4000000  -0.4000000), wk =   0.0160000
        k(    6) = (   0.5000000  -0.5000000   0.5000000), wk =   0.0080000
        k(    7) = (   0.0000000   0.2000000   0.0000000), wk =   0.0120000
        k(    8) = (  -0.1000000   0.3000000  -0.1000000), wk =   0.0480000
        k(    9) = (  -0.2000000   0.4000000  -0.2000000), wk =   0.0480000
        k(   10) = (  -0.3000000   0.5000000  -0.3000000), wk =   0.0480000
        k(   11) = (   0.6000000  -0.4000000   0.6000000), wk =   0.0480000
        k(   12) = (   0.5000000  -0.3000000   0.5000000), wk =   0.0480000
        k(   13) = (   0.4000000  -0.2000000   0.4000000), wk =   0.0480000
        k(   14) = (   0.3000000  -0.1000000   0.3000000), wk =   0.0480000
        k(   15) = (   0.2000000   0.0000000   0.2000000), wk =   0.0240000
        k(   16) = (   0.0000000   0.4000000   0.0000000), wk =   0.0120000
        k(   17) = (  -0.1000000   0.5000000  -0.1000000), wk =   0.0480000
        k(   18) = (  -0.2000000   0.6000000  -0.2000000), wk =   0.0480000
        k(   19) = (   0.7000000  -0.3000000   0.7000000), wk =   0.0480000
        k(   20) = (   0.6000000  -0.2000000   0.6000000), wk =   0.0480000
        k(   21) = (   0.5000000  -0.1000000   0.5000000), wk =   0.0480000
        k(   22) = (   0.4000000   0.0000000   0.4000000), wk =   0.0240000
        k(   23) = (   0.0000000   0.6000000   0.0000000), wk =   0.0120000
        k(   24) = (  -0.1000000   0.7000000  -0.1000000), wk =   0.0480000
        k(   25) = (   0.8000000  -0.2000000   0.8000000), wk =   0.0480000
        k(   26) = (   0.7000000  -0.1000000   0.7000000), wk =   0.0480000
        k(   27) = (   0.6000000  -0.0000000   0.6000000), wk =   0.0240000
        k(   28) = (   0.0000000   0.8000000   0.0000000), wk =   0.0120000
        k(   29) = (   0.9000000  -0.1000000   0.9000000), wk =   0.0480000
        k(   30) = (   0.8000000   0.0000000   0.8000000), wk =   0.0240000
        k(   31) = (   0.0000000  -1.0000000   0.0000000), wk =   0.0060000
        k(   32) = (  -0.2000000   0.4000000   0.0000000), wk =   0.0480000
        k(   33) = (  -0.3000000   0.5000000  -0.1000000), wk =   0.0960000
        k(   34) = (   0.6000000  -0.4000000   0.8000000), wk =   0.0960000
        k(   35) = (   0.5000000  -0.3000000   0.7000000), wk =   0.0480000
        k(   36) = (  -0.2000000   0.6000000   0.0000000), wk =   0.0480000
        k(   37) = (   0.7000000  -0.3000000   0.9000000), wk =   0.0960000
        k(   38) = (   0.6000000  -0.2000000   0.8000000), wk =   0.0960000
        k(   39) = (   0.5000000  -0.1000000   0.7000000), wk =   0.0960000
        k(   40) = (   0.4000000   0.0000000   0.6000000), wk =   0.0480000
        k(   41) = (   0.8000000  -0.2000000   1.0000000), wk =   0.0480000
        k(   42) = (   0.7000000  -0.1000000   0.9000000), wk =   0.0960000
        k(   43) = (   0.6000000   0.0000000   0.8000000), wk =   0.0480000
        k(   44) = (  -0.2000000  -1.0000000   0.0000000), wk =   0.0240000
        k(   45) = (   0.6000000  -0.2000000   1.0000000), wk =   0.0480000
        k(   46) = (   0.5000000  -0.1000000   0.9000000), wk =   0.0480000
        k(   47) = (  -0.4000000  -1.0000000   0.0000000), wk =   0.0240000

     Dense  grid:     9841 G-vectors     FFT dimensions: (  30,  30,  30)

     Estimated max dynamical RAM per process >      18.41 MB

     WARNING: libxc functional with ID  263 depends
      on external parameters: check the user_guide of
      QE if you need to modify them or to check their
      default values.

     Initial potential from superposition of free atoms

     starting charge       7.9953, renormalised to       8.0000
     Starting wfcs are   13 randomized atomic wfcs

     total cpu time spent up to now is        5.1 secs

     Self-consistent Calculation

     iteration #  1     ecut=    50.00 Ry     beta= 0.01
     Davidson diagonalization with overlap
     ethr =  1.00E-02,  avg # of iterations =  1.0

     total cpu time spent up to now is        8.3 secs

     total energy              =     -30.65089715 Ry
     estimated scf accuracy    <       0.35540168 Ry

     iteration #  2     ecut=    50.00 Ry     beta= 0.01
     Davidson diagonalization with overlap
     ethr =  4.44E-03,  avg # of iterations =  1.0

     total cpu time spent up to now is       11.5 secs

     total energy              =     -30.67089291 Ry
     estimated scf accuracy    <       0.33837188 Ry

     iteration #  3     ecut=    50.00 Ry     beta= 0.01
     Davidson diagonalization with overlap
     ethr =  4.23E-03,  avg # of iterations =  1.0

     total cpu time spent up to now is       14.8 secs

     total energy              =     -30.73519279 Ry
     estimated scf accuracy    <       0.25803103 Ry

     iteration #  4     ecut=    50.00 Ry     beta= 0.01
     Davidson diagonalization with overlap
     ethr =  3.23E-03,  avg # of iterations =  1.0

     total cpu time spent up to now is       18.2 secs

     total energy              =     -30.73761136 Ry
     estimated scf accuracy    <       0.00409696 Ry

     iteration #  5     ecut=    50.00 Ry     beta= 0.01
     Davidson diagonalization with overlap
     ethr =  5.12E-05,  avg # of iterations =  1.0

     total cpu time spent up to now is       21.5 secs

     total energy              =     -30.73765262 Ry
     estimated scf accuracy    <       0.00373769 Ry

     iteration #  6     ecut=    50.00 Ry     beta= 0.01
     Davidson diagonalization with overlap
     ethr =  4.67E-05,  avg # of iterations =  1.0

     total cpu time spent up to now is       24.8 secs

     total energy              =     -30.73608729 Ry
     estimated scf accuracy    <       0.00349424 Ry

     iteration #  7     ecut=    50.00 Ry     beta= 0.01
     Davidson diagonalization with overlap
     ethr =  4.37E-05,  avg # of iterations =  2.0

     total cpu time spent up to now is       29.4 secs

     total energy              =     -30.73735700 Ry
     estimated scf accuracy    <       0.00186182 Ry

     iteration #  8     ecut=    50.00 Ry     beta= 0.01
     Davidson diagonalization with overlap
     ethr =  2.33E-05,  avg # of iterations =  1.0

     total cpu time spent up to now is       32.7 secs

     total energy              =     -30.73741259 Ry
     estimated scf accuracy    <       0.00229698 Ry

     iteration #  9     ecut=    50.00 Ry     beta= 0.01
     Davidson diagonalization with overlap
     ethr =  2.33E-05,  avg # of iterations =  1.0

     total cpu time spent up to now is       35.5 secs

     total energy              =     -30.73733133 Ry
     estimated scf accuracy    <       0.00256447 Ry

     iteration # 10     ecut=    50.00 Ry     beta= 0.01
     Davidson diagonalization with overlap
     ethr =  2.33E-05,  avg # of iterations =  1.0

     total cpu time spent up to now is       38.2 secs

     total energy              =     -30.73688933 Ry
     estimated scf accuracy    <       0.00183960 Ry

     iteration # 11     ecut=    50.00 Ry     beta= 0.01
     Davidson diagonalization with overlap
     ethr =  2.30E-05,  avg # of iterations =  1.0

     total cpu time spent up to now is       40.9 secs

     total energy              =     -30.73702665 Ry
     estimated scf accuracy    <       0.00000936 Ry

     iteration # 12     ecut=    50.00 Ry     beta= 0.01
     Davidson diagonalization with overlap
     ethr =  1.17E-07,  avg # of iterations =  2.4

     total cpu time spent up to now is       44.8 secs

     total energy              =     -30.73703340 Ry
     estimated scf accuracy    <       0.00000383 Ry

     iteration # 13     ecut=    50.00 Ry     beta= 0.01
     Davidson diagonalization with overlap
     ethr =  4.78E-08,  avg # of iterations =  1.0

     total cpu time spent up to now is       47.0 secs

     total energy              =     -30.73703232 Ry
     estimated scf accuracy    <       0.00000479 Ry

     iteration # 14     ecut=    50.00 Ry     beta= 0.01
     Davidson diagonalization with overlap
     ethr =  4.78E-08,  avg # of iterations =  2.0

     total cpu time spent up to now is       49.8 secs

     End of self-consistent calculation

          k = 0.0000 0.0000 0.0000 (  1243 PWs)   bands (ev):

   -12.3524   1.9517   1.9517   1.9517

          k =-0.1000 0.1000-0.1000 (  1242 PWs)   bands (ev):

   -12.2858   1.5510   1.9185   1.9185

          k =-0.2000 0.2000-0.2000 (  1239 PWs)   bands (ev):

   -12.1037   0.6254   1.8351   1.8351

          k =-0.3000 0.3000-0.3000 (  1227 PWs)   bands (ev):

   -11.8605  -0.3706   1.7387   1.7387

          k =-0.4000 0.4000-0.4000 (  1221 PWs)   bands (ev):

   -11.6462  -1.1086   1.6655   1.6655

          k = 0.5000-0.5000 0.5000 (  1224 PWs)   bands (ev):

   -11.5596  -1.3805   1.6387   1.6387

          k = 0.0000 0.2000 0.0000 (  1239 PWs)   bands (ev):

   -12.2631   1.6110   1.8033   1.8033

          k =-0.1000 0.3000-0.1000 (  1241 PWs)   bands (ev):

   -12.1182   0.8954   1.6570   1.7513

          k =-0.2000 0.4000-0.2000 (  1227 PWs)   bands (ev):

   -11.8923  -0.0605   1.5380   1.6344

          k =-0.3000 0.5000-0.3000 (  1223 PWs)   bands (ev):

   -11.6635  -0.8668   1.4664   1.4883

          k = 0.6000-0.4000 0.6000 (  1212 PWs)   bands (ev):

   -11.5298  -1.2837   1.3154   1.5226

          k = 0.5000-0.3000 0.5000 (  1211 PWs)   bands (ev):

   -11.5594  -1.1897   1.2363   1.6279

          k = 0.4000-0.2000 0.4000 (  1224 PWs)   bands (ev):

   -11.7366  -0.6151   1.2595   1.7683

          k = 0.3000-0.1000 0.3000 (  1226 PWs)   bands (ev):

   -11.9750   0.2600   1.3922   1.8935

          k = 0.2000 0.0000 0.2000 (  1233 PWs)   bands (ev):

   -12.1799   1.1094   1.6387   1.9530

          k = 0.0000 0.4000 0.0000 (  1227 PWs)   bands (ev):

   -12.0142   0.7468   1.4390   1.4390

          k =-0.1000 0.5000-0.1000 (  1234 PWs)   bands (ev):

   -11.8221   0.0553   1.2498   1.2651

          k =-0.2000 0.6000-0.2000 (  1239 PWs)   bands (ev):

   -11.6049  -0.6436   0.9671   1.1919

          k = 0.7000-0.3000 0.7000 (  1221 PWs)   bands (ev):

   -11.4500  -1.0648   0.6551   1.2406

          k = 0.6000-0.2000 0.6000 (  1214 PWs)   bands (ev):

   -11.4319  -1.0717   0.4406   1.3967

          k = 0.5000-0.1000 0.5000 (  1226 PWs)   bands (ev):

   -11.5599  -0.6869   0.4302   1.6106

          k = 0.4000 0.0000 0.4000 (  1235 PWs)   bands (ev):

   -11.7704  -0.1590   0.7599   1.8040

          k = 0.0000 0.6000 0.0000 (  1234 PWs)   bands (ev):

   -11.6703  -0.3034   1.0291   1.0291

          k =-0.1000 0.7000-0.1000 (  1235 PWs)   bands (ev):

   -11.4876  -0.7884   0.7522   0.9053

          k = 0.8000-0.2000 0.8000 (  1218 PWs)   bands (ev):

   -11.3453  -1.0398   0.2993   0.9274

          k = 0.7000-0.1000 0.7000 (  1217 PWs)   bands (ev):

   -11.3083  -0.9165  -0.1726   1.0897

          k = 0.6000-0.0000 0.6000 (  1212 PWs)   bands (ev):

   -11.3935  -0.5771  -0.3383   1.3466

          k = 0.0000 0.8000 0.0000 (  1238 PWs)   bands (ev):

   -11.3530  -1.1617   0.7241   0.7241

          k = 0.9000-0.1000 0.9000 (  1219 PWs)   bands (ev):

   -11.2554  -1.3401   0.4729   0.6966

          k = 0.8000 0.0000 0.8000 (  1230 PWs)   bands (ev):

   -11.2388  -1.1851   0.0325   0.8298

          k = 0.0000-1.0000 0.0000 (  1234 PWs)   bands (ev):

   -11.2200  -1.4954   0.6130   0.6130

          k =-0.2000 0.4000 0.0000 (  1238 PWs)   bands (ev):

   -11.9494   0.3669   1.2381   1.7095

          k =-0.3000 0.5000-0.1000 (  1230 PWs)   bands (ev):

   -11.7255  -0.3514   0.9205   1.5930

          k = 0.6000-0.4000 0.8000 (  1222 PWs)   bands (ev):

   -11.5297  -0.9496   0.7714   1.4455

          k = 0.5000-0.3000 0.7000 (  1216 PWs)   bands (ev):

   -11.4509  -1.1780   0.7313   1.3783

          k =-0.2000 0.6000 0.0000 (  1238 PWs)   bands (ev):

   -11.6326  -0.4180   0.7925   1.2036

          k = 0.7000-0.3000 0.9000 (  1221 PWs)   bands (ev):

   -11.4484  -0.8173   0.4050   1.0871

          k = 0.6000-0.2000 0.8000 (  1216 PWs)   bands (ev):

   -11.3486  -0.9685   0.0950   1.0781

          k = 0.5000-0.1000 0.7000 (  1219 PWs)   bands (ev):

   -11.3812  -0.8181  -0.0377   1.2179

          k = 0.4000 0.0000 0.6000 (  1222 PWs)   bands (ev):

   -11.5295  -0.5685   0.2422   1.4311

          k = 0.8000-0.2000 1.0000 (  1221 PWs)   bands (ev):

   -11.3433  -1.0744   0.4639   0.7867

          k = 0.7000-0.1000 0.9000 (  1220 PWs)   bands (ev):

   -11.2604  -1.0772   0.0296   0.7823

          k = 0.6000 0.0000 0.8000 (  1221 PWs)   bands (ev):

   -11.2759  -0.7506  -0.4197   0.9524

          k =-0.2000-1.0000 0.0000 (  1210 PWs)   bands (ev):

   -11.2230  -1.3391   0.3447   0.6361

          k = 0.6000-0.2000 1.0000 (  1219 PWs)   bands (ev):

   -11.3157  -0.8164  -0.1322   0.9082

          k = 0.5000-0.1000 0.9000 (  1216 PWs)   bands (ev):

   -11.2633  -0.7147  -0.4218   0.8164

          k =-0.4000-1.0000 0.0000 (  1216 PWs)   bands (ev):

   -11.2287  -0.8974  -0.2666   0.6738

     highest occupied level (ev):     1.9530

!    total energy              =     -30.73703306 Ry
     estimated scf accuracy    <       0.00000026 Ry

     The total energy is the sum of the following terms:
     one-electron contribution =      -3.54901410 Ry
     hartree contribution      =       5.33963375 Ry
     xc contribution           =      -6.40313465 Ry
     ewald contribution        =     -26.12451806 Ry

     convergence has been achieved in  14 iterations
     Writing meta-gga kinetic term

     Writing all to output data dir ./input_pw/NaCl/9/pwscf.save/
     Writing meta-gga kinetic term
 
     init_run     :      1.74s CPU      4.99s WALL (       1 calls)
     electrons    :     20.10s CPU     44.67s WALL (       1 calls)

     Called by init_run:
     wfcinit      :      1.62s CPU      4.54s WALL (       1 calls)
     potinit      :      0.02s CPU      0.15s WALL (       1 calls)
     hinit0       :      0.09s CPU      0.26s WALL (       1 calls)

     Called by electrons:
     c_bands      :     15.81s CPU     35.26s WALL (      14 calls)
     sum_band     :      3.82s CPU      8.34s WALL (      14 calls)
     v_of_rho     :      0.26s CPU      0.72s WALL (      15 calls)
     mix_rho      :      0.23s CPU      0.44s WALL (      14 calls)

     Called by c_bands:
     init_us_2    :      0.22s CPU      0.42s WALL (    1363 calls)
     init_us_2:cp :      0.21s CPU      0.41s WALL (    1363 calls)
     cegterg      :     15.60s CPU     34.89s WALL (     658 calls)

     Called by *egterg:
     cdiaghg      :      0.09s CPU      0.17s WALL (    1474 calls)
     h_psi        :     16.82s CPU     38.51s WALL (    1521 calls)
     g_psi        :      0.01s CPU      0.01s WALL (     816 calls)

     Called by h_psi:
     h_psi:calbec :      0.06s CPU      0.15s WALL (    1521 calls)
     vloc_psi     :      4.12s CPU      9.14s WALL (    1521 calls)
     add_vuspsi   :      0.06s CPU      0.24s WALL (    1521 calls)
     h_psi_meta   :     12.54s CPU     28.90s WALL (    1521 calls)

     General routines
     calbec       :      0.06s CPU      0.14s WALL (    1521 calls)
     fft          :      0.05s CPU      0.13s WALL (     177 calls)
     ffts         :      0.09s CPU      0.21s WALL (     319 calls)
     fftw         :     17.88s CPU     40.65s WALL (   62176 calls)
     interpolate  :      0.00s CPU      0.00s WALL (      15 calls)
 
     Parallel routines
 
     PWSCF        :     21.90s CPU     49.78s WALL

 
   This run was terminated on:  14:31:57  14Mar2023            

=------------------------------------------------------------------------------=
   JOB DONE.
=------------------------------------------------------------------------------=
