
     Program PWSCF v.7.0 starts on  4Apr2023 at  8:56:51 

     This program is part of the open-source Quantum ESPRESSO suite
     for quantum simulation of materials; please cite
         "P. Giannozzi et al., J. Phys.:Condens. Matter 21 395502 (2009);
         "P. Giannozzi et al., J. Phys.:Condens. Matter 29 465901 (2017);
         "P. Giannozzi et al., J. Chem. Phys. 152 154105 (2020);
          URL http://www.quantum-espresso.org", 
     in publications or presentations arising from this work. More details at
     http://www.quantum-espresso.org/quote

     Parallel version (MPI), running on     1 processors

     MPI processes distributed on     1 nodes
     19726 MiB available memory on the printing compute node when the environment starts
 
     Waiting for input...
     Reading input from standard input
Warning: card &CELL ignored
Warning: card / ignored

     Current dimensions of program PWSCF are:
     Max number of different atomic species (ntypx) = 10
     Max number of k-points (npk) =  40000
     Max angular momentum in pseudopotentials (lmaxx) =  4
     file Al.SCAN.UPF2: wavefunction(s)  0D renormalized

     WARNING: the MGGA functional with ID    5 has been 
     read together with other dft terms, but it should 
     stand alone in order to work properly. The other 
     terms will be ignored.

     Subspace diagonalization in iterative solution of the eigenvalue problem:
     a serial algorithm will be used

 
     G-vector sticks info
     --------------------
     sticks:   dense  smooth     PW     G-vecs:    dense   smooth      PW
     Sum         859     859    265                16889    16889    2837
 
     Using Slab Decomposition
 


     bravais-lattice index     =            2
     lattice parameter (alat)  =      10.2801  a.u.
     unit-cell volume          =     271.6022 (a.u.)^3
     number of atoms/cell      =            1
     number of atomic types    =            1
     number of electrons       =         3.00
     number of Kohn-Sham states=            6
     kinetic-energy cutoff     =      60.0000  Ry
     charge density cutoff     =     240.0000  Ry
     scf convergence threshold =      1.0E-06
     mixing beta               =       0.0100
     number of iterations used =            8  local-TF  mixing
     Exchange-correlation= SLA  PW   SCAN SCAN
                           (   0   0   0   0   0 263 267)

     celldm(1)=  10.280110  celldm(2)=   0.000000  celldm(3)=   0.000000
     celldm(4)=   0.000000  celldm(5)=   0.000000  celldm(6)=   0.000000

     crystal axes: (cart. coord. in units of alat)
               a(1) = (  -0.500000   0.000000   0.500000 )  
               a(2) = (   0.000000   0.500000   0.500000 )  
               a(3) = (  -0.500000   0.500000   0.000000 )  

     reciprocal axes: (cart. coord. in units 2 pi/alat)
               b(1) = ( -1.000000 -1.000000  1.000000 )  
               b(2) = (  1.000000  1.000000  1.000000 )  
               b(3) = ( -1.000000  1.000000 -1.000000 )  


     PseudoPot. # 1 for Al read from file:
     ~/Documents/TA/PWDFT.jl/pseudopotentials/scan_upf/Al.SCAN.UPF2
     MD5 check sum: Not computed, couldn't open file
     Pseudo is Norm-conserving, Zval =  3.0
     Generated by new atomic code, or converted to UPF format
     Using radial grid of 1467 points,  2 beta functions with: 
                l(1) =   0
                l(2) =   1

     atomic species   valence    mass     pseudopotential
        Al             3.00    26.98154     Al( 1.00)

     48 Sym. Ops., with inversion, found



   Cartesian axes

     site n.     atom                  positions (alat units)
         1           Al  tau(   1) = (   0.0000000   0.0000000   0.0000000  )

     number of k points=    47  Gaussian smearing, width (Ry)=  0.1000
                       cart. coord. in units 2pi/alat
        k(    1) = (   0.0000000   0.0000000   0.0000000), wk =   0.0020000
        k(    2) = (  -0.1000000   0.1000000  -0.1000000), wk =   0.0160000
        k(    3) = (  -0.2000000   0.2000000  -0.2000000), wk =   0.0160000
        k(    4) = (  -0.3000000   0.3000000  -0.3000000), wk =   0.0160000
        k(    5) = (  -0.4000000   0.4000000  -0.4000000), wk =   0.0160000
        k(    6) = (   0.5000000  -0.5000000   0.5000000), wk =   0.0080000
        k(    7) = (   0.0000000   0.2000000   0.0000000), wk =   0.0120000
        k(    8) = (  -0.1000000   0.3000000  -0.1000000), wk =   0.0480000
        k(    9) = (  -0.2000000   0.4000000  -0.2000000), wk =   0.0480000
        k(   10) = (  -0.3000000   0.5000000  -0.3000000), wk =   0.0480000
        k(   11) = (   0.6000000  -0.4000000   0.6000000), wk =   0.0480000
        k(   12) = (   0.5000000  -0.3000000   0.5000000), wk =   0.0480000
        k(   13) = (   0.4000000  -0.2000000   0.4000000), wk =   0.0480000
        k(   14) = (   0.3000000  -0.1000000   0.3000000), wk =   0.0480000
        k(   15) = (   0.2000000   0.0000000   0.2000000), wk =   0.0240000
        k(   16) = (   0.0000000   0.4000000   0.0000000), wk =   0.0120000
        k(   17) = (  -0.1000000   0.5000000  -0.1000000), wk =   0.0480000
        k(   18) = (  -0.2000000   0.6000000  -0.2000000), wk =   0.0480000
        k(   19) = (   0.7000000  -0.3000000   0.7000000), wk =   0.0480000
        k(   20) = (   0.6000000  -0.2000000   0.6000000), wk =   0.0480000
        k(   21) = (   0.5000000  -0.1000000   0.5000000), wk =   0.0480000
        k(   22) = (   0.4000000   0.0000000   0.4000000), wk =   0.0240000
        k(   23) = (   0.0000000   0.6000000   0.0000000), wk =   0.0120000
        k(   24) = (  -0.1000000   0.7000000  -0.1000000), wk =   0.0480000
        k(   25) = (   0.8000000  -0.2000000   0.8000000), wk =   0.0480000
        k(   26) = (   0.7000000  -0.1000000   0.7000000), wk =   0.0480000
        k(   27) = (   0.6000000  -0.0000000   0.6000000), wk =   0.0240000
        k(   28) = (   0.0000000   0.8000000   0.0000000), wk =   0.0120000
        k(   29) = (   0.9000000  -0.1000000   0.9000000), wk =   0.0480000
        k(   30) = (   0.8000000   0.0000000   0.8000000), wk =   0.0240000
        k(   31) = (   0.0000000  -1.0000000   0.0000000), wk =   0.0060000
        k(   32) = (  -0.2000000   0.4000000   0.0000000), wk =   0.0480000
        k(   33) = (  -0.3000000   0.5000000  -0.1000000), wk =   0.0960000
        k(   34) = (   0.6000000  -0.4000000   0.8000000), wk =   0.0960000
        k(   35) = (   0.5000000  -0.3000000   0.7000000), wk =   0.0480000
        k(   36) = (  -0.2000000   0.6000000   0.0000000), wk =   0.0480000
        k(   37) = (   0.7000000  -0.3000000   0.9000000), wk =   0.0960000
        k(   38) = (   0.6000000  -0.2000000   0.8000000), wk =   0.0960000
        k(   39) = (   0.5000000  -0.1000000   0.7000000), wk =   0.0960000
        k(   40) = (   0.4000000   0.0000000   0.6000000), wk =   0.0480000
        k(   41) = (   0.8000000  -0.2000000   1.0000000), wk =   0.0480000
        k(   42) = (   0.7000000  -0.1000000   0.9000000), wk =   0.0960000
        k(   43) = (   0.6000000   0.0000000   0.8000000), wk =   0.0480000
        k(   44) = (  -0.2000000  -1.0000000   0.0000000), wk =   0.0240000
        k(   45) = (   0.6000000  -0.2000000   1.0000000), wk =   0.0480000
        k(   46) = (   0.5000000  -0.1000000   0.9000000), wk =   0.0480000
        k(   47) = (  -0.4000000  -1.0000000   0.0000000), wk =   0.0240000

     Dense  grid:    16889 G-vectors     FFT dimensions: (  36,  36,  36)

     Estimated max dynamical RAM per process >      34.08 MB

     WARNING: libxc functional with ID  263 depends
      on external parameters: check the user_guide of
      QE if you need to modify them or to check their
      default values.

     Initial potential from superposition of free atoms

     starting charge       2.9979, renormalised to       3.0000
     Starting wfcs are    9 randomized atomic wfcs

     total cpu time spent up to now is        4.4 secs

     Self-consistent Calculation

     iteration #  1     ecut=    60.00 Ry     beta= 0.01
     Davidson diagonalization with overlap
     ethr =  1.00E-02,  avg # of iterations =  3.0

     Threshold (ethr) on eigenvalues was too large:
     Diagonalizing with lowered threshold

     Davidson diagonalization with overlap
     ethr =  1.41E-04,  avg # of iterations =  2.2

     total cpu time spent up to now is       22.8 secs

     total energy              =      -4.05173324 Ry
     estimated scf accuracy    <       0.00406820 Ry

     iteration #  2     ecut=    60.00 Ry     beta= 0.01
     Davidson diagonalization with overlap
     ethr =  1.36E-04,  avg # of iterations =  1.0

     total cpu time spent up to now is       30.1 secs

     total energy              =      -4.05635560 Ry
     estimated scf accuracy    <       0.00397443 Ry

     iteration #  3     ecut=    60.00 Ry     beta= 0.01
     Davidson diagonalization with overlap
     ethr =  1.32E-04,  avg # of iterations =  2.0

     total cpu time spent up to now is       37.1 secs

     total energy              =      -4.05702413 Ry
     estimated scf accuracy    <       0.00041207 Ry

     iteration #  4     ecut=    60.00 Ry     beta= 0.01
     Davidson diagonalization with overlap
     ethr =  1.37E-05,  avg # of iterations =  2.3

     total cpu time spent up to now is       47.6 secs

     total energy              =      -4.05717980 Ry
     estimated scf accuracy    <       0.00012501 Ry

     iteration #  5     ecut=    60.00 Ry     beta= 0.01
     Davidson diagonalization with overlap
     ethr =  4.17E-06,  avg # of iterations =  1.4

     total cpu time spent up to now is       55.5 secs

     total energy              =      -4.05724302 Ry
     estimated scf accuracy    <       0.00016023 Ry

     iteration #  6     ecut=    60.00 Ry     beta= 0.01
     Davidson diagonalization with overlap
     ethr =  4.17E-06,  avg # of iterations =  1.3

     total cpu time spent up to now is       63.3 secs

     total energy              =      -4.05733331 Ry
     estimated scf accuracy    <       0.00006509 Ry

     iteration #  7     ecut=    60.00 Ry     beta= 0.01
     Davidson diagonalization with overlap
     ethr =  2.17E-06,  avg # of iterations =  2.0

     total cpu time spent up to now is       71.4 secs

     total energy              =      -4.05737262 Ry
     estimated scf accuracy    <       0.00000130 Ry

     iteration #  8     ecut=    60.00 Ry     beta= 0.01
     Davidson diagonalization with overlap
     ethr =  4.35E-08,  avg # of iterations =  1.0

     total cpu time spent up to now is       77.0 secs

     total energy              =      -4.05737149 Ry
     estimated scf accuracy    <       0.00000129 Ry

     iteration #  9     ecut=    60.00 Ry     beta= 0.01
     Davidson diagonalization with overlap
     ethr =  4.30E-08,  avg # of iterations =  1.0

     total cpu time spent up to now is       82.8 secs

     total energy              =      -4.05735587 Ry
     estimated scf accuracy    <       0.00000100 Ry

     iteration # 10     ecut=    60.00 Ry     beta= 0.01
     Davidson diagonalization with overlap
     ethr =  3.35E-08,  avg # of iterations =  3.0

     total cpu time spent up to now is       90.4 secs

     End of self-consistent calculation

          k = 0.0000 0.0000 0.0000 (  2109 PWs)   bands (ev):

    -5.5445   7.6650   7.6650   7.6650  10.6990  10.6990

          k =-0.1000 0.1000-0.1000 (  2118 PWs)   bands (ev):

    -5.3915   6.4712   7.4703   7.4703  10.5341  11.0408

          k =-0.2000 0.2000-0.2000 (  2127 PWs)   bands (ev):

    -4.9363   4.3599   7.1048   7.1048  10.0916  11.3749

          k =-0.3000 0.3000-0.3000 (  2121 PWs)   bands (ev):

    -4.1963   2.2736   6.8010   6.8010   9.7351  10.8516

          k =-0.4000 0.4000-0.4000 (  2123 PWs)   bands (ev):

    -3.2409   0.4762   6.6236   6.6236   9.5383  10.3144

          k = 0.5000-0.5000 0.5000 (  2120 PWs)   bands (ev):

    -2.5618  -0.4877   6.5677   6.5677   9.4792  10.1151

          k = 0.0000 0.2000 0.0000 (  2121 PWs)   bands (ev):

    -5.3404   6.9747   6.9747   6.9760   9.7712  11.6419

          k =-0.1000 0.3000-0.1000 (  2126 PWs)   bands (ev):

    -4.9855   5.1339   6.4826   6.8878   9.6705  11.3608

          k =-0.2000 0.4000-0.2000 (  2124 PWs)   bands (ev):

    -4.3384   3.0471   6.1598   6.4345   9.5861  10.9600

          k =-0.3000 0.5000-0.3000 (  2127 PWs)   bands (ev):

    -3.4409   1.1462   5.9644   6.0538   9.2570  10.7565

          k = 0.6000-0.4000 0.6000 (  2116 PWs)   bands (ev):

    -2.5400  -0.2223   5.5832   6.1646   9.2249  10.6047

          k = 0.5000-0.3000 0.5000 (  2133 PWs)   bands (ev):

    -2.7951   0.1279   5.3559   6.4623   9.5546  10.5517

          k = 0.4000-0.2000 0.4000 (  2134 PWs)   bands (ev):

    -3.7630   1.7489   5.3340   6.8868  10.1572  10.6696

          k = 0.3000-0.1000 0.3000 (  2128 PWs)   bands (ev):

    -4.5859   3.7360   5.5527   7.3376  10.6282  11.1889

          k = 0.2000 0.0000 0.2000 (  2115 PWs)   bands (ev):

    -5.1375   5.6580   6.1726   7.6239  10.6751  11.1105

          k = 0.0000 0.4000 0.0000 (  2117 PWs)   bands (ev):

    -4.7320   5.4969   5.8926   5.8926   8.4589   9.8824

          k =-0.1000 0.5000-0.1000 (  2119 PWs)   bands (ev):

    -4.1831   3.8874   5.3957   5.4961   8.4035   9.3856

          k =-0.2000 0.6000-0.2000 (  2128 PWs)   bands (ev):

    -3.3666   2.0387   4.6447   5.3419   8.1454  10.5569

          k = 0.7000-0.3000 0.7000 (  2123 PWs)   bands (ev):

    -2.4138   0.4841   4.0004   5.4400   8.1296  11.8370

          k = 0.6000-0.2000 0.6000 (  2127 PWs)   bands (ev):

    -2.1762   0.1685   3.5699   5.7784   8.4730  12.1461

          k = 0.5000-0.1000 0.5000 (  2129 PWs)   bands (ev):

    -3.0610   1.5075   3.4063   6.3156   9.1473  12.0682

          k = 0.4000 0.0000 0.4000 (  2133 PWs)   bands (ev):

    -3.9462   3.1375   3.7461   6.9383  10.0924  11.6855

          k = 0.0000 0.6000 0.0000 (  2133 PWs)   bands (ev):

    -3.7344   3.6390   5.0186   5.0186   7.4442   7.9849

          k =-0.1000 0.7000-0.1000 (  2121 PWs)   bands (ev):

    -3.0128   2.4877   3.9958   4.7873   7.3316   8.3301

          k = 0.8000-0.2000 0.8000 (  2138 PWs)   bands (ev):

    -2.1033   1.2683   2.7935   4.8187   7.2935  10.0452

          k = 0.7000-0.1000 0.7000 (  2143 PWs)   bands (ev):

    -1.5325   0.6355   2.0196   5.1096   7.5939  12.0345

          k = 0.6000-0.0000 0.6000 (  2147 PWs)   bands (ev):

    -2.1704   1.4492   1.8071   5.6350   8.2235  13.0784

          k = 0.0000 0.8000 0.0000 (  2128 PWs)   bands (ev):

    -2.3972   1.6205   4.4729   4.4729   6.8216   6.9457

          k = 0.9000-0.1000 0.9000 (  2135 PWs)   bands (ev):

    -1.6116   0.7700   3.3857   4.4230   6.7877   7.8725

          k = 0.8000 0.0000 0.8000 (  2143 PWs)   bands (ev):

    -1.1516   0.6078   2.0123   4.6403   7.0256   9.8633

          k = 0.0000-1.0000 0.0000 (  2100 PWs)   bands (ev):

    -1.2412   0.2042   4.2884   4.2884   6.6125   6.6247

          k =-0.2000 0.4000 0.0000 (  2120 PWs)   bands (ev):

    -4.5337   4.3557   4.9932   6.7480   9.7031  10.4547

          k =-0.3000 0.5000-0.1000 (  2123 PWs)   bands (ev):

    -3.7999   2.5819   4.4489   6.2076   9.6523  10.7305

          k = 0.6000-0.4000 0.8000 (  2139 PWs)   bands (ev):

    -2.8556   0.8414   4.3290   5.6653   9.4628  10.4841

          k = 0.5000-0.3000 0.7000 (  2136 PWs)   bands (ev):

    -2.1907  -0.0980   4.3272   5.4345   9.4452  10.2456

          k =-0.2000 0.6000 0.0000 (  2126 PWs)   bands (ev):

    -3.5468   3.1238   4.0645   5.0982   8.7713   8.8983

          k = 0.7000-0.3000 0.9000 (  2136 PWs)   bands (ev):

    -2.6716   1.7205   3.3780   4.5305   8.6895  10.3265

          k = 0.6000-0.2000 0.8000 (  2137 PWs)   bands (ev):

    -1.8192   0.5144   2.9167   4.4614   8.8453  11.4595

          k = 0.5000-0.1000 0.7000 (  2142 PWs)   bands (ev):

    -2.0725   0.8732   2.6113   4.8321   9.2717  11.3361

          k = 0.4000 0.0000 0.6000 (  2128 PWs)   bands (ev):

    -3.0003   2.1741   2.7843   5.4893   9.8503  11.1434

          k = 0.8000-0.2000 1.0000 (  2129 PWs)   bands (ev):

    -2.2374   1.6318   3.4901   3.8826   8.0842   8.1881

          k = 0.7000-0.1000 0.9000 (  2142 PWs)   bands (ev):

    -1.4085   0.9511   2.2494   3.7854   8.2376   9.9955

          k = 0.6000 0.0000 0.8000 (  2144 PWs)   bands (ev):

    -1.3289   1.2092   1.3427   4.1615   8.6386  11.9778

          k =-0.2000-1.0000 0.0000 (  2134 PWs)   bands (ev):

    -1.1560   0.4062   3.2966   3.5270   7.8312   7.9911

          k = 0.6000-0.2000 1.0000 (  2148 PWs)   bands (ev):

    -1.8073   1.4644   2.1938   3.6021   9.9553  10.6209

          k = 0.5000-0.1000 0.9000 (  2142 PWs)   bands (ev):

    -1.2502   0.9974   1.9266   3.2422  10.1103  11.3579

          k =-0.4000-1.0000 0.0000 (  2162 PWs)   bands (ev):

    -0.9983   1.0086   1.9954   2.7367   9.8877  10.4400

     the Fermi energy is     1.2813 ev

!    total energy              =      -4.05737082 Ry
     estimated scf accuracy    <       0.00000014 Ry
     smearing contrib. (-TS)   =      -0.04728016 Ry
     internal energy E=F+TS    =      -4.01009066 Ry

     The total energy is F=E-TS. E is the sum of the following terms:
     one-electron contribution =       1.19106268 Ry
     hartree contribution      =       0.08835542 Ry
     xc contribution           =      -1.27556745 Ry
     ewald contribution        =      -4.01394131 Ry

     convergence has been achieved in  10 iterations
     Writing meta-gga kinetic term

     Writing all to output data dir ./input_pw/Al/4/pwscf.save/
     Writing meta-gga kinetic term
 
     init_run     :      2.23s CPU      4.35s WALL (       1 calls)
     electrons    :     47.43s CPU     86.07s WALL (       1 calls)

     Called by init_run:
     wfcinit      :      2.09s CPU      4.17s WALL (       1 calls)
     potinit      :      0.04s CPU      0.07s WALL (       1 calls)
     hinit0       :      0.08s CPU      0.09s WALL (       1 calls)

     Called by electrons:
     c_bands      :     38.18s CPU     69.38s WALL (      11 calls)
     sum_band     :      8.65s CPU     15.60s WALL (      11 calls)
     v_of_rho     :      0.37s CPU      0.66s WALL (      11 calls)
     mix_rho      :      0.25s CPU      0.45s WALL (      11 calls)

     Called by c_bands:
     init_us_2    :      0.27s CPU      0.44s WALL (    1081 calls)
     init_us_2:cp :      0.26s CPU      0.43s WALL (    1081 calls)
     cegterg      :     37.89s CPU     68.94s WALL (     517 calls)

     Called by *egterg:
     cdiaghg      :      0.15s CPU      0.30s WALL (    1423 calls)
     h_psi        :     39.07s CPU     71.42s WALL (    1517 calls)
     g_psi        :      0.03s CPU      0.04s WALL (     953 calls)

     Called by h_psi:
     h_psi:calbec :      0.14s CPU      0.26s WALL (    1517 calls)
     vloc_psi     :      9.73s CPU     18.04s WALL (    1517 calls)
     add_vuspsi   :      0.10s CPU      0.15s WALL (    1517 calls)
     h_psi_meta   :     29.02s CPU     52.83s WALL (    1517 calls)

     General routines
     calbec       :      0.14s CPU      0.25s WALL (    1517 calls)
     fft          :      0.07s CPU      0.14s WALL (     131 calls)
     ffts         :      0.08s CPU      0.12s WALL (     151 calls)
     fftw         :     39.38s CPU     72.05s WALL (   76096 calls)
     interpolate  :      0.00s CPU      0.00s WALL (      11 calls)
 
     Parallel routines
 
     PWSCF        :     49.70s CPU   1m30.54s WALL

 
   This run was terminated on:   8:58:21   4Apr2023            

=------------------------------------------------------------------------------=
   JOB DONE.
=------------------------------------------------------------------------------=
