
     Program PWSCF v.7.0 starts on 21Mar2023 at 11:18: 3 

     This program is part of the open-source Quantum ESPRESSO suite
     for quantum simulation of materials; please cite
         "P. Giannozzi et al., J. Phys.:Condens. Matter 21 395502 (2009);
         "P. Giannozzi et al., J. Phys.:Condens. Matter 29 465901 (2017);
         "P. Giannozzi et al., J. Chem. Phys. 152 154105 (2020);
          URL http://www.quantum-espresso.org", 
     in publications or presentations arising from this work. More details at
     http://www.quantum-espresso.org/quote

     Parallel version (MPI), running on     1 processors

     MPI processes distributed on     1 nodes
     24682 MiB available memory on the printing compute node when the environment starts
 
     Waiting for input...
     Reading input from standard input
Warning: card &CELL ignored
Warning: card / ignored

     Current dimensions of program PWSCF are:
     Max number of different atomic species (ntypx) = 10
     Max number of k-points (npk) =  40000
     Max angular momentum in pseudopotentials (lmaxx) =  4
     file Al.SCAN.UPF2: wavefunction(s)  0D renormalized

     WARNING: the MGGA functional with ID    5 has been 
     read together with other dft terms, but it should 
     stand alone in order to work properly. The other 
     terms will be ignored.

     Subspace diagonalization in iterative solution of the eigenvalue problem:
     a serial algorithm will be used

 
     G-vector sticks info
     --------------------
     sticks:   dense  smooth     PW     G-vecs:    dense   smooth      PW
     Sum         409     409    127                 5329     5329     965
 
     Using Slab Decomposition
 


     bravais-lattice index     =            2
     lattice parameter (alat)  =       6.9974  a.u.
     unit-cell volume          =      85.6540 (a.u.)^3
     number of atoms/cell      =            1
     number of atomic types    =            1
     number of electrons       =         3.00
     number of Kohn-Sham states=            6
     kinetic-energy cutoff     =      60.0000  Ry
     charge density cutoff     =     240.0000  Ry
     scf convergence threshold =      1.0E-06
     mixing beta               =       0.0100
     number of iterations used =            8  local-TF  mixing
     Exchange-correlation= SLA  PW   SCAN SCAN
                           (   0   0   0   0   0 263 267)

     celldm(1)=   6.997386  celldm(2)=   0.000000  celldm(3)=   0.000000
     celldm(4)=   0.000000  celldm(5)=   0.000000  celldm(6)=   0.000000

     crystal axes: (cart. coord. in units of alat)
               a(1) = (  -0.500000   0.000000   0.500000 )  
               a(2) = (   0.000000   0.500000   0.500000 )  
               a(3) = (  -0.500000   0.500000   0.000000 )  

     reciprocal axes: (cart. coord. in units 2 pi/alat)
               b(1) = ( -1.000000 -1.000000  1.000000 )  
               b(2) = (  1.000000  1.000000  1.000000 )  
               b(3) = ( -1.000000  1.000000 -1.000000 )  


     PseudoPot. # 1 for Al read from file:
     ~/Documents/TA/PWDFT.jl/pseudopotentials/scan_upf/Al.SCAN.UPF2
     MD5 check sum: Not computed, couldn't open file
     Pseudo is Norm-conserving, Zval =  3.0
     Generated by new atomic code, or converted to UPF format
     Using radial grid of 1467 points,  2 beta functions with: 
                l(1) =   0
                l(2) =   1

     atomic species   valence    mass     pseudopotential
        Al             3.00    26.98154     Al( 1.00)

     48 Sym. Ops., with inversion, found



   Cartesian axes

     site n.     atom                  positions (alat units)
         1           Al  tau(   1) = (   0.0000000   0.0000000   0.0000000  )

     number of k points=    47  Gaussian smearing, width (Ry)=  0.1000
                       cart. coord. in units 2pi/alat
        k(    1) = (   0.0000000   0.0000000   0.0000000), wk =   0.0020000
        k(    2) = (  -0.1000000   0.1000000  -0.1000000), wk =   0.0160000
        k(    3) = (  -0.2000000   0.2000000  -0.2000000), wk =   0.0160000
        k(    4) = (  -0.3000000   0.3000000  -0.3000000), wk =   0.0160000
        k(    5) = (  -0.4000000   0.4000000  -0.4000000), wk =   0.0160000
        k(    6) = (   0.5000000  -0.5000000   0.5000000), wk =   0.0080000
        k(    7) = (   0.0000000   0.2000000   0.0000000), wk =   0.0120000
        k(    8) = (  -0.1000000   0.3000000  -0.1000000), wk =   0.0480000
        k(    9) = (  -0.2000000   0.4000000  -0.2000000), wk =   0.0480000
        k(   10) = (  -0.3000000   0.5000000  -0.3000000), wk =   0.0480000
        k(   11) = (   0.6000000  -0.4000000   0.6000000), wk =   0.0480000
        k(   12) = (   0.5000000  -0.3000000   0.5000000), wk =   0.0480000
        k(   13) = (   0.4000000  -0.2000000   0.4000000), wk =   0.0480000
        k(   14) = (   0.3000000  -0.1000000   0.3000000), wk =   0.0480000
        k(   15) = (   0.2000000   0.0000000   0.2000000), wk =   0.0240000
        k(   16) = (   0.0000000   0.4000000   0.0000000), wk =   0.0120000
        k(   17) = (  -0.1000000   0.5000000  -0.1000000), wk =   0.0480000
        k(   18) = (  -0.2000000   0.6000000  -0.2000000), wk =   0.0480000
        k(   19) = (   0.7000000  -0.3000000   0.7000000), wk =   0.0480000
        k(   20) = (   0.6000000  -0.2000000   0.6000000), wk =   0.0480000
        k(   21) = (   0.5000000  -0.1000000   0.5000000), wk =   0.0480000
        k(   22) = (   0.4000000   0.0000000   0.4000000), wk =   0.0240000
        k(   23) = (   0.0000000   0.6000000   0.0000000), wk =   0.0120000
        k(   24) = (  -0.1000000   0.7000000  -0.1000000), wk =   0.0480000
        k(   25) = (   0.8000000  -0.2000000   0.8000000), wk =   0.0480000
        k(   26) = (   0.7000000  -0.1000000   0.7000000), wk =   0.0480000
        k(   27) = (   0.6000000  -0.0000000   0.6000000), wk =   0.0240000
        k(   28) = (   0.0000000   0.8000000   0.0000000), wk =   0.0120000
        k(   29) = (   0.9000000  -0.1000000   0.9000000), wk =   0.0480000
        k(   30) = (   0.8000000   0.0000000   0.8000000), wk =   0.0240000
        k(   31) = (   0.0000000  -1.0000000   0.0000000), wk =   0.0060000
        k(   32) = (  -0.2000000   0.4000000   0.0000000), wk =   0.0480000
        k(   33) = (  -0.3000000   0.5000000  -0.1000000), wk =   0.0960000
        k(   34) = (   0.6000000  -0.4000000   0.8000000), wk =   0.0960000
        k(   35) = (   0.5000000  -0.3000000   0.7000000), wk =   0.0480000
        k(   36) = (  -0.2000000   0.6000000   0.0000000), wk =   0.0480000
        k(   37) = (   0.7000000  -0.3000000   0.9000000), wk =   0.0960000
        k(   38) = (   0.6000000  -0.2000000   0.8000000), wk =   0.0960000
        k(   39) = (   0.5000000  -0.1000000   0.7000000), wk =   0.0960000
        k(   40) = (   0.4000000   0.0000000   0.6000000), wk =   0.0480000
        k(   41) = (   0.8000000  -0.2000000   1.0000000), wk =   0.0480000
        k(   42) = (   0.7000000  -0.1000000   0.9000000), wk =   0.0960000
        k(   43) = (   0.6000000   0.0000000   0.8000000), wk =   0.0480000
        k(   44) = (  -0.2000000  -1.0000000   0.0000000), wk =   0.0240000
        k(   45) = (   0.6000000  -0.2000000   1.0000000), wk =   0.0480000
        k(   46) = (   0.5000000  -0.1000000   0.9000000), wk =   0.0480000
        k(   47) = (  -0.4000000  -1.0000000   0.0000000), wk =   0.0240000

     Dense  grid:     5329 G-vectors     FFT dimensions: (  25,  25,  25)

     Estimated max dynamical RAM per process >      10.93 MB

     WARNING: libxc functional with ID  263 depends
      on external parameters: check the user_guide of
      QE if you need to modify them or to check their
      default values.

     Initial potential from superposition of free atoms

     starting charge       2.9979, renormalised to       3.0000
     Starting wfcs are    9 randomized atomic wfcs

     total cpu time spent up to now is        2.2 secs

     Self-consistent Calculation

     iteration #  1     ecut=    60.00 Ry     beta= 0.01
     Davidson diagonalization with overlap
     ethr =  1.00E-02,  avg # of iterations =  5.6

     Threshold (ethr) on eigenvalues was too large:
     Diagonalizing with lowered threshold

     Davidson diagonalization with overlap
     ethr =  2.53E-04,  avg # of iterations =  1.3

     total cpu time spent up to now is       11.7 secs

     total energy              =      -4.13017701 Ry
     estimated scf accuracy    <       0.00756879 Ry

     iteration #  2     ecut=    60.00 Ry     beta= 0.01
     Davidson diagonalization with overlap
     ethr =  2.52E-04,  avg # of iterations =  1.1

     total cpu time spent up to now is       15.0 secs

     total energy              =      -4.12875689 Ry
     estimated scf accuracy    <       0.00749042 Ry

     iteration #  3     ecut=    60.00 Ry     beta= 0.01
     Davidson diagonalization with overlap
     ethr =  2.50E-04,  avg # of iterations =  1.8

     total cpu time spent up to now is       18.1 secs

     total energy              =      -4.12964508 Ry
     estimated scf accuracy    <       0.00076499 Ry

     iteration #  4     ecut=    60.00 Ry     beta= 0.01
     Davidson diagonalization with overlap
     ethr =  2.55E-05,  avg # of iterations =  2.7

     total cpu time spent up to now is       21.5 secs

     total energy              =      -4.12964483 Ry
     estimated scf accuracy    <       0.00025050 Ry

     iteration #  5     ecut=    60.00 Ry     beta= 0.01
     Davidson diagonalization with overlap
     ethr =  8.35E-06,  avg # of iterations =  1.1

     total cpu time spent up to now is       24.4 secs

     total energy              =      -4.13015315 Ry
     estimated scf accuracy    <       0.00029386 Ry

     iteration #  6     ecut=    60.00 Ry     beta= 0.01
     Davidson diagonalization with overlap
     ethr =  8.35E-06,  avg # of iterations =  2.0

     total cpu time spent up to now is       28.0 secs

     total energy              =      -4.13026031 Ry
     estimated scf accuracy    <       0.00006340 Ry

     iteration #  7     ecut=    60.00 Ry     beta= 0.01
     Davidson diagonalization with overlap
     c_bands:  1 eigenvalues not converged
     ethr =  2.11E-06,  avg # of iterations =  2.5

     total cpu time spent up to now is       31.6 secs

     total energy              =      -4.13027243 Ry
     estimated scf accuracy    <       0.00000737 Ry

     iteration #  8     ecut=    60.00 Ry     beta= 0.01
     Davidson diagonalization with overlap
     ethr =  2.46E-07,  avg # of iterations =  1.1

     total cpu time spent up to now is       34.3 secs

     total energy              =      -4.13027782 Ry
     estimated scf accuracy    <       0.00000954 Ry

     iteration #  9     ecut=    60.00 Ry     beta= 0.01
     Davidson diagonalization with overlap
     ethr =  2.46E-07,  avg # of iterations =  1.0

     total cpu time spent up to now is       36.9 secs

     total energy              =      -4.13024554 Ry
     estimated scf accuracy    <       0.00001282 Ry

     iteration # 10     ecut=    60.00 Ry     beta= 0.01
     Davidson diagonalization with overlap
     ethr =  2.46E-07,  avg # of iterations =  2.2

     total cpu time spent up to now is       40.0 secs

     End of self-consistent calculation

          k = 0.0000 0.0000 0.0000 (   645 PWs)   bands (ev):

    -2.7289  25.4879  25.4879  25.4879  29.6034  29.6034

          k =-0.1000 0.1000-0.1000 (   661 PWs)   bands (ev):

    -2.3902  22.0119  25.0927  25.0927  29.3886  30.5254

          k =-0.2000 0.2000-0.2000 (   661 PWs)   bands (ev):

    -1.3807  17.3037  24.4814  24.4814  28.6640  30.1662

          k =-0.3000 0.3000-0.3000 (   664 PWs)   bands (ev):

     0.2788  12.9043  24.1282  24.1282  28.1078  28.1094

          k =-0.4000 0.4000-0.4000 (   664 PWs)   bands (ev):

     2.5476   8.9782  24.1092  24.1092  26.6254  26.6254

          k = 0.5000-0.5000 0.5000 (   652 PWs)   bands (ev):

     4.9086   6.0638  24.2125  24.2125  26.0161  26.0161

          k = 0.0000 0.2000 0.0000 (   665 PWs)   bands (ev):

    -2.2775  23.1129  23.7188  23.7188  28.2842  30.2472

          k =-0.1000 0.3000-0.1000 (   667 PWs)   bands (ev):

    -1.4924  18.9766  22.7039  23.8868  27.1368  29.0845

          k =-0.2000 0.4000-0.2000 (   659 PWs)   bands (ev):

    -0.0507  14.5381  22.1486  23.2997  25.3404  31.2036

          k =-0.3000 0.5000-0.3000 (   658 PWs)   bands (ev):

     2.0152  10.4788  22.0824  22.2159  24.5966  29.5624

          k = 0.6000-0.4000 0.6000 (   668 PWs)   bands (ev):

     4.5896   6.9912  21.1062  22.5223  24.8786  28.2679

          k = 0.5000-0.3000 0.5000 (   670 PWs)   bands (ev):

     3.7017   8.0593  20.3924  23.4824  25.8436  27.4489

          k = 0.4000-0.2000 0.4000 (   665 PWs)   bands (ev):

     1.2603  11.7658  20.1957  24.9588  27.0857  27.3665

          k = 0.3000-0.1000 0.3000 (   667 PWs)   bands (ev):

    -0.6026  15.9177  20.5842  26.5612  27.4134  29.3334

          k = 0.2000 0.0000 0.2000 (   664 PWs)   bands (ev):

    -1.8281  19.9242  21.9747  26.3720  29.6642  30.2219

          k = 0.0000 0.4000 0.0000 (   673 PWs)   bands (ev):

    -0.9353  20.1372  21.4290  21.4290  23.5397  26.9611

          k =-0.1000 0.5000-0.1000 (   670 PWs)   bands (ev):

     0.2789  16.5446  20.6269  20.6691  22.3152  27.2235

          k =-0.2000 0.6000-0.2000 (   676 PWs)   bands (ev):

     2.1232  12.4902  18.7235  20.4263  22.4296  29.7437

          k = 0.7000-0.3000 0.7000 (   676 PWs)   bands (ev):

     4.5350   8.8421  17.2331  20.7056  22.8194  31.7485

          k = 0.6000-0.2000 0.6000 (   685 PWs)   bands (ev):

     5.4183   7.7613  16.2870  21.5162  23.7433  30.7338

          k = 0.5000-0.1000 0.5000 (   671 PWs)   bands (ev):

     2.8715  11.0870  16.0113  22.8688  25.2201  30.0511

          k = 0.4000 0.0000 0.4000 (   660 PWs)   bands (ev):

     0.8257  14.2870  17.0256  24.7634  27.1786  29.0086

          k = 0.0000 0.6000 0.0000 (   665 PWs)   bands (ev):

     1.2601  17.9016  17.9095  19.7177  19.7177  25.1161

          k =-0.1000 0.7000-0.1000 (   672 PWs)   bands (ev):

     2.8687  14.6979  15.7171  19.2922  20.4265  25.8157

          k = 0.8000-0.2000 0.8000 (   680 PWs)   bands (ev):

     5.0513  11.1462  13.9101  19.3914  21.0610  28.7410

          k = 0.7000-0.1000 0.7000 (   681 PWs)   bands (ev):

     7.3507   8.2733  12.7938  20.0185  21.9438  32.5921

          k = 0.6000-0.0000 0.6000 (   682 PWs)   bands (ev):

     5.0687  10.2504  13.0359  21.1787  23.3359  33.3300

          k = 0.0000 0.8000 0.0000 (   676 PWs)   bands (ev):

     4.2246  12.8333  16.5558  18.6855  18.6855  23.9295

          k = 0.9000-0.1000 0.9000 (   672 PWs)   bands (ev):

     6.0986  10.7891  14.1911  18.6038  19.5791  25.0687

          k = 0.8000 0.0000 0.8000 (   678 PWs)   bands (ev):

     7.8410   9.6334  11.5343  19.0472  20.6114  28.3945

          k = 0.0000-1.0000 0.0000 (   692 PWs)   bands (ev):

     7.0407   9.3160  16.1027  18.3416  18.3416  23.5180

          k =-0.2000 0.4000 0.0000 (   668 PWs)   bands (ev):

    -0.4920  17.1031  19.5280  24.4213  25.1462  28.8387

          k =-0.3000 0.5000-0.1000 (   666 PWs)   bands (ev):

     1.1520  13.4977  18.2656  22.2253  25.9303  30.0288

          k = 0.6000-0.4000 0.8000 (   671 PWs)   bands (ev):

     3.3973   9.7290  18.0762  20.6236  26.3658  28.3743

          k = 0.5000-0.3000 0.7000 (   676 PWs)   bands (ev):

     5.7265   6.8735  18.1681  19.9474  27.0477  27.2199

          k =-0.2000 0.6000 0.0000 (   670 PWs)   bands (ev):

     1.6929  15.0562  17.1299  19.3020  23.3660  27.2454

          k = 0.7000-0.3000 0.9000 (   670 PWs)   bands (ev):

     3.7142  11.8373  15.7272  17.9280  24.4971  29.4527

          k = 0.6000-0.2000 0.8000 (   673 PWs)   bands (ev):

     6.2219   8.5309  14.8150  17.8003  25.3188  30.8365

          k = 0.5000-0.1000 0.7000 (   675 PWs)   bands (ev):

     5.3660   9.4676  14.2748  18.6483  26.4810  29.8184

          k = 0.4000 0.0000 0.6000 (   675 PWs)   bands (ev):

     2.9781  12.2617  14.9614  20.1804  28.0983  28.4739

          k = 0.8000-0.2000 1.0000 (   670 PWs)   bands (ev):

     4.6410  13.0710  13.8196  17.1597  22.2384  26.1893

          k = 0.7000-0.1000 0.9000 (   677 PWs)   bands (ev):

     6.8989  10.6612  12.0432  16.5916  23.7377  28.7862

          k = 0.6000 0.0000 0.8000 (   676 PWs)   bands (ev):

     7.8285   9.0429  11.7358  17.2522  24.9467  32.6303

          k =-0.2000-1.0000 0.0000 (   670 PWs)   bands (ev):

     7.4405   9.6609  13.4062  16.6817  21.8591  25.8234

          k = 0.6000-0.2000 1.0000 (   676 PWs)   bands (ev):

     5.8727  11.0447  13.0085  15.9501  27.4376  30.1606

          k = 0.5000-0.1000 0.9000 (   684 PWs)   bands (ev):

     8.1566   8.9190  12.4378  15.2341  29.1105  29.2273

          k =-0.4000-1.0000 0.0000 (   682 PWs)   bands (ev):

     8.6405  10.4452  10.6389  14.6302  27.0681  29.9843

     the Fermi energy is    10.8617 ev

!    total energy              =      -4.13026530 Ry
     estimated scf accuracy    <       0.00000073 Ry
     smearing contrib. (-TS)   =      -0.02188521 Ry
     internal energy E=F+TS    =      -4.10838009 Ry

     The total energy is F=E-TS. E is the sum of the following terms:
     one-electron contribution =       3.50868783 Ry
     hartree contribution      =       0.01412784 Ry
     xc contribution           =      -1.73417088 Ry
     ewald contribution        =      -5.89702489 Ry

     convergence has been achieved in  10 iterations
     Writing meta-gga kinetic term

     Writing all to output data dir ./input_pw/Al/4/pwscf.save/
     Writing meta-gga kinetic term
 
     init_run     :      0.70s CPU      2.10s WALL (       1 calls)
     electrons    :     14.06s CPU     37.82s WALL (       1 calls)

     Called by init_run:
     wfcinit      :      0.61s CPU      1.80s WALL (       1 calls)
     potinit      :      0.01s CPU      0.03s WALL (       1 calls)
     hinit0       :      0.07s CPU      0.24s WALL (       1 calls)

     Called by electrons:
     c_bands      :     11.50s CPU     31.09s WALL (      11 calls)
     sum_band     :      2.41s CPU      6.35s WALL (      11 calls)
     v_of_rho     :      0.11s CPU      0.31s WALL (      11 calls)
     mix_rho      :      0.05s CPU      0.10s WALL (      11 calls)

     Called by c_bands:
     init_us_2    :      0.08s CPU      0.19s WALL (    1081 calls)
     init_us_2:cp :      0.08s CPU      0.19s WALL (    1081 calls)
     cegterg      :     11.42s CPU     30.85s WALL (     517 calls)

     Called by *egterg:
     cdiaghg      :      0.11s CPU      0.29s WALL (    1528 calls)
     h_psi        :     11.69s CPU     31.86s WALL (    1622 calls)
     g_psi        :      0.01s CPU      0.01s WALL (    1058 calls)

     Called by h_psi:
     h_psi:calbec :      0.03s CPU      0.03s WALL (    1622 calls)
     vloc_psi     :      2.88s CPU      7.95s WALL (    1622 calls)
     add_vuspsi   :      0.03s CPU      0.06s WALL (    1622 calls)
     h_psi_meta   :      8.72s CPU     23.72s WALL (    1622 calls)

     General routines
     calbec       :      0.03s CPU      0.03s WALL (    1622 calls)
     fft          :      0.02s CPU      0.07s WALL (     131 calls)
     ffts         :      0.02s CPU      0.02s WALL (     147 calls)
     fftw         :     12.47s CPU     34.40s WALL (   77488 calls)
     interpolate  :      0.00s CPU      0.00s WALL (      11 calls)
 
     Parallel routines
 
     PWSCF        :     14.80s CPU     40.04s WALL

 
   This run was terminated on:  11:18:43  21Mar2023            

=------------------------------------------------------------------------------=
   JOB DONE.
=------------------------------------------------------------------------------=
