
     Program PWSCF v.7.0 starts on  4Apr2023 at  9:49: 0 

     This program is part of the open-source Quantum ESPRESSO suite
     for quantum simulation of materials; please cite
         "P. Giannozzi et al., J. Phys.:Condens. Matter 21 395502 (2009);
         "P. Giannozzi et al., J. Phys.:Condens. Matter 29 465901 (2017);
         "P. Giannozzi et al., J. Chem. Phys. 152 154105 (2020);
          URL http://www.quantum-espresso.org", 
     in publications or presentations arising from this work. More details at
     http://www.quantum-espresso.org/quote

     Parallel version (MPI), running on     1 processors

     MPI processes distributed on     1 nodes
     20263 MiB available memory on the printing compute node when the environment starts
 
     Waiting for input...
     Reading input from standard input
Warning: card &CELL ignored
Warning: card / ignored

     Current dimensions of program PWSCF are:
     Max number of different atomic species (ntypx) = 10
     Max number of k-points (npk) =  40000
     Max angular momentum in pseudopotentials (lmaxx) =  4
     file Al.SCAN.UPF2: wavefunction(s)  0D renormalized

     WARNING: the MGGA functional with ID    5 has been 
     read together with other dft terms, but it should 
     stand alone in order to work properly. The other 
     terms will be ignored.

     Subspace diagonalization in iterative solution of the eigenvalue problem:
     a serial algorithm will be used

 
     G-vector sticks info
     --------------------
     sticks:   dense  smooth     PW     G-vecs:    dense   smooth      PW
     Sum         433     433    139                 5817     5817    1067
 
     Using Slab Decomposition
 


     bravais-lattice index     =            2
     lattice parameter (alat)  =       7.1961  a.u.
     unit-cell volume          =      93.1596 (a.u.)^3
     number of atoms/cell      =            1
     number of atomic types    =            1
     number of electrons       =         3.00
     number of Kohn-Sham states=            6
     kinetic-energy cutoff     =      60.0000  Ry
     charge density cutoff     =     240.0000  Ry
     scf convergence threshold =      1.0E-06
     mixing beta               =       0.0100
     number of iterations used =            8  local-TF  mixing
     Exchange-correlation= SLA  PW   SCAN SCAN
                           (   0   0   0   0   0 263 267)

     celldm(1)=   7.196077  celldm(2)=   0.000000  celldm(3)=   0.000000
     celldm(4)=   0.000000  celldm(5)=   0.000000  celldm(6)=   0.000000

     crystal axes: (cart. coord. in units of alat)
               a(1) = (  -0.500000   0.000000   0.500000 )  
               a(2) = (   0.000000   0.500000   0.500000 )  
               a(3) = (  -0.500000   0.500000   0.000000 )  

     reciprocal axes: (cart. coord. in units 2 pi/alat)
               b(1) = ( -1.000000 -1.000000  1.000000 )  
               b(2) = (  1.000000  1.000000  1.000000 )  
               b(3) = ( -1.000000  1.000000 -1.000000 )  


     PseudoPot. # 1 for Al read from file:
     ~/Documents/TA/PWDFT.jl/pseudopotentials/scan_upf/Al.SCAN.UPF2
     MD5 check sum: Not computed, couldn't open file
     Pseudo is Norm-conserving, Zval =  3.0
     Generated by new atomic code, or converted to UPF format
     Using radial grid of 1467 points,  2 beta functions with: 
                l(1) =   0
                l(2) =   1

     atomic species   valence    mass     pseudopotential
        Al             3.00    26.98154     Al( 1.00)

     Starting magnetic structure 
     atomic species   magnetization
        Al           1.000

     48 Sym. Ops., with inversion, found



   Cartesian axes

     site n.     atom                  positions (alat units)
         1           Al  tau(   1) = (   0.0000000   0.0000000   0.0000000  )

     number of k points=    47  Gaussian smearing, width (Ry)=  0.1000
                       cart. coord. in units 2pi/alat
        k(    1) = (   0.0000000   0.0000000   0.0000000), wk =   0.0010000
        k(    2) = (  -0.1000000   0.1000000  -0.1000000), wk =   0.0080000
        k(    3) = (  -0.2000000   0.2000000  -0.2000000), wk =   0.0080000
        k(    4) = (  -0.3000000   0.3000000  -0.3000000), wk =   0.0080000
        k(    5) = (  -0.4000000   0.4000000  -0.4000000), wk =   0.0080000
        k(    6) = (   0.5000000  -0.5000000   0.5000000), wk =   0.0040000
        k(    7) = (   0.0000000   0.2000000   0.0000000), wk =   0.0060000
        k(    8) = (  -0.1000000   0.3000000  -0.1000000), wk =   0.0240000
        k(    9) = (  -0.2000000   0.4000000  -0.2000000), wk =   0.0240000
        k(   10) = (  -0.3000000   0.5000000  -0.3000000), wk =   0.0240000
        k(   11) = (   0.6000000  -0.4000000   0.6000000), wk =   0.0240000
        k(   12) = (   0.5000000  -0.3000000   0.5000000), wk =   0.0240000
        k(   13) = (   0.4000000  -0.2000000   0.4000000), wk =   0.0240000
        k(   14) = (   0.3000000  -0.1000000   0.3000000), wk =   0.0240000
        k(   15) = (   0.2000000   0.0000000   0.2000000), wk =   0.0120000
        k(   16) = (   0.0000000   0.4000000   0.0000000), wk =   0.0060000
        k(   17) = (  -0.1000000   0.5000000  -0.1000000), wk =   0.0240000
        k(   18) = (  -0.2000000   0.6000000  -0.2000000), wk =   0.0240000
        k(   19) = (   0.7000000  -0.3000000   0.7000000), wk =   0.0240000
        k(   20) = (   0.6000000  -0.2000000   0.6000000), wk =   0.0240000
        k(   21) = (   0.5000000  -0.1000000   0.5000000), wk =   0.0240000
        k(   22) = (   0.4000000   0.0000000   0.4000000), wk =   0.0120000
        k(   23) = (   0.0000000   0.6000000   0.0000000), wk =   0.0060000
        k(   24) = (  -0.1000000   0.7000000  -0.1000000), wk =   0.0240000
        k(   25) = (   0.8000000  -0.2000000   0.8000000), wk =   0.0240000
        k(   26) = (   0.7000000  -0.1000000   0.7000000), wk =   0.0240000
        k(   27) = (   0.6000000  -0.0000000   0.6000000), wk =   0.0120000
        k(   28) = (   0.0000000   0.8000000   0.0000000), wk =   0.0060000
        k(   29) = (   0.9000000  -0.1000000   0.9000000), wk =   0.0240000
        k(   30) = (   0.8000000   0.0000000   0.8000000), wk =   0.0120000
        k(   31) = (   0.0000000  -1.0000000   0.0000000), wk =   0.0030000
        k(   32) = (  -0.2000000   0.4000000   0.0000000), wk =   0.0240000
        k(   33) = (  -0.3000000   0.5000000  -0.1000000), wk =   0.0480000
        k(   34) = (   0.6000000  -0.4000000   0.8000000), wk =   0.0480000
        k(   35) = (   0.5000000  -0.3000000   0.7000000), wk =   0.0240000
        k(   36) = (  -0.2000000   0.6000000   0.0000000), wk =   0.0240000
        k(   37) = (   0.7000000  -0.3000000   0.9000000), wk =   0.0480000
        k(   38) = (   0.6000000  -0.2000000   0.8000000), wk =   0.0480000
        k(   39) = (   0.5000000  -0.1000000   0.7000000), wk =   0.0480000
        k(   40) = (   0.4000000   0.0000000   0.6000000), wk =   0.0240000
        k(   41) = (   0.8000000  -0.2000000   1.0000000), wk =   0.0240000
        k(   42) = (   0.7000000  -0.1000000   0.9000000), wk =   0.0480000
        k(   43) = (   0.6000000   0.0000000   0.8000000), wk =   0.0240000
        k(   44) = (  -0.2000000  -1.0000000   0.0000000), wk =   0.0120000
        k(   45) = (   0.6000000  -0.2000000   1.0000000), wk =   0.0240000
        k(   46) = (   0.5000000  -0.1000000   0.9000000), wk =   0.0240000
        k(   47) = (  -0.4000000  -1.0000000   0.0000000), wk =   0.0120000

     Dense  grid:     5817 G-vectors     FFT dimensions: (  25,  25,  25)

     Estimated max dynamical RAM per process >      19.63 MB

     WARNING: libxc functional with ID  263 depends
      on external parameters: check the user_guide of
      QE if you need to modify them or to check their
      default values.
     Generating pointlists ...
     new r_m :   0.2917 (alat units)  2.0990 (a.u.) for type    1

     Initial potential from superposition of free atoms

     starting charge       2.9979, renormalised to       3.0000
     Starting wfcs are    9 randomized atomic wfcs

     total cpu time spent up to now is        3.1 secs

     Self-consistent Calculation

     iteration #  1     ecut=    60.00 Ry     beta= 0.01
     Davidson diagonalization with overlap
     c_bands:  1 eigenvalues not converged
     c_bands:  5 eigenvalues not converged
     c_bands:  5 eigenvalues not converged
     c_bands:  1 eigenvalues not converged
     c_bands:  1 eigenvalues not converged
     ethr =  1.00E-02,  avg # of iterations = 19.7

     negative rho (up,down):  0.000E+00 9.357E-07

     total cpu time spent up to now is       35.1 secs

     total energy              =    -553.64747743 Ry
     estimated scf accuracy    <   74182.36640790 Ry

     total magnetization       =    -3.00 Bohr mag/cell
     absolute magnetization    =     3.00 Bohr mag/cell

     iteration #  2     ecut=    60.00 Ry     beta= 0.01
     Davidson diagonalization with overlap
     ethr =  1.00E-02,  avg # of iterations =  3.6

     total cpu time spent up to now is       43.2 secs

     total energy              =      -3.88730648 Ry
     estimated scf accuracy    <      99.20863470 Ry

     total magnetization       =     1.00 Bohr mag/cell
     absolute magnetization    =     1.00 Bohr mag/cell

     iteration #  3     ecut=    60.00 Ry     beta= 0.01
     Davidson diagonalization with overlap
     ethr =  1.00E-02,  avg # of iterations =  1.0

     negative rho (up,down):  0.000E+00 2.829E-01

     total cpu time spent up to now is       47.6 secs

     total energy              =      -3.60707023 Ry
     estimated scf accuracy    <      96.14958616 Ry

     total magnetization       =     0.95 Bohr mag/cell
     absolute magnetization    =     0.95 Bohr mag/cell

     iteration #  4     ecut=    60.00 Ry     beta= 0.01
     Davidson diagonalization with overlap
     ethr =  1.00E-02,  avg # of iterations =  1.6

     total cpu time spent up to now is       52.8 secs

     total energy              =      -3.84612898 Ry
     estimated scf accuracy    <     171.40796219 Ry

     total magnetization       =     1.34 Bohr mag/cell
     absolute magnetization    =     1.34 Bohr mag/cell

     iteration #  5     ecut=    60.00 Ry     beta= 0.01
     Davidson diagonalization with overlap
     ethr =  1.00E-02,  avg # of iterations =  1.5

     total cpu time spent up to now is       58.0 secs

     total energy              =      -4.14748528 Ry
     estimated scf accuracy    <      15.86229509 Ry

     total magnetization       =     0.60 Bohr mag/cell
     absolute magnetization    =     0.60 Bohr mag/cell

     iteration #  6     ecut=    60.00 Ry     beta= 0.01
     Davidson diagonalization with overlap
     ethr =  1.00E-02,  avg # of iterations =  1.0

     total cpu time spent up to now is       62.4 secs

     total energy              =      -4.18148579 Ry
     estimated scf accuracy    <      11.23980457 Ry

     total magnetization       =     0.10 Bohr mag/cell
     absolute magnetization    =     0.11 Bohr mag/cell

     iteration #  7     ecut=    60.00 Ry     beta= 0.01
     Davidson diagonalization with overlap
     ethr =  1.00E-02,  avg # of iterations =  1.0

     total cpu time spent up to now is       66.8 secs

     total energy              =      -4.17869589 Ry
     estimated scf accuracy    <      12.69713628 Ry

     total magnetization       =     0.09 Bohr mag/cell
     absolute magnetization    =     0.11 Bohr mag/cell

     iteration #  8     ecut=    60.00 Ry     beta= 0.01
     Davidson diagonalization with overlap
     ethr =  1.00E-02,  avg # of iterations =  1.0

     total cpu time spent up to now is       71.1 secs

     total energy              =      -4.16386921 Ry
     estimated scf accuracy    <      10.31874176 Ry

     total magnetization       =     0.10 Bohr mag/cell
     absolute magnetization    =     0.12 Bohr mag/cell

     iteration #  9     ecut=    60.00 Ry     beta= 0.01
     Davidson diagonalization with overlap
     ethr =  1.00E-02,  avg # of iterations =  1.0

     total cpu time spent up to now is       75.5 secs

     total energy              =      -4.13537903 Ry
     estimated scf accuracy    <       5.20299477 Ry

     total magnetization       =     0.02 Bohr mag/cell
     absolute magnetization    =     0.09 Bohr mag/cell

     iteration # 10     ecut=    60.00 Ry     beta= 0.01
     Davidson diagonalization with overlap
     ethr =  1.00E-02,  avg # of iterations =  1.0

     total cpu time spent up to now is       79.2 secs

     total energy              =      -4.14193730 Ry
     estimated scf accuracy    <       0.11880728 Ry

     total magnetization       =    -0.02 Bohr mag/cell
     absolute magnetization    =     0.04 Bohr mag/cell

     iteration # 11     ecut=    60.00 Ry     beta= 0.01
     Davidson diagonalization with overlap
     ethr =  3.96E-03,  avg # of iterations =  1.0

     total cpu time spent up to now is       82.4 secs

     total energy              =      -4.14286579 Ry
     estimated scf accuracy    <       0.01891107 Ry

     total magnetization       =    -0.05 Bohr mag/cell
     absolute magnetization    =     0.06 Bohr mag/cell

     iteration # 12     ecut=    60.00 Ry     beta= 0.01
     Davidson diagonalization with overlap
     ethr =  6.30E-04,  avg # of iterations =  1.2

     total cpu time spent up to now is       86.6 secs

     total energy              =      -4.14332689 Ry
     estimated scf accuracy    <       0.00366465 Ry

     total magnetization       =    -0.02 Bohr mag/cell
     absolute magnetization    =     0.04 Bohr mag/cell

     iteration # 13     ecut=    60.00 Ry     beta= 0.01
     Davidson diagonalization with overlap
     ethr =  1.22E-04,  avg # of iterations =  1.3

     total cpu time spent up to now is       91.2 secs

     total energy              =      -4.14324601 Ry
     estimated scf accuracy    <       0.00286838 Ry

     total magnetization       =    -0.00 Bohr mag/cell
     absolute magnetization    =     0.03 Bohr mag/cell

     iteration # 14     ecut=    60.00 Ry     beta= 0.01
     Davidson diagonalization with overlap
     ethr =  9.56E-05,  avg # of iterations =  1.0

     total cpu time spent up to now is       95.6 secs

     total energy              =      -4.14306003 Ry
     estimated scf accuracy    <       0.00006406 Ry

     total magnetization       =    -0.01 Bohr mag/cell
     absolute magnetization    =     0.03 Bohr mag/cell

     iteration # 15     ecut=    60.00 Ry     beta= 0.01
     Davidson diagonalization with overlap
     ethr =  2.14E-06,  avg # of iterations =  3.6

     total cpu time spent up to now is      102.4 secs

     total energy              =      -4.14331834 Ry
     estimated scf accuracy    <       0.00004720 Ry

     total magnetization       =    -0.01 Bohr mag/cell
     absolute magnetization    =     0.02 Bohr mag/cell

     iteration # 16     ecut=    60.00 Ry     beta= 0.01
     Davidson diagonalization with overlap
     ethr =  1.57E-06,  avg # of iterations =  1.4

     total cpu time spent up to now is      107.0 secs

     total energy              =      -4.14338784 Ry
     estimated scf accuracy    <       0.00015677 Ry

     total magnetization       =    -0.00 Bohr mag/cell
     absolute magnetization    =     0.02 Bohr mag/cell

     iteration # 17     ecut=    60.00 Ry     beta= 0.01
     Davidson diagonalization with overlap
     ethr =  1.57E-06,  avg # of iterations =  2.0

     total cpu time spent up to now is      112.4 secs

     total energy              =      -4.14347156 Ry
     estimated scf accuracy    <       0.00002793 Ry

     total magnetization       =    -0.01 Bohr mag/cell
     absolute magnetization    =     0.02 Bohr mag/cell

     iteration # 18     ecut=    60.00 Ry     beta= 0.01
     Davidson diagonalization with overlap
     ethr =  9.31E-07,  avg # of iterations =  1.8

     total cpu time spent up to now is      117.3 secs

     total energy              =      -4.14350511 Ry
     estimated scf accuracy    <       0.00003599 Ry

     total magnetization       =    -0.01 Bohr mag/cell
     absolute magnetization    =     0.02 Bohr mag/cell

     iteration # 19     ecut=    60.00 Ry     beta= 0.01
     Davidson diagonalization with overlap
     ethr =  9.31E-07,  avg # of iterations =  1.0

     total cpu time spent up to now is      121.7 secs

     total energy              =      -4.14345293 Ry
     estimated scf accuracy    <       0.00025173 Ry

     total magnetization       =    -0.00 Bohr mag/cell
     absolute magnetization    =     0.02 Bohr mag/cell

     iteration # 20     ecut=    60.00 Ry     beta= 0.01
     Davidson diagonalization with overlap
     ethr =  9.31E-07,  avg # of iterations =  2.0

     total cpu time spent up to now is      126.7 secs

     total energy              =      -4.14361062 Ry
     estimated scf accuracy    <       0.00022262 Ry

     total magnetization       =    -0.00 Bohr mag/cell
     absolute magnetization    =     0.02 Bohr mag/cell

     iteration # 21     ecut=    60.00 Ry     beta= 0.01
     Davidson diagonalization with overlap
     ethr =  9.31E-07,  avg # of iterations =  2.0

     total cpu time spent up to now is      131.1 secs

     total energy              =      -4.14353857 Ry
     estimated scf accuracy    <       0.00016705 Ry

     total magnetization       =    -0.00 Bohr mag/cell
     absolute magnetization    =     0.02 Bohr mag/cell

     iteration # 22     ecut=    60.00 Ry     beta= 0.01
     Davidson diagonalization with overlap
     ethr =  9.31E-07,  avg # of iterations =  2.0

     total cpu time spent up to now is      135.0 secs

     total energy              =      -4.14338733 Ry
     estimated scf accuracy    <       0.00022873 Ry

     total magnetization       =    -0.00 Bohr mag/cell
     absolute magnetization    =     0.02 Bohr mag/cell

     iteration # 23     ecut=    60.00 Ry     beta= 0.01
     Davidson diagonalization with overlap
     ethr =  9.31E-07,  avg # of iterations =  2.2

     total cpu time spent up to now is      141.2 secs

     total energy              =      -4.14341924 Ry
     estimated scf accuracy    <       0.00008202 Ry

     total magnetization       =     0.00 Bohr mag/cell
     absolute magnetization    =     0.01 Bohr mag/cell

     iteration # 24     ecut=    60.00 Ry     beta= 0.01
     Davidson diagonalization with overlap
     ethr =  9.31E-07,  avg # of iterations =  2.0

     total cpu time spent up to now is      146.4 secs

     total energy              =      -4.14356289 Ry
     estimated scf accuracy    <       0.00006000 Ry

     total magnetization       =    -0.00 Bohr mag/cell
     absolute magnetization    =     0.02 Bohr mag/cell

     iteration # 25     ecut=    60.00 Ry     beta= 0.01
     Davidson diagonalization with overlap
     ethr =  9.31E-07,  avg # of iterations =  2.0

     total cpu time spent up to now is      151.3 secs

     total energy              =      -4.14332451 Ry
     estimated scf accuracy    <       0.00009985 Ry

     total magnetization       =     0.00 Bohr mag/cell
     absolute magnetization    =     0.01 Bohr mag/cell

     iteration # 26     ecut=    60.00 Ry     beta= 0.01
     Davidson diagonalization with overlap
     ethr =  9.31E-07,  avg # of iterations =  2.4

     total cpu time spent up to now is      157.0 secs

     total energy              =      -4.14354787 Ry
     estimated scf accuracy    <       0.00000506 Ry

     total magnetization       =     0.00 Bohr mag/cell
     absolute magnetization    =     0.01 Bohr mag/cell

     iteration # 27     ecut=    60.00 Ry     beta= 0.01
     Davidson diagonalization with overlap
     ethr =  1.69E-07,  avg # of iterations =  2.5

     total cpu time spent up to now is      162.9 secs

     total energy              =      -4.14363175 Ry
     estimated scf accuracy    <       0.00000184 Ry

     total magnetization       =     0.00 Bohr mag/cell
     absolute magnetization    =     0.01 Bohr mag/cell

     iteration # 28     ecut=    60.00 Ry     beta= 0.01
     Davidson diagonalization with overlap
     ethr =  6.14E-08,  avg # of iterations =  2.0

     total cpu time spent up to now is      167.1 secs

     total energy              =      -4.14362039 Ry
     estimated scf accuracy    <       0.00000195 Ry

     total magnetization       =     0.00 Bohr mag/cell
     absolute magnetization    =     0.01 Bohr mag/cell

     iteration # 29     ecut=    60.00 Ry     beta= 0.01
     Davidson diagonalization with overlap
     ethr =  6.14E-08,  avg # of iterations =  2.0
 
     Magnetic moment per site  (integrated on atomic sphere of radius R)
     atom   1 (R=0.292)  charge=  1.6390  magn=  0.0011

     total cpu time spent up to now is      171.5 secs

     End of self-consistent calculation

 ------ SPIN UP ------------


          k = 0.0000 0.0000 0.0000 (   725 PWs)   bands (ev):

    -3.0204  23.9339  23.9339  23.9339  27.1860  27.1860

          k =-0.1000 0.1000-0.1000 (   728 PWs)   bands (ev):

    -2.7008  20.5120  23.4657  23.4657  27.2155  28.1437

          k =-0.2000 0.2000-0.2000 (   730 PWs)   bands (ev):

    -1.7476  16.0004  22.8107  22.8107  26.6127  28.0990

          k =-0.3000 0.3000-0.3000 (   748 PWs)   bands (ev):

    -0.1774  11.7994  22.4762  22.4762  26.0914  26.0917

          k =-0.4000 0.4000-0.4000 (   739 PWs)   bands (ev):

     1.9779   8.0515  22.5424  22.5424  24.5586  24.5586

          k = 0.5000-0.5000 0.5000 (   718 PWs)   bands (ev):

     4.3019   5.1953  22.7792  22.7792  23.8275  23.8275

          k = 0.0000 0.2000 0.0000 (   733 PWs)   bands (ev):

    -2.5945  21.6794  22.0753  22.0753  26.1153  28.1409

          k =-0.1000 0.3000-0.1000 (   729 PWs)   bands (ev):

    -1.8531  17.6177  21.0656  22.2901  25.3968  26.6901

          k =-0.2000 0.4000-0.2000 (   737 PWs)   bands (ev):

    -0.4896  13.3661  20.5208  21.8232  23.3633  28.9646

          k =-0.3000 0.5000-0.3000 (   736 PWs)   bands (ev):

     1.4702   9.4879  20.4631  20.8147  22.5596  27.4935

          k = 0.6000-0.4000 0.6000 (   734 PWs)   bands (ev):

     3.9436   6.1354  19.6605  20.9040  22.8945  26.2330

          k = 0.5000-0.3000 0.5000 (   738 PWs)   bands (ev):

     3.0806   7.1721  18.9192  21.8537  23.8650  25.4381

          k = 0.4000-0.2000 0.4000 (   739 PWs)   bands (ev):

     0.7532  10.7186  18.6940  23.3150  25.0945  25.3623

          k = 0.3000-0.1000 0.3000 (   734 PWs)   bands (ev):

    -1.0119  14.6926  19.0375  24.9538  25.4193  27.2971

          k = 0.2000 0.0000 0.2000 (   729 PWs)   bands (ev):

    -2.1702  18.5495  20.3450  24.7631  27.6112  27.9347

          k = 0.0000 0.4000 0.0000 (   725 PWs)   bands (ev):

    -1.3266  18.8701  19.8191  19.8191  22.0669  24.5256

          k =-0.1000 0.5000-0.1000 (   731 PWs)   bands (ev):

    -0.1777  15.3167  19.0776  19.3001  20.5936  24.9517

          k =-0.2000 0.6000-0.2000 (   725 PWs)   bands (ev):

     1.5716  11.4247  17.4162  18.8418  20.6184  27.5115

          k = 0.7000-0.3000 0.7000 (   730 PWs)   bands (ev):

     3.8737   7.9277  15.9376  19.1140  20.9837  29.5945

          k = 0.6000-0.2000 0.6000 (   729 PWs)   bands (ev):

     4.7336   6.8784  14.9942  19.8995  21.8731  28.6406

          k = 0.5000-0.1000 0.5000 (   734 PWs)   bands (ev):

     2.2840  10.0914  14.6906  21.2041  23.2946  28.0644

          k = 0.4000 0.0000 0.4000 (   732 PWs)   bands (ev):

     0.3407  13.1811  15.6057  23.0270  25.1861  27.2346

          k = 0.0000 0.6000 0.0000 (   721 PWs)   bands (ev):

     0.7518  16.6350  16.7695  18.1510  18.1510  22.8204

          k =-0.1000 0.7000-0.1000 (   730 PWs)   bands (ev):

     2.2790  13.6056  14.4944  17.7367  18.8396  23.6269

          k = 0.8000-0.2000 0.8000 (   729 PWs)   bands (ev):

     4.3596  10.1784  12.7287  17.8327  19.3704  26.5558

          k = 0.7000-0.1000 0.7000 (   725 PWs)   bands (ev):

     6.6196   7.3605  11.6317  18.4407  20.1838  30.2660

          k = 0.6000-0.0000 0.6000 (   728 PWs)   bands (ev):

     4.3803   9.3327  11.8197  19.5643  21.4990  31.2797

          k = 0.0000 0.8000 0.0000 (   729 PWs)   bands (ev):

     3.5684  11.7714  15.4936  17.1458  17.1458  21.7174

          k = 0.9000-0.1000 0.9000 (   732 PWs)   bands (ev):

     5.3580   9.8247  13.0640  17.0659  18.0391  22.9249

          k = 0.8000 0.0000 0.8000 (   728 PWs)   bands (ev):

     7.0321   8.8033  10.3660  17.4967  18.9553  26.2259

          k = 0.0000-1.0000 0.0000 (   740 PWs)   bands (ev):

     6.2672   8.3895  15.0665  16.8107  16.8107  21.3348

          k =-0.2000 0.4000 0.0000 (   729 PWs)   bands (ev):

    -0.9073  15.8672  18.0030  22.7354  23.4816  26.4856

          k =-0.3000 0.5000-0.1000 (   729 PWs)   bands (ev):

     0.6500  12.3917  16.8553  20.5690  24.1069  27.8591

          k = 0.6000-0.4000 0.8000 (   729 PWs)   bands (ev):

     2.7857   8.7779  16.7465  18.9626  24.4572  26.3528

          k = 0.5000-0.3000 0.7000 (   730 PWs)   bands (ev):

     5.0797   5.9747  16.9144  18.2341  25.1295  25.2143

          k =-0.2000 0.6000 0.0000 (   730 PWs)   bands (ev):

     1.1627  13.9252  15.8698  17.6538  21.7457  24.9888

          k = 0.7000-0.3000 0.9000 (   735 PWs)   bands (ev):

     3.0848  10.8211  14.6015  16.2549  22.7362  27.2068

          k = 0.6000-0.2000 0.8000 (   731 PWs)   bands (ev):

     5.4978   7.6280  13.6706  16.1872  23.4612  28.6960

          k = 0.5000-0.1000 0.7000 (   726 PWs)   bands (ev):

     4.6667   8.5453  13.0843  17.0550  24.5473  27.7919

          k = 0.4000 0.0000 0.6000 (   732 PWs)   bands (ev):

     2.3847  11.2522  13.6782  18.5562  26.0731  26.6089

          k = 0.8000-0.2000 1.0000 (   735 PWs)   bands (ev):

     3.9662  12.0377  12.7530  15.5402  20.6549  23.9939

          k = 0.7000-0.1000 0.9000 (   731 PWs)   bands (ev):

     6.1277   9.7720  10.9374  15.0319  22.0106  26.5796

          k = 0.6000 0.0000 0.8000 (   725 PWs)   bands (ev):

     7.0387   8.1804  10.6109  15.7042  23.1072  30.2761

          k =-0.2000-1.0000 0.0000 (   734 PWs)   bands (ev):

     6.6494   8.7403  12.3612  15.1019  20.2882  23.6493

          k = 0.6000-0.2000 1.0000 (   737 PWs)   bands (ev):

     5.1459  10.0933  11.9961  14.3143  25.5956  27.8038

          k = 0.5000-0.1000 0.9000 (   730 PWs)   bands (ev):

     7.3828   7.9983  11.4850  13.5976  27.0217  27.2863

          k =-0.4000-1.0000 0.0000 (   726 PWs)   bands (ev):

     7.7964   9.5867   9.7068  13.0012  25.2387  27.6714

 ------ SPIN DOWN ----------


          k = 0.0000 0.0000 0.0000 (   725 PWs)   bands (ev):

    -3.1114  23.9800  23.9800  23.9800  27.3259  27.3259

          k =-0.1000 0.1000-0.1000 (   728 PWs)   bands (ev):

    -2.7896  20.5806  23.5159  23.5159  27.4193  28.2879

          k =-0.2000 0.2000-0.2000 (   730 PWs)   bands (ev):

    -1.8297  16.0477  22.8586  22.8586  26.8349  28.1956

          k =-0.3000 0.3000-0.3000 (   748 PWs)   bands (ev):

    -0.2488  11.8194  22.5150  22.5150  26.1769  26.1769

          k =-0.4000 0.4000-0.4000 (   739 PWs)   bands (ev):

     1.9203   8.0465  22.5620  22.5620  24.6546  24.6546

          k = 0.5000-0.5000 0.5000 (   718 PWs)   bands (ev):

     4.2390   5.1918  22.7659  22.7659  23.9536  23.9536

          k = 0.0000 0.2000 0.0000 (   733 PWs)   bands (ev):

    -2.6825  21.7847  22.1198  22.1198  26.2477  28.2427

          k =-0.1000 0.3000-0.1000 (   729 PWs)   bands (ev):

    -1.9360  17.6782  21.1031  22.3769  25.4656  26.8491

          k =-0.2000 0.4000-0.2000 (   737 PWs)   bands (ev):

    -0.5631  13.3977  20.5522  21.8943  23.4695  29.1233

          k =-0.3000 0.5000-0.3000 (   736 PWs)   bands (ev):

     1.4098   9.4925  20.4899  20.8511  22.7006  27.5883

          k = 0.6000-0.4000 0.6000 (   734 PWs)   bands (ev):

     3.8935   6.1231  19.6965  20.9286  23.0351  26.3251

          k = 0.5000-0.3000 0.5000 (   738 PWs)   bands (ev):

     3.0291   7.1626  18.9573  21.8789  24.0051  25.5301

          k = 0.4000-0.2000 0.4000 (   739 PWs)   bands (ev):

     0.6880  10.7319  18.7346  23.3424  25.1891  25.5049

          k = 0.3000-0.1000 0.3000 (   734 PWs)   bands (ev):

    -1.0890  14.7343  19.0803  24.9888  25.5123  27.4464

          k = 0.2000 0.0000 0.2000 (   729 PWs)   bands (ev):

    -2.2553  18.6188  20.3886  24.8173  27.7838  27.9643

          k = 0.0000 0.4000 0.0000 (   725 PWs)   bands (ev):

    -1.4059  18.9875  19.8477  19.8477  22.1103  24.7007

          k =-0.1000 0.5000-0.1000 (   731 PWs)   bands (ev):

    -0.2491  15.3680  19.0997  19.3419  20.6918  25.1057

          k =-0.2000 0.6000-0.2000 (   725 PWs)   bands (ev):

     1.5121  11.4436  17.4464  18.8602  20.7513  27.6676

          k = 0.7000-0.3000 0.7000 (   730 PWs)   bands (ev):

     3.8280   7.9228  15.9626  19.1319  21.1260  29.7050

          k = 0.6000-0.2000 0.6000 (   729 PWs)   bands (ev):

     4.6893   6.8710  15.0159  19.9208  22.0201  28.7468

          k = 0.5000-0.1000 0.5000 (   734 PWs)   bands (ev):

     2.2290  10.1028  14.7098  21.2331  23.4455  28.1634

          k = 0.4000 0.0000 0.4000 (   732 PWs)   bands (ev):

     0.2729  13.2200  15.6243  23.0682  25.3392  27.3136

          k = 0.0000 0.6000 0.0000 (   721 PWs)   bands (ev):

     0.6869  16.6553  16.8853  18.1662  18.1662  22.9883

          k =-0.1000 0.7000-0.1000 (   730 PWs)   bands (ev):

     2.2246  13.6312  14.5265  17.7479  18.9346  23.7756

          k = 0.8000-0.2000 0.8000 (   729 PWs)   bands (ev):

     4.3196  10.1830  12.7418  17.8432  19.4990  26.7073

          k = 0.7000-0.1000 0.7000 (   725 PWs)   bands (ev):

     6.5799   7.3637  11.6348  18.4541  20.3246  30.4512

          k = 0.6000-0.0000 0.6000 (   728 PWs)   bands (ev):

     4.3387   9.3439  11.8165  19.5841  21.6465  31.4008

          k = 0.0000 0.8000 0.0000 (   729 PWs)   bands (ev):

     3.5237  11.7638  15.6065  17.1527  17.1527  21.8812

          k = 0.9000-0.1000 0.9000 (   732 PWs)   bands (ev):

     5.3287   9.7998  13.1138  17.0717  18.1298  23.0704

          k = 0.8000 0.0000 0.8000 (   728 PWs)   bands (ev):

     7.0253   8.7533  10.3959  17.5047  19.0824  26.3758

          k = 0.0000-1.0000 0.0000 (   740 PWs)   bands (ev):

     6.2542   8.3474  15.1783  16.8149  16.8149  21.4972

          k =-0.2000 0.4000 0.0000 (   729 PWs)   bands (ev):

    -0.9836  15.9253  18.0319  22.7978  23.5678  26.6434

          k =-0.3000 0.5000-0.1000 (   729 PWs)   bands (ev):

     0.5843  12.4192  16.8840  20.6262  24.2141  28.0194

          k = 0.6000-0.4000 0.8000 (   729 PWs)   bands (ev):

     2.7337   8.7784  16.7719  19.0181  24.5735  26.4773

          k = 0.5000-0.3000 0.7000 (   730 PWs)   bands (ev):

     5.0238   5.9748  16.9329  18.2944  25.2840  25.2992

          k =-0.2000 0.6000 0.0000 (   730 PWs)   bands (ev):

     1.1005  13.9751  15.8730  17.7065  21.8315  25.1414

          k = 0.7000-0.3000 0.9000 (   735 PWs)   bands (ev):

     3.0357  10.8372  14.6046  16.3094  22.8433  27.3658

          k = 0.6000-0.2000 0.8000 (   731 PWs)   bands (ev):

     5.4605   7.6236  13.6770  16.2368  23.5794  28.8432

          k = 0.5000-0.1000 0.7000 (   726 PWs)   bands (ev):

     4.6265   8.5467  13.0899  17.1041  24.6739  27.9248

          k = 0.4000 0.0000 0.6000 (   732 PWs)   bands (ev):

     2.3306  11.2785  13.6818  18.6095  26.2109  26.7286

          k = 0.8000-0.2000 1.0000 (   735 PWs)   bands (ev):

     3.9240  12.0253  12.7978  15.5737  20.7358  24.1419

          k = 0.7000-0.1000 0.9000 (   731 PWs)   bands (ev):

     6.1027   9.7572  10.9495  15.0708  22.1150  26.7330

          k = 0.6000 0.0000 0.8000 (   725 PWs)   bands (ev):

     7.0108   8.1830  10.6013  15.7472  23.2248  30.4696

          k =-0.2000-1.0000 0.0000 (   734 PWs)   bands (ev):

     6.6396   8.6965  12.4044  15.1294  20.3671  23.7956

          k = 0.6000-0.2000 1.0000 (   737 PWs)   bands (ev):

     5.1108  10.1121  11.9714  14.3664  25.7196  27.9947

          k = 0.5000-0.1000 0.9000 (   730 PWs)   bands (ev):

     7.3518   8.0054  11.4627  13.6496  27.1836  27.4077

          k =-0.4000-1.0000 0.0000 (   726 PWs)   bands (ev):

     7.7961   9.5311   9.7232  13.0451  25.3624  27.8394

     the Fermi energy is     9.8827 ev

!    total energy              =      -4.14363910 Ry
     estimated scf accuracy    <       0.00000056 Ry
     smearing contrib. (-TS)   =      -0.02311609 Ry
     internal energy E=F+TS    =      -4.12052301 Ry

     The total energy is F=E-TS. E is the sum of the following terms:
     one-electron contribution =       3.29021684 Ry
     hartree contribution      =       0.01137962 Ry
     xc contribution           =      -1.68791759 Ry
     ewald contribution        =      -5.73420187 Ry

     total magnetization       =     0.00 Bohr mag/cell
     absolute magnetization    =     0.01 Bohr mag/cell

     convergence has been achieved in  29 iterations
     Writing meta-gga kinetic term

     Writing all to output data dir ./input_pw/Al/4/pwscf.save/
     Writing meta-gga kinetic term
 
     init_run     :      1.36s CPU      3.06s WALL (       1 calls)
     electrons    :     87.39s CPU    168.39s WALL (       1 calls)

     Called by init_run:
     wfcinit      :      1.25s CPU      2.79s WALL (       1 calls)
     potinit      :      0.02s CPU      0.06s WALL (       1 calls)
     hinit0       :      0.08s CPU      0.18s WALL (       1 calls)

     Called by electrons:
     c_bands      :     73.67s CPU    142.73s WALL (      29 calls)
     sum_band     :     12.89s CPU     24.03s WALL (      29 calls)
     v_of_rho     :      0.57s CPU      1.16s WALL (      30 calls)
     mix_rho      :      0.27s CPU      0.48s WALL (      29 calls)

     Called by c_bands:
     init_us_2    :      0.47s CPU      0.88s WALL (    5546 calls)
     init_us_2:cp :      0.45s CPU      0.87s WALL (    5546 calls)
     cegterg      :     73.17s CPU    141.81s WALL (    2771 calls)

     Called by *egterg:
     cdiaghg      :      0.62s CPU      1.28s WALL (    9109 calls)
     h_psi        :     72.35s CPU    140.28s WALL (    9248 calls)
     g_psi        :      0.08s CPU      0.13s WALL (    6383 calls)

     Called by h_psi:
     h_psi:calbec :      0.19s CPU      0.33s WALL (    9248 calls)
     vloc_psi     :     17.83s CPU     34.74s WALL (    9248 calls)
     add_vuspsi   :      0.20s CPU      0.35s WALL (    9248 calls)
     h_psi_meta   :     53.98s CPU    104.57s WALL (    9248 calls)

     General routines
     calbec       :      0.16s CPU      0.26s WALL (    9248 calls)
     fft          :      0.11s CPU      0.25s WALL (     683 calls)
     ffts         :      0.08s CPU      0.10s WALL (     486 calls)
     fftw         :     75.69s CPU    146.06s WALL (  465072 calls)
     interpolate  :      0.00s CPU      0.00s WALL (      60 calls)
 
     Parallel routines
 
     PWSCF        :   1m28.80s CPU   2m51.55s WALL

 
   This run was terminated on:   9:51:51   4Apr2023            

=------------------------------------------------------------------------------=
   JOB DONE.
=------------------------------------------------------------------------------=
