
     Program PWSCF v.7.0 starts on 21Mar2023 at 13:11:34 

     This program is part of the open-source Quantum ESPRESSO suite
     for quantum simulation of materials; please cite
         "P. Giannozzi et al., J. Phys.:Condens. Matter 21 395502 (2009);
         "P. Giannozzi et al., J. Phys.:Condens. Matter 29 465901 (2017);
         "P. Giannozzi et al., J. Chem. Phys. 152 154105 (2020);
          URL http://www.quantum-espresso.org", 
     in publications or presentations arising from this work. More details at
     http://www.quantum-espresso.org/quote

     Parallel version (MPI), running on     1 processors

     MPI processes distributed on     1 nodes
     24765 MiB available memory on the printing compute node when the environment starts
 
     Waiting for input...
     Reading input from standard input
Warning: card &CELL ignored
Warning: card / ignored

     Current dimensions of program PWSCF are:
     Max number of different atomic species (ntypx) = 10
     Max number of k-points (npk) =  40000
     Max angular momentum in pseudopotentials (lmaxx) =  4
     file Al.SCAN.UPF2: wavefunction(s)  0D renormalized

     WARNING: the MGGA functional with ID    5 has been 
     read together with other dft terms, but it should 
     stand alone in order to work properly. The other 
     terms will be ignored.

     Subspace diagonalization in iterative solution of the eigenvalue problem:
     a serial algorithm will be used

 
     G-vector sticks info
     --------------------
     sticks:   dense  smooth     PW     G-vecs:    dense   smooth      PW
     Sum        1417    1417    421                35845    35845    5673
 
     Using Slab Decomposition
 


     bravais-lattice index     =            2
     lattice parameter (alat)  =      13.1827  a.u.
     unit-cell volume          =     572.7380 (a.u.)^3
     number of atoms/cell      =            1
     number of atomic types    =            1
     number of electrons       =         3.00
     number of Kohn-Sham states=            6
     kinetic-energy cutoff     =      60.0000  Ry
     charge density cutoff     =     240.0000  Ry
     scf convergence threshold =      1.0E-06
     mixing beta               =       0.0100
     number of iterations used =            8  local-TF  mixing
     Exchange-correlation= SLA  PW   SCAN SCAN
                           (   0   0   0   0   0 263 267)

     celldm(1)=  13.182729  celldm(2)=   0.000000  celldm(3)=   0.000000
     celldm(4)=   0.000000  celldm(5)=   0.000000  celldm(6)=   0.000000

     crystal axes: (cart. coord. in units of alat)
               a(1) = (  -0.500000   0.000000   0.500000 )  
               a(2) = (   0.000000   0.500000   0.500000 )  
               a(3) = (  -0.500000   0.500000   0.000000 )  

     reciprocal axes: (cart. coord. in units 2 pi/alat)
               b(1) = ( -1.000000 -1.000000  1.000000 )  
               b(2) = (  1.000000  1.000000  1.000000 )  
               b(3) = ( -1.000000  1.000000 -1.000000 )  


     PseudoPot. # 1 for Al read from file:
     ~/Documents/TA/PWDFT.jl/pseudopotentials/scan_upf/Al.SCAN.UPF2
     MD5 check sum: Not computed, couldn't open file
     Pseudo is Norm-conserving, Zval =  3.0
     Generated by new atomic code, or converted to UPF format
     Using radial grid of 1467 points,  2 beta functions with: 
                l(1) =   0
                l(2) =   1

     atomic species   valence    mass     pseudopotential
        Al             3.00    26.98154     Al( 1.00)

     48 Sym. Ops., with inversion, found



   Cartesian axes

     site n.     atom                  positions (alat units)
         1           Al  tau(   1) = (   0.0000000   0.0000000   0.0000000  )

     number of k points=    47  Gaussian smearing, width (Ry)=  0.1000
                       cart. coord. in units 2pi/alat
        k(    1) = (   0.0000000   0.0000000   0.0000000), wk =   0.0020000
        k(    2) = (  -0.1000000   0.1000000  -0.1000000), wk =   0.0160000
        k(    3) = (  -0.2000000   0.2000000  -0.2000000), wk =   0.0160000
        k(    4) = (  -0.3000000   0.3000000  -0.3000000), wk =   0.0160000
        k(    5) = (  -0.4000000   0.4000000  -0.4000000), wk =   0.0160000
        k(    6) = (   0.5000000  -0.5000000   0.5000000), wk =   0.0080000
        k(    7) = (   0.0000000   0.2000000   0.0000000), wk =   0.0120000
        k(    8) = (  -0.1000000   0.3000000  -0.1000000), wk =   0.0480000
        k(    9) = (  -0.2000000   0.4000000  -0.2000000), wk =   0.0480000
        k(   10) = (  -0.3000000   0.5000000  -0.3000000), wk =   0.0480000
        k(   11) = (   0.6000000  -0.4000000   0.6000000), wk =   0.0480000
        k(   12) = (   0.5000000  -0.3000000   0.5000000), wk =   0.0480000
        k(   13) = (   0.4000000  -0.2000000   0.4000000), wk =   0.0480000
        k(   14) = (   0.3000000  -0.1000000   0.3000000), wk =   0.0480000
        k(   15) = (   0.2000000   0.0000000   0.2000000), wk =   0.0240000
        k(   16) = (   0.0000000   0.4000000   0.0000000), wk =   0.0120000
        k(   17) = (  -0.1000000   0.5000000  -0.1000000), wk =   0.0480000
        k(   18) = (  -0.2000000   0.6000000  -0.2000000), wk =   0.0480000
        k(   19) = (   0.7000000  -0.3000000   0.7000000), wk =   0.0480000
        k(   20) = (   0.6000000  -0.2000000   0.6000000), wk =   0.0480000
        k(   21) = (   0.5000000  -0.1000000   0.5000000), wk =   0.0480000
        k(   22) = (   0.4000000   0.0000000   0.4000000), wk =   0.0240000
        k(   23) = (   0.0000000   0.6000000   0.0000000), wk =   0.0120000
        k(   24) = (  -0.1000000   0.7000000  -0.1000000), wk =   0.0480000
        k(   25) = (   0.8000000  -0.2000000   0.8000000), wk =   0.0480000
        k(   26) = (   0.7000000  -0.1000000   0.7000000), wk =   0.0480000
        k(   27) = (   0.6000000  -0.0000000   0.6000000), wk =   0.0240000
        k(   28) = (   0.0000000   0.8000000   0.0000000), wk =   0.0120000
        k(   29) = (   0.9000000  -0.1000000   0.9000000), wk =   0.0480000
        k(   30) = (   0.8000000   0.0000000   0.8000000), wk =   0.0240000
        k(   31) = (   0.0000000  -1.0000000   0.0000000), wk =   0.0060000
        k(   32) = (  -0.2000000   0.4000000   0.0000000), wk =   0.0480000
        k(   33) = (  -0.3000000   0.5000000  -0.1000000), wk =   0.0960000
        k(   34) = (   0.6000000  -0.4000000   0.8000000), wk =   0.0960000
        k(   35) = (   0.5000000  -0.3000000   0.7000000), wk =   0.0480000
        k(   36) = (  -0.2000000   0.6000000   0.0000000), wk =   0.0480000
        k(   37) = (   0.7000000  -0.3000000   0.9000000), wk =   0.0960000
        k(   38) = (   0.6000000  -0.2000000   0.8000000), wk =   0.0960000
        k(   39) = (   0.5000000  -0.1000000   0.7000000), wk =   0.0960000
        k(   40) = (   0.4000000   0.0000000   0.6000000), wk =   0.0480000
        k(   41) = (   0.8000000  -0.2000000   1.0000000), wk =   0.0480000
        k(   42) = (   0.7000000  -0.1000000   0.9000000), wk =   0.0960000
        k(   43) = (   0.6000000   0.0000000   0.8000000), wk =   0.0480000
        k(   44) = (  -0.2000000  -1.0000000   0.0000000), wk =   0.0240000
        k(   45) = (   0.6000000  -0.2000000   1.0000000), wk =   0.0480000
        k(   46) = (   0.5000000  -0.1000000   0.9000000), wk =   0.0480000
        k(   47) = (  -0.4000000  -1.0000000   0.0000000), wk =   0.0240000

     Dense  grid:    35845 G-vectors     FFT dimensions: (  45,  45,  45)

     Estimated max dynamical RAM per process >      71.17 MB

     WARNING: libxc functional with ID  263 depends
      on external parameters: check the user_guide of
      QE if you need to modify them or to check their
      default values.

     Initial potential from superposition of free atoms

     starting charge       2.9979, renormalised to       3.0000
     Starting wfcs are    9 randomized atomic wfcs

     total cpu time spent up to now is       12.4 secs

     Self-consistent Calculation

     iteration #  1     ecut=    60.00 Ry     beta= 0.01
     Davidson diagonalization with overlap
     ethr =  1.00E-02,  avg # of iterations =  2.4

     Threshold (ethr) on eigenvalues was too large:
     Diagonalizing with lowered threshold

     Davidson diagonalization with overlap
     ethr =  1.09E-04,  avg # of iterations =  3.2

     total cpu time spent up to now is       76.8 secs

     total energy              =      -3.97705372 Ry
     estimated scf accuracy    <       0.00334021 Ry

     iteration #  2     ecut=    60.00 Ry     beta= 0.01
     Davidson diagonalization with overlap
     ethr =  1.11E-04,  avg # of iterations =  1.0

     total cpu time spent up to now is      102.4 secs

     total energy              =      -3.98651614 Ry
     estimated scf accuracy    <       0.00328296 Ry

     iteration #  3     ecut=    60.00 Ry     beta= 0.01
     Davidson diagonalization with overlap
     ethr =  1.09E-04,  avg # of iterations =  2.0

     total cpu time spent up to now is      135.2 secs

     total energy              =      -3.98766453 Ry
     estimated scf accuracy    <       0.00005433 Ry

     iteration #  4     ecut=    60.00 Ry     beta= 0.01
     Davidson diagonalization with overlap
     ethr =  1.81E-06,  avg # of iterations =  4.3

     total cpu time spent up to now is      174.7 secs

     total energy              =      -3.98751056 Ry
     estimated scf accuracy    <       0.00004630 Ry

     iteration #  5     ecut=    60.00 Ry     beta= 0.01
     Davidson diagonalization with overlap
     ethr =  1.54E-06,  avg # of iterations =  2.0

     total cpu time spent up to now is      209.6 secs

     total energy              =      -3.98759488 Ry
     estimated scf accuracy    <       0.00006799 Ry

     iteration #  6     ecut=    60.00 Ry     beta= 0.01
     Davidson diagonalization with overlap
     ethr =  1.54E-06,  avg # of iterations =  1.0

     total cpu time spent up to now is      234.2 secs

     total energy              =      -3.98758919 Ry
     estimated scf accuracy    <       0.00005445 Ry

     iteration #  7     ecut=    60.00 Ry     beta= 0.01
     Davidson diagonalization with overlap
     ethr =  1.54E-06,  avg # of iterations =  2.0

     total cpu time spent up to now is      269.0 secs

     End of self-consistent calculation

          k = 0.0000 0.0000 0.0000 (  4573 PWs)   bands (ev):

    -6.1337   1.6138   1.6138   1.6138   4.0149   5.9614

          k =-0.1000 0.1000-0.1000 (  4525 PWs)   bands (ev):

    -6.0711   1.1423   1.5702   1.5702   4.3562   5.7557

          k =-0.2000 0.2000-0.2000 (  4498 PWs)   bands (ev):

    -5.8930   0.2400   1.4658   1.4658   4.5298   5.9953

          k =-0.3000 0.3000-0.3000 (  4519 PWs)   bands (ev):

    -5.6354  -0.6464   1.3526   1.3526   4.2952   5.9665

          k =-0.4000 0.4000-0.4000 (  4500 PWs)   bands (ev):

    -5.3804  -1.3083   1.2711   1.2711   4.1024   5.7069

          k = 0.5000-0.5000 0.5000 (  4476 PWs)   bands (ev):

    -5.2661  -1.5621   1.2420   1.2420   4.0354   5.6096

          k = 0.0000 0.2000 0.0000 (  4509 PWs)   bands (ev):

    -6.0502   1.1754   1.4593   1.4593   4.5072   5.4579

          k =-0.1000 0.3000-0.1000 (  4505 PWs)   bands (ev):

    -5.9103   0.4932   1.3102   1.3745   4.8094   5.3223

          k =-0.2000 0.4000-0.2000 (  4502 PWs)   bands (ev):

    -5.6774  -0.3571   1.1861   1.2285   4.6066   5.6715

          k =-0.3000 0.5000-0.3000 (  4510 PWs)   bands (ev):

    -5.4150  -1.0762   1.0553   1.1258   4.4220   5.3322

          k = 0.6000-0.4000 0.6000 (  4498 PWs)   bands (ev):

    -5.2432  -1.4665   0.9182   1.1422   4.3584   5.1884

          k = 0.5000-0.3000 0.5000 (  4490 PWs)   bands (ev):

    -5.2820  -1.3821   0.8550   1.2289   4.4152   5.2625

          k = 0.4000-0.2000 0.4000 (  4504 PWs)   bands (ev):

    -5.5007  -0.8603   0.8863   1.3618   4.5790   5.5486

          k = 0.3000-0.1000 0.3000 (  4505 PWs)   bands (ev):

    -5.7635  -0.0865   1.0229   1.4994   4.8186   5.8191

          k = 0.2000 0.0000 0.2000 (  4511 PWs)   bands (ev):

    -5.9698   0.6883   1.2802   1.5849   4.7461   5.4955

          k = 0.0000 0.4000 0.0000 (  4536 PWs)   bands (ev):

    -5.8123   0.3765   1.1164   1.1164   4.7132   4.8164

          k =-0.1000 0.5000-0.1000 (  4513 PWs)   bands (ev):

    -5.6170  -0.1859   0.9108   0.9614   4.4363   4.7294

          k =-0.2000 0.6000-0.2000 (  4497 PWs)   bands (ev):

    -5.3737  -0.7983   0.6102   0.8886   4.2049   5.1275

          k = 0.7000-0.3000 0.7000 (  4482 PWs)   bands (ev):

    -5.1783  -1.2153   0.3257   0.9136   4.1651   5.4210

          k = 0.6000-0.2000 0.6000 (  4489 PWs)   bands (ev):

    -5.1489  -1.2644   0.1516   1.0297   4.3355   5.4770

          k = 0.5000-0.1000 0.5000 (  4497 PWs)   bands (ev):

    -5.3068  -0.9377   0.1533   1.2082   4.7061   5.5375

          k = 0.4000 0.0000 0.4000 (  4509 PWs)   bands (ev):

    -5.5478  -0.4652   0.4395   1.3921   5.2057   5.6036

          k = 0.0000 0.6000 0.0000 (  4504 PWs)   bands (ev):

    -5.4664  -0.4010   0.7717   0.7717   3.9379   4.1288

          k =-0.1000 0.7000-0.1000 (  4504 PWs)   bands (ev):

    -5.2645  -0.7705   0.4723   0.6697   3.6764   4.2038

          k = 0.8000-0.2000 0.8000 (  4490 PWs)   bands (ev):

    -5.0861  -1.0124  -0.0171   0.6762   3.6442   4.8571

          k = 0.7000-0.1000 0.7000 (  4476 PWs)   bands (ev):

    -5.0249  -0.9960  -0.4342   0.7896   3.8129   5.7016

          k = 0.6000-0.0000 0.6000 (  4490 PWs)   bands (ev):

    -5.1183  -0.8927  -0.4402   0.9857   4.1822   6.2541

          k = 0.0000 0.8000 0.0000 (  4480 PWs)   bands (ev):

    -5.1202  -1.0065   0.5340   0.5340   3.2343   3.7684

          k = 0.9000-0.1000 0.9000 (  4485 PWs)   bands (ev):

    -4.9994  -1.1447   0.2186   0.5095   3.2271   3.9661

          k = 0.8000 0.0000 0.8000 (  4480 PWs)   bands (ev):

    -4.9626  -1.0414  -0.3116   0.6005   3.4418   4.7621

          k = 0.0000-1.0000 0.0000 (  4456 PWs)   bands (ev):

    -4.9628  -1.2507   0.4505   0.4505   2.9888   3.6472

          k =-0.2000 0.4000 0.0000 (  4512 PWs)   bands (ev):

    -5.7421   0.0296   0.8940   1.3308   5.0553   5.1033

          k =-0.3000 0.5000-0.1000 (  4502 PWs)   bands (ev):

    -5.5015  -0.5981   0.5917   1.1948   4.8439   5.2929

          k = 0.6000-0.4000 0.8000 (  4489 PWs)   bands (ev):

    -5.2676  -1.1427   0.4548   1.0438   4.7369   5.0023

          k = 0.5000-0.3000 0.7000 (  4490 PWs)   bands (ev):

    -5.1647  -1.3599   0.4184   0.9795   4.7791   4.8072

          k =-0.2000 0.6000 0.0000 (  4507 PWs)   bands (ev):

    -5.4157  -0.5499   0.5158   0.8570   4.2919   4.5670

          k = 0.7000-0.3000 0.9000 (  4497 PWs)   bands (ev):

    -5.1997  -0.9080   0.1578   0.6986   4.2066   5.0431

          k = 0.6000-0.2000 0.8000 (  4478 PWs)   bands (ev):

    -5.0684  -1.1008  -0.1146   0.6718   4.2629   5.4666

          k = 0.5000-0.1000 0.7000 (  4491 PWs)   bands (ev):

    -5.1043  -1.0218  -0.2140   0.7965   4.4821   5.5164

          k = 0.4000 0.0000 0.6000 (  4501 PWs)   bands (ev):

    -5.2823  -0.8009   0.0144   1.0089   4.8183   5.5635

          k = 0.8000-0.2000 1.0000 (  4496 PWs)   bands (ev):

    -5.0968  -0.9766   0.2591   0.4428   3.6479   4.2470

          k = 0.7000-0.1000 0.9000 (  4491 PWs)   bands (ev):

    -4.9859  -0.9917  -0.2215   0.3978   3.8278   4.8799

          k = 0.6000 0.0000 0.8000 (  4474 PWs)   bands (ev):

    -4.9904  -0.7370  -0.6989   0.5453   4.0910   5.7168

          k =-0.2000-1.0000 0.0000 (  4476 PWs)   bands (ev):

    -4.9556  -1.1457   0.1694   0.2815   3.4315   4.1374

          k = 0.6000-0.2000 1.0000 (  4503 PWs)   bands (ev):

    -5.0424  -0.8916  -0.2673   0.4006   4.4609   5.3662

          k = 0.5000-0.1000 0.9000 (  4476 PWs)   bands (ev):

    -4.9774  -0.8187  -0.4857   0.2654   4.5234   5.7015

          k =-0.4000-1.0000 0.0000 (  4476 PWs)   bands (ev):

    -4.9437  -0.8390  -0.3647   0.0624   4.3271   5.2866

     the Fermi energy is    -1.1275 ev

!    total energy              =      -3.98763728 Ry
     estimated scf accuracy    <       0.00000087 Ry
     smearing contrib. (-TS)   =      -0.07708672 Ry
     internal energy E=F+TS    =      -3.91055056 Ry

     The total energy is F=E-TS. E is the sum of the following terms:
     one-electron contribution =       0.05931857 Ry
     hartree contribution      =       0.34070017 Ry
     xc contribution           =      -1.18043158 Ry
     ewald contribution        =      -3.13013772 Ry

     convergence has been achieved in   7 iterations
     Writing meta-gga kinetic term

     Writing all to output data dir ./input_pw/Al/4/pwscf.save/
     Writing meta-gga kinetic term
 
     init_run     :      7.09s CPU     12.36s WALL (       1 calls)
     electrons    :    131.30s CPU    256.59s WALL (       1 calls)

     Called by init_run:
     wfcinit      :      6.89s CPU     11.93s WALL (       1 calls)
     potinit      :      0.08s CPU      0.15s WALL (       1 calls)
     hinit0       :      0.08s CPU      0.17s WALL (       1 calls)

     Called by electrons:
     c_bands      :    106.66s CPU    208.12s WALL (       8 calls)
     sum_band     :     23.30s CPU     45.98s WALL (       8 calls)
     v_of_rho     :      0.64s CPU      1.25s WALL (       8 calls)
     mix_rho      :      0.73s CPU      1.33s WALL (       8 calls)

     Called by c_bands:
     init_us_2    :      0.48s CPU      0.99s WALL (     799 calls)
     init_us_2:cp :      0.47s CPU      0.98s WALL (     799 calls)
     cegterg      :    106.11s CPU    206.98s WALL (     376 calls)

     Called by *egterg:
     cdiaghg      :      0.16s CPU      0.32s WALL (    1170 calls)
     h_psi        :    110.91s CPU    215.11s WALL (    1264 calls)
     g_psi        :      0.08s CPU      0.21s WALL (     841 calls)

     Called by h_psi:
     h_psi:calbec :      0.39s CPU      0.82s WALL (    1264 calls)
     vloc_psi     :     27.19s CPU     52.92s WALL (    1264 calls)
     add_vuspsi   :      0.22s CPU      0.41s WALL (    1264 calls)
     h_psi_meta   :     82.96s CPU    160.69s WALL (    1264 calls)

     General routines
     calbec       :      0.38s CPU      0.80s WALL (    1264 calls)
     fft          :      0.16s CPU      0.38s WALL (      95 calls)
     ffts         :      0.22s CPU      0.37s WALL (     130 calls)
     fftw         :    101.85s CPU    198.31s WALL (   60760 calls)
     interpolate  :      0.00s CPU      0.00s WALL (       8 calls)
 
     Parallel routines
 
     PWSCF        :   2m18.46s CPU   4m29.19s WALL

 
   This run was terminated on:  13:16: 3  21Mar2023            

=------------------------------------------------------------------------------=
   JOB DONE.
=------------------------------------------------------------------------------=
