
     Program PWSCF v.7.0 starts on 29Mar2023 at 10:21:34 

     This program is part of the open-source Quantum ESPRESSO suite
     for quantum simulation of materials; please cite
         "P. Giannozzi et al., J. Phys.:Condens. Matter 21 395502 (2009);
         "P. Giannozzi et al., J. Phys.:Condens. Matter 29 465901 (2017);
         "P. Giannozzi et al., J. Chem. Phys. 152 154105 (2020);
          URL http://www.quantum-espresso.org", 
     in publications or presentations arising from this work. More details at
     http://www.quantum-espresso.org/quote

     Parallel version (MPI), running on     1 processors

     MPI processes distributed on     1 nodes
     23932 MiB available memory on the printing compute node when the environment starts
 
     Waiting for input...
     Reading input from standard input
Warning: card &CELL ignored
Warning: card / ignored

     Current dimensions of program PWSCF are:
     Max number of different atomic species (ntypx) = 10
     Max number of k-points (npk) =  40000
     Max angular momentum in pseudopotentials (lmaxx) =  4
     file Cl.SCAN.UPF2: wavefunction(s)  0D renormalized

     WARNING: the MGGA functional with ID    5 has been 
     read together with other dft terms, but it should 
     stand alone in order to work properly. The other 
     terms will be ignored.

     WARNING: the MGGA functional with ID    5 has been 
     read together with other dft terms, but it should 
     stand alone in order to work properly. The other 
     terms will be ignored.

     Subspace diagonalization in iterative solution of the eigenvalue problem:
     a serial algorithm will be used

 
     G-vector sticks info
     --------------------
     sticks:   dense  smooth     PW     G-vecs:    dense   smooth      PW
     Sum         859     859    253                16889    16889    2741
 
     Using Slab Decomposition
 


     bravais-lattice index     =            2
     lattice parameter (alat)  =      11.2504  a.u.
     unit-cell volume          =     355.9950 (a.u.)^3
     number of atoms/cell      =            2
     number of atomic types    =            2
     number of electrons       =         8.00
     number of Kohn-Sham states=            4
     kinetic-energy cutoff     =      50.0000  Ry
     charge density cutoff     =     200.0000  Ry
     scf convergence threshold =      1.0E-06
     mixing beta               =       0.0100
     number of iterations used =            8  local-TF  mixing
     Exchange-correlation= SLA  PW   SCAN SCAN
                           (   0   0   0   0   0 263 267)

     celldm(1)=  11.250400  celldm(2)=   0.000000  celldm(3)=   0.000000
     celldm(4)=   0.000000  celldm(5)=   0.000000  celldm(6)=   0.000000

     crystal axes: (cart. coord. in units of alat)
               a(1) = (  -0.500000   0.000000   0.500000 )  
               a(2) = (   0.000000   0.500000   0.500000 )  
               a(3) = (  -0.500000   0.500000   0.000000 )  

     reciprocal axes: (cart. coord. in units 2 pi/alat)
               b(1) = ( -1.000000 -1.000000  1.000000 )  
               b(2) = (  1.000000  1.000000  1.000000 )  
               b(3) = ( -1.000000  1.000000 -1.000000 )  


     PseudoPot. # 1 for Li read from file:
     ~/Documents/TA/PWDFT.jl/pseudopotentials/scan_upf/Li.SCAN.UPF2
     MD5 check sum: Not computed, couldn't open file
     Pseudo is Norm-conserving, Zval =  1.0
     Generated by new atomic code, or converted to UPF format
     Using radial grid of 1321 points,  1 beta functions with: 
                l(1) =   0

     PseudoPot. # 2 for Cl read from file:
     ~/Documents/TA/PWDFT.jl/pseudopotentials/scan_upf/Cl.SCAN.UPF2
     MD5 check sum: Not computed, couldn't open file
     Pseudo is Norm-conserving, Zval =  7.0
     Generated by new atomic code, or converted to UPF format
     Using radial grid of 1493 points,  2 beta functions with: 
                l(1) =   0
                l(2) =   1

     atomic species   valence    mass     pseudopotential
        Li             1.00     6.94100     Li( 1.00)
        Cl             7.00    35.45300     Cl( 1.00)

     48 Sym. Ops., with inversion, found



   Cartesian axes

     site n.     atom                  positions (alat units)
         1           Li  tau(   1) = (   0.0000000   0.0000000   0.0000000  )
         2           Cl  tau(   2) = (   0.5000000   0.5000000   0.5000000  )

     number of k points=    47
                       cart. coord. in units 2pi/alat
        k(    1) = (   0.0000000   0.0000000   0.0000000), wk =   0.0020000
        k(    2) = (  -0.1000000   0.1000000  -0.1000000), wk =   0.0160000
        k(    3) = (  -0.2000000   0.2000000  -0.2000000), wk =   0.0160000
        k(    4) = (  -0.3000000   0.3000000  -0.3000000), wk =   0.0160000
        k(    5) = (  -0.4000000   0.4000000  -0.4000000), wk =   0.0160000
        k(    6) = (   0.5000000  -0.5000000   0.5000000), wk =   0.0080000
        k(    7) = (   0.0000000   0.2000000   0.0000000), wk =   0.0120000
        k(    8) = (  -0.1000000   0.3000000  -0.1000000), wk =   0.0480000
        k(    9) = (  -0.2000000   0.4000000  -0.2000000), wk =   0.0480000
        k(   10) = (  -0.3000000   0.5000000  -0.3000000), wk =   0.0480000
        k(   11) = (   0.6000000  -0.4000000   0.6000000), wk =   0.0480000
        k(   12) = (   0.5000000  -0.3000000   0.5000000), wk =   0.0480000
        k(   13) = (   0.4000000  -0.2000000   0.4000000), wk =   0.0480000
        k(   14) = (   0.3000000  -0.1000000   0.3000000), wk =   0.0480000
        k(   15) = (   0.2000000   0.0000000   0.2000000), wk =   0.0240000
        k(   16) = (   0.0000000   0.4000000   0.0000000), wk =   0.0120000
        k(   17) = (  -0.1000000   0.5000000  -0.1000000), wk =   0.0480000
        k(   18) = (  -0.2000000   0.6000000  -0.2000000), wk =   0.0480000
        k(   19) = (   0.7000000  -0.3000000   0.7000000), wk =   0.0480000
        k(   20) = (   0.6000000  -0.2000000   0.6000000), wk =   0.0480000
        k(   21) = (   0.5000000  -0.1000000   0.5000000), wk =   0.0480000
        k(   22) = (   0.4000000   0.0000000   0.4000000), wk =   0.0240000
        k(   23) = (   0.0000000   0.6000000   0.0000000), wk =   0.0120000
        k(   24) = (  -0.1000000   0.7000000  -0.1000000), wk =   0.0480000
        k(   25) = (   0.8000000  -0.2000000   0.8000000), wk =   0.0480000
        k(   26) = (   0.7000000  -0.1000000   0.7000000), wk =   0.0480000
        k(   27) = (   0.6000000  -0.0000000   0.6000000), wk =   0.0240000
        k(   28) = (   0.0000000   0.8000000   0.0000000), wk =   0.0120000
        k(   29) = (   0.9000000  -0.1000000   0.9000000), wk =   0.0480000
        k(   30) = (   0.8000000   0.0000000   0.8000000), wk =   0.0240000
        k(   31) = (   0.0000000  -1.0000000   0.0000000), wk =   0.0060000
        k(   32) = (  -0.2000000   0.4000000   0.0000000), wk =   0.0480000
        k(   33) = (  -0.3000000   0.5000000  -0.1000000), wk =   0.0960000
        k(   34) = (   0.6000000  -0.4000000   0.8000000), wk =   0.0960000
        k(   35) = (   0.5000000  -0.3000000   0.7000000), wk =   0.0480000
        k(   36) = (  -0.2000000   0.6000000   0.0000000), wk =   0.0480000
        k(   37) = (   0.7000000  -0.3000000   0.9000000), wk =   0.0960000
        k(   38) = (   0.6000000  -0.2000000   0.8000000), wk =   0.0960000
        k(   39) = (   0.5000000  -0.1000000   0.7000000), wk =   0.0960000
        k(   40) = (   0.4000000   0.0000000   0.6000000), wk =   0.0480000
        k(   41) = (   0.8000000  -0.2000000   1.0000000), wk =   0.0480000
        k(   42) = (   0.7000000  -0.1000000   0.9000000), wk =   0.0960000
        k(   43) = (   0.6000000   0.0000000   0.8000000), wk =   0.0480000
        k(   44) = (  -0.2000000  -1.0000000   0.0000000), wk =   0.0240000
        k(   45) = (   0.6000000  -0.2000000   1.0000000), wk =   0.0480000
        k(   46) = (   0.5000000  -0.1000000   0.9000000), wk =   0.0480000
        k(   47) = (  -0.4000000  -1.0000000   0.0000000), wk =   0.0240000

     Dense  grid:    16889 G-vectors     FFT dimensions: (  36,  36,  36)

     Estimated max dynamical RAM per process >      31.57 MB

     WARNING: libxc functional with ID  263 depends
      on external parameters: check the user_guide of
      QE if you need to modify them or to check their
      default values.

     Initial potential from superposition of free atoms

     starting charge       7.9953, renormalised to       8.0000
     Starting wfcs are   13 randomized atomic wfcs

     total cpu time spent up to now is        6.5 secs

     Self-consistent Calculation

     iteration #  1     ecut=    50.00 Ry     beta= 0.01
     Davidson diagonalization with overlap
     ethr =  1.00E-02,  avg # of iterations =  1.0

     total cpu time spent up to now is       11.2 secs

     total energy              =     -30.63191991 Ry
     estimated scf accuracy    <       0.37077434 Ry

     iteration #  2     ecut=    50.00 Ry     beta= 0.01
     Davidson diagonalization with overlap
     ethr =  4.63E-03,  avg # of iterations =  1.0

     total cpu time spent up to now is       16.0 secs

     total energy              =     -30.67043679 Ry
     estimated scf accuracy    <       0.35309705 Ry

     iteration #  3     ecut=    50.00 Ry     beta= 0.01
     Davidson diagonalization with overlap
     ethr =  4.41E-03,  avg # of iterations =  1.0

     total cpu time spent up to now is       20.9 secs

     total energy              =     -30.71285404 Ry
     estimated scf accuracy    <       0.25664126 Ry

     iteration #  4     ecut=    50.00 Ry     beta= 0.01
     Davidson diagonalization with overlap
     ethr =  3.21E-03,  avg # of iterations =  1.0

     total cpu time spent up to now is       26.0 secs

     total energy              =     -30.71498249 Ry
     estimated scf accuracy    <       0.00872103 Ry

     iteration #  5     ecut=    50.00 Ry     beta= 0.01
     Davidson diagonalization with overlap
     ethr =  1.09E-04,  avg # of iterations =  1.0

     total cpu time spent up to now is       30.7 secs

     total energy              =     -30.71316762 Ry
     estimated scf accuracy    <       0.00800962 Ry

     iteration #  6     ecut=    50.00 Ry     beta= 0.01
     Davidson diagonalization with overlap
     ethr =  1.00E-04,  avg # of iterations =  1.0

     total cpu time spent up to now is       35.6 secs

     total energy              =     -30.71236241 Ry
     estimated scf accuracy    <       0.00516848 Ry

     iteration #  7     ecut=    50.00 Ry     beta= 0.01
     Davidson diagonalization with overlap
     ethr =  6.46E-05,  avg # of iterations =  2.0

     total cpu time spent up to now is       40.3 secs

     total energy              =     -30.71466469 Ry
     estimated scf accuracy    <       0.00307525 Ry

     iteration #  8     ecut=    50.00 Ry     beta= 0.01
     Davidson diagonalization with overlap
     ethr =  3.84E-05,  avg # of iterations =  1.0

     total cpu time spent up to now is       42.8 secs

     total energy              =     -30.71432568 Ry
     estimated scf accuracy    <       0.00334845 Ry

     iteration #  9     ecut=    50.00 Ry     beta= 0.01
     Davidson diagonalization with overlap
     ethr =  3.84E-05,  avg # of iterations =  1.0

     total cpu time spent up to now is       45.3 secs

     total energy              =     -30.71372305 Ry
     estimated scf accuracy    <       0.00235286 Ry

     iteration # 10     ecut=    50.00 Ry     beta= 0.01
     Davidson diagonalization with overlap
     ethr =  2.94E-05,  avg # of iterations =  1.9

     total cpu time spent up to now is       48.2 secs

     total energy              =     -30.71404348 Ry
     estimated scf accuracy    <       0.00004433 Ry

     iteration # 11     ecut=    50.00 Ry     beta= 0.01
     Davidson diagonalization with overlap
     ethr =  5.54E-07,  avg # of iterations =  2.0

     total cpu time spent up to now is       51.6 secs

     total energy              =     -30.71411154 Ry
     estimated scf accuracy    <       0.00008121 Ry

     iteration # 12     ecut=    50.00 Ry     beta= 0.01
     Davidson diagonalization with overlap
     ethr =  5.54E-07,  avg # of iterations =  2.0

     total cpu time spent up to now is       54.9 secs

     total energy              =     -30.71404443 Ry
     estimated scf accuracy    <       0.00020507 Ry

     iteration # 13     ecut=    50.00 Ry     beta= 0.01
     Davidson diagonalization with overlap
     ethr =  5.54E-07,  avg # of iterations =  2.0

     total cpu time spent up to now is       57.6 secs

     total energy              =     -30.71405570 Ry
     estimated scf accuracy    <       0.00001520 Ry

     iteration # 14     ecut=    50.00 Ry     beta= 0.01
     Davidson diagonalization with overlap
     ethr =  1.90E-07,  avg # of iterations =  2.0

     total cpu time spent up to now is       59.2 secs

     End of self-consistent calculation

          k = 0.0000 0.0000 0.0000 (  2109 PWs)   bands (ev):

   -14.5548  -1.8025  -1.8025  -1.8025

          k =-0.1000 0.1000-0.1000 (  2106 PWs)   bands (ev):

   -14.5373  -1.9775  -1.8149  -1.8149

          k =-0.2000 0.2000-0.2000 (  2121 PWs)   bands (ev):

   -14.4912  -2.3838  -1.8466  -1.8466

          k =-0.3000 0.3000-0.3000 (  2121 PWs)   bands (ev):

   -14.4327  -2.8162  -1.8846  -1.8846

          k =-0.4000 0.4000-0.4000 (  2117 PWs)   bands (ev):

   -14.3842  -3.1282  -1.9144  -1.9144

          k = 0.5000-0.5000 0.5000 (  2120 PWs)   bands (ev):

   -14.3654  -3.2406  -1.9256  -1.9256

          k = 0.0000 0.2000 0.0000 (  2121 PWs)   bands (ev):

   -14.5316  -1.9675  -1.8543  -1.8543

          k =-0.1000 0.3000-0.1000 (  2122 PWs)   bands (ev):

   -14.4948  -2.2747  -1.9075  -1.8774

          k =-0.2000 0.4000-0.2000 (  2124 PWs)   bands (ev):

   -14.4402  -2.6837  -1.9536  -1.9201

          k =-0.3000 0.5000-0.3000 (  2121 PWs)   bands (ev):

   -14.3880  -3.0204  -1.9819  -1.9755

          k = 0.6000-0.4000 0.6000 (  2116 PWs)   bands (ev):

   -14.3590  -3.1898  -2.0383  -1.9657

          k = 0.5000-0.3000 0.5000 (  2125 PWs)   bands (ev):

   -14.3654  -3.1519  -2.0670  -1.9280

          k = 0.4000-0.2000 0.4000 (  2119 PWs)   bands (ev):

   -14.4042  -2.9174  -2.0554  -1.8761

          k = 0.3000-0.1000 0.3000 (  2120 PWs)   bands (ev):

   -14.4598  -2.5505  -2.0020  -1.8290

          k = 0.2000 0.0000 0.2000 (  2115 PWs)   bands (ev):

   -14.5103  -2.1812  -1.9110  -1.8052

          k = 0.0000 0.4000 0.0000 (  2117 PWs)   bands (ev):

   -14.4693  -2.3529  -1.9866  -1.9866

          k =-0.1000 0.5000-0.1000 (  2119 PWs)   bands (ev):

   -14.4239  -2.6356  -2.0577  -2.0533

          k =-0.2000 0.6000-0.2000 (  2112 PWs)   bands (ev):

   -14.3752  -2.9130  -2.1624  -2.0836

          k = 0.7000-0.3000 0.7000 (  2123 PWs)   bands (ev):

   -14.3423  -3.0716  -2.2848  -2.0672

          k = 0.6000-0.2000 0.6000 (  2127 PWs)   bands (ev):

   -14.3385  -3.0718  -2.3711  -2.0100

          k = 0.5000-0.1000 0.5000 (  2121 PWs)   bands (ev):

   -14.3653  -2.9337  -2.3670  -1.9319

          k = 0.4000 0.0000 0.4000 (  2121 PWs)   bands (ev):

   -14.4119  -2.7367  -2.2297  -1.8622

          k = 0.0000 0.6000 0.0000 (  2105 PWs)   bands (ev):

   -14.3897  -2.7700  -2.1443  -2.1443

          k =-0.1000 0.7000-0.1000 (  2119 PWs)   bands (ev):

   -14.3506  -2.9484  -2.2504  -2.1942

          k = 0.8000-0.2000 0.8000 (  2130 PWs)   bands (ev):

   -14.3214  -3.0250  -2.4325  -2.1867

          k = 0.7000-0.1000 0.7000 (  2139 PWs)   bands (ev):

   -14.3137  -2.9527  -2.6387  -2.1242

          k = 0.6000-0.0000 0.6000 (  2135 PWs)   bands (ev):

   -14.3307  -2.8661  -2.6705  -2.0275

          k = 0.0000 0.8000 0.0000 (  2112 PWs)   bands (ev):

   -14.3232  -3.0780  -2.2673  -2.2673

          k = 0.9000-0.1000 0.9000 (  2125 PWs)   bands (ev):

   -14.3041  -3.1296  -2.3684  -2.2790

          k = 0.8000 0.0000 0.8000 (  2139 PWs)   bands (ev):

   -14.3005  -3.0458  -2.5570  -2.2257

          k = 0.0000-1.0000 0.0000 (  2100 PWs)   bands (ev):

   -14.2971  -3.1908  -2.3133  -2.3133

          k =-0.2000 0.4000 0.0000 (  2108 PWs)   bands (ev):

   -14.4535  -2.5111  -2.0556  -1.8934

          k =-0.3000 0.5000-0.1000 (  2121 PWs)   bands (ev):

   -14.4018  -2.8058  -2.1767  -1.9363

          k = 0.6000-0.4000 0.8000 (  2119 PWs)   bands (ev):

   -14.3589  -3.0382  -2.2382  -1.9920

          k = 0.5000-0.3000 0.7000 (  2124 PWs)   bands (ev):

   -14.3424  -3.1247  -2.2549  -2.0180

          k =-0.2000 0.6000 0.0000 (  2114 PWs)   bands (ev):

   -14.3813  -2.8205  -2.2270  -2.0792

          k = 0.7000-0.3000 0.9000 (  2128 PWs)   bands (ev):

   -14.3422  -2.9611  -2.3769  -2.1273

          k = 0.6000-0.2000 0.8000 (  2137 PWs)   bands (ev):

   -14.3217  -3.0011  -2.5067  -2.1330

          k = 0.5000-0.1000 0.7000 (  2128 PWs)   bands (ev):

   -14.3281  -2.9490  -2.5583  -2.0782

          k = 0.4000 0.0000 0.6000 (  2121 PWs)   bands (ev):

   -14.3589  -2.8831  -2.4333  -1.9965

          k = 0.8000-0.2000 1.0000 (  2129 PWs)   bands (ev):

   -14.3212  -3.0385  -2.3601  -2.2481

          k = 0.7000-0.1000 0.9000 (  2133 PWs)   bands (ev):

   -14.3045  -3.0099  -2.5402  -2.2538

          k = 0.6000 0.0000 0.8000 (  2132 PWs)   bands (ev):

   -14.3072  -2.8502  -2.7545  -2.1838

          k =-0.2000-1.0000 0.0000 (  2134 PWs)   bands (ev):

   -14.2977  -3.1173  -2.4097  -2.3143

          k = 0.6000-0.2000 1.0000 (  2148 PWs)   bands (ev):

   -14.3153  -2.9251  -2.5895  -2.2064

          k = 0.5000-0.1000 0.9000 (  2142 PWs)   bands (ev):

   -14.3048  -2.8578  -2.7135  -2.2491

          k =-0.4000-1.0000 0.0000 (  2154 PWs)   bands (ev):

   -14.2984  -2.9163  -2.6474  -2.3159

     highest occupied level (ev):    -1.8025

!    total energy              =     -30.71405858 Ry
     estimated scf accuracy    <       0.00000012 Ry

     The total energy is the sum of the following terms:
     one-electron contribution =     -10.72718851 Ry
     hartree contribution      =       7.99221027 Ry
     xc contribution           =      -6.24657618 Ry
     ewald contribution        =     -21.73250415 Ry

     convergence has been achieved in  14 iterations
     Writing meta-gga kinetic term

     Writing all to output data dir ./input_pw/LiCl/12/pwscf.save/
     Writing meta-gga kinetic term
 
     init_run     :      3.10s CPU      6.43s WALL (       1 calls)
     electrons    :     36.42s CPU     52.69s WALL (       1 calls)

     Called by init_run:
     wfcinit      :      2.95s CPU      6.13s WALL (       1 calls)
     potinit      :      0.04s CPU      0.15s WALL (       1 calls)
     hinit0       :      0.09s CPU      0.12s WALL (       1 calls)

     Called by electrons:
     c_bands      :     28.85s CPU     41.37s WALL (      14 calls)
     sum_band     :      6.67s CPU     10.01s WALL (      14 calls)
     v_of_rho     :      0.44s CPU      0.75s WALL (      15 calls)
     mix_rho      :      0.48s CPU      0.68s WALL (      14 calls)

     Called by c_bands:
     init_us_2    :      0.35s CPU      0.50s WALL (    1363 calls)
     init_us_2:cp :      0.34s CPU      0.48s WALL (    1363 calls)
     cegterg      :     28.53s CPU     40.87s WALL (     658 calls)

     Called by *egterg:
     cdiaghg      :      0.10s CPU      0.16s WALL (    1595 calls)
     h_psi        :     30.88s CPU     46.05s WALL (    1642 calls)
     g_psi        :      0.02s CPU      0.04s WALL (     937 calls)

     Called by h_psi:
     h_psi:calbec :      0.10s CPU      0.16s WALL (    1642 calls)
     vloc_psi     :      7.63s CPU     11.20s WALL (    1642 calls)
     add_vuspsi   :      0.09s CPU      0.13s WALL (    1642 calls)
     h_psi_meta   :     23.01s CPU     34.49s WALL (    1642 calls)

     General routines
     calbec       :      0.10s CPU      0.15s WALL (    1642 calls)
     fft          :      0.09s CPU      0.18s WALL (     177 calls)
     ffts         :      0.18s CPU      0.33s WALL (     355 calls)
     fftw         :     32.10s CPU     47.95s WALL (   64976 calls)
     interpolate  :      0.00s CPU      0.00s WALL (      15 calls)
 
     Parallel routines
 
     PWSCF        :     39.58s CPU     59.19s WALL

 
   This run was terminated on:  10:22:33  29Mar2023            

=------------------------------------------------------------------------------=
   JOB DONE.
=------------------------------------------------------------------------------=
