
     Program PWSCF v.7.0 starts on  7Jul2023 at 14:24:18 

     This program is part of the open-source Quantum ESPRESSO suite
     for quantum simulation of materials; please cite
         "P. Giannozzi et al., J. Phys.:Condens. Matter 21 395502 (2009);
         "P. Giannozzi et al., J. Phys.:Condens. Matter 29 465901 (2017);
         "P. Giannozzi et al., J. Chem. Phys. 152 154105 (2020);
          URL http://www.quantum-espresso.org", 
     in publications or presentations arising from this work. More details at
     http://www.quantum-espresso.org/quote

     Parallel version (MPI), running on     1 processors

     MPI processes distributed on     1 nodes
     26740 MiB available memory on the printing compute node when the environment starts
 
     Waiting for input...
     Reading input from standard input
Warning: card &CELL ignored
Warning: card / ignored

     Current dimensions of program PWSCF are:
     Max number of different atomic species (ntypx) = 10
     Max number of k-points (npk) =  40000
     Max angular momentum in pseudopotentials (lmaxx) =  4
     file Cl.SCAN.UPF2: wavefunction(s)  0D renormalized

     WARNING: the MGGA functional with ID    5 has been 
     read together with other dft terms, but it should 
     stand alone in order to work properly. The other 
     terms will be ignored.

     WARNING: the MGGA functional with ID    5 has been 
     read together with other dft terms, but it should 
     stand alone in order to work properly. The other 
     terms will be ignored.

     Subspace diagonalization in iterative solution of the eigenvalue problem:
     a serial algorithm will be used

 
     G-vector sticks info
     --------------------
     sticks:   dense  smooth     PW     G-vecs:    dense   smooth      PW
     Sum         859     859    253                16889    16889    2741
 
     Using Slab Decomposition
 


     bravais-lattice index     =            2
     lattice parameter (alat)  =      11.2504  a.u.
     unit-cell volume          =     355.9928 (a.u.)^3
     number of atoms/cell      =            2
     number of atomic types    =            2
     number of electrons       =         8.00
     number of Kohn-Sham states=            4
     kinetic-energy cutoff     =      50.0000  Ry
     charge density cutoff     =     200.0000  Ry
     scf convergence threshold =      2.0E-05
     mixing beta               =       0.2000
     number of iterations used =            8  local-TF  mixing
     Exchange-correlation= SLA  PW   SCAN SCAN
                           (   0   0   0   0   0 263 267)

     celldm(1)=  11.250377  celldm(2)=   0.000000  celldm(3)=   0.000000
     celldm(4)=   0.000000  celldm(5)=   0.000000  celldm(6)=   0.000000

     crystal axes: (cart. coord. in units of alat)
               a(1) = (  -0.500000   0.000000   0.500000 )  
               a(2) = (   0.000000   0.500000   0.500000 )  
               a(3) = (  -0.500000   0.500000   0.000000 )  

     reciprocal axes: (cart. coord. in units 2 pi/alat)
               b(1) = ( -1.000000 -1.000000  1.000000 )  
               b(2) = (  1.000000  1.000000  1.000000 )  
               b(3) = ( -1.000000  1.000000 -1.000000 )  


     PseudoPot. # 1 for Li read from file:
     ~/Documents/TA/PWDFT.jl/pseudopotentials/scan_upf/Li.SCAN.UPF2
     MD5 check sum: Not computed, couldn't open file
     Pseudo is Norm-conserving, Zval =  1.0
     Generated by new atomic code, or converted to UPF format
     Using radial grid of 1321 points,  1 beta functions with: 
                l(1) =   0

     PseudoPot. # 2 for Cl read from file:
     ~/Documents/TA/PWDFT.jl/pseudopotentials/scan_upf/Cl.SCAN.UPF2
     MD5 check sum: Not computed, couldn't open file
     Pseudo is Norm-conserving, Zval =  7.0
     Generated by new atomic code, or converted to UPF format
     Using radial grid of 1493 points,  2 beta functions with: 
                l(1) =   0
                l(2) =   1

     atomic species   valence    mass     pseudopotential
        Li             1.00     6.94100     Li( 1.00)
        Cl             7.00    35.45300     Cl( 1.00)

     48 Sym. Ops., with inversion, found



   Cartesian axes

     site n.     atom                  positions (alat units)
         1           Li  tau(   1) = (   0.0000000   0.0000000   0.0000000  )
         2           Cl  tau(   2) = (   0.5000000   0.5000000   0.5000000  )

     number of k points=    47
                       cart. coord. in units 2pi/alat
        k(    1) = (   0.0000000   0.0000000   0.0000000), wk =   0.0020000
        k(    2) = (  -0.1000000   0.1000000  -0.1000000), wk =   0.0160000
        k(    3) = (  -0.2000000   0.2000000  -0.2000000), wk =   0.0160000
        k(    4) = (  -0.3000000   0.3000000  -0.3000000), wk =   0.0160000
        k(    5) = (  -0.4000000   0.4000000  -0.4000000), wk =   0.0160000
        k(    6) = (   0.5000000  -0.5000000   0.5000000), wk =   0.0080000
        k(    7) = (   0.0000000   0.2000000   0.0000000), wk =   0.0120000
        k(    8) = (  -0.1000000   0.3000000  -0.1000000), wk =   0.0480000
        k(    9) = (  -0.2000000   0.4000000  -0.2000000), wk =   0.0480000
        k(   10) = (  -0.3000000   0.5000000  -0.3000000), wk =   0.0480000
        k(   11) = (   0.6000000  -0.4000000   0.6000000), wk =   0.0480000
        k(   12) = (   0.5000000  -0.3000000   0.5000000), wk =   0.0480000
        k(   13) = (   0.4000000  -0.2000000   0.4000000), wk =   0.0480000
        k(   14) = (   0.3000000  -0.1000000   0.3000000), wk =   0.0480000
        k(   15) = (   0.2000000   0.0000000   0.2000000), wk =   0.0240000
        k(   16) = (   0.0000000   0.4000000   0.0000000), wk =   0.0120000
        k(   17) = (  -0.1000000   0.5000000  -0.1000000), wk =   0.0480000
        k(   18) = (  -0.2000000   0.6000000  -0.2000000), wk =   0.0480000
        k(   19) = (   0.7000000  -0.3000000   0.7000000), wk =   0.0480000
        k(   20) = (   0.6000000  -0.2000000   0.6000000), wk =   0.0480000
        k(   21) = (   0.5000000  -0.1000000   0.5000000), wk =   0.0480000
        k(   22) = (   0.4000000   0.0000000   0.4000000), wk =   0.0240000
        k(   23) = (   0.0000000   0.6000000   0.0000000), wk =   0.0120000
        k(   24) = (  -0.1000000   0.7000000  -0.1000000), wk =   0.0480000
        k(   25) = (   0.8000000  -0.2000000   0.8000000), wk =   0.0480000
        k(   26) = (   0.7000000  -0.1000000   0.7000000), wk =   0.0480000
        k(   27) = (   0.6000000  -0.0000000   0.6000000), wk =   0.0240000
        k(   28) = (   0.0000000   0.8000000   0.0000000), wk =   0.0120000
        k(   29) = (   0.9000000  -0.1000000   0.9000000), wk =   0.0480000
        k(   30) = (   0.8000000   0.0000000   0.8000000), wk =   0.0240000
        k(   31) = (   0.0000000  -1.0000000   0.0000000), wk =   0.0060000
        k(   32) = (  -0.2000000   0.4000000   0.0000000), wk =   0.0480000
        k(   33) = (  -0.3000000   0.5000000  -0.1000000), wk =   0.0960000
        k(   34) = (   0.6000000  -0.4000000   0.8000000), wk =   0.0960000
        k(   35) = (   0.5000000  -0.3000000   0.7000000), wk =   0.0480000
        k(   36) = (  -0.2000000   0.6000000   0.0000000), wk =   0.0480000
        k(   37) = (   0.7000000  -0.3000000   0.9000000), wk =   0.0960000
        k(   38) = (   0.6000000  -0.2000000   0.8000000), wk =   0.0960000
        k(   39) = (   0.5000000  -0.1000000   0.7000000), wk =   0.0960000
        k(   40) = (   0.4000000   0.0000000   0.6000000), wk =   0.0480000
        k(   41) = (   0.8000000  -0.2000000   1.0000000), wk =   0.0480000
        k(   42) = (   0.7000000  -0.1000000   0.9000000), wk =   0.0960000
        k(   43) = (   0.6000000   0.0000000   0.8000000), wk =   0.0480000
        k(   44) = (  -0.2000000  -1.0000000   0.0000000), wk =   0.0240000
        k(   45) = (   0.6000000  -0.2000000   1.0000000), wk =   0.0480000
        k(   46) = (   0.5000000  -0.1000000   0.9000000), wk =   0.0480000
        k(   47) = (  -0.4000000  -1.0000000   0.0000000), wk =   0.0240000

     Dense  grid:    16889 G-vectors     FFT dimensions: (  36,  36,  36)

     Estimated max dynamical RAM per process >      31.57 MB

     WARNING: libxc functional with ID  263 depends
      on external parameters: check the user_guide of
      QE if you need to modify them or to check their
      default values.

     Initial potential from superposition of free atoms

     starting charge       7.9953, renormalised to       8.0000
     Starting wfcs are   13 randomized atomic wfcs

     total cpu time spent up to now is        6.2 secs

     Self-consistent Calculation

     iteration #  1     ecut=    50.00 Ry     beta= 0.20
     Davidson diagonalization with overlap
     ethr =  1.00E-02,  avg # of iterations =  1.0

     total cpu time spent up to now is       11.1 secs

     total energy              =     -30.67864454 Ry
     estimated scf accuracy    <       0.37077383 Ry

     iteration #  2     ecut=    50.00 Ry     beta= 0.20
     Davidson diagonalization with overlap
     ethr =  4.63E-03,  avg # of iterations =  1.0

     total cpu time spent up to now is       15.9 secs

     total energy              =     -30.70975408 Ry
     estimated scf accuracy    <       0.24482086 Ry

     iteration #  3     ecut=    50.00 Ry     beta= 0.20
     Davidson diagonalization with overlap
     ethr =  3.06E-03,  avg # of iterations =  1.0

     total cpu time spent up to now is       19.5 secs

     total energy              =     -30.71297100 Ry
     estimated scf accuracy    <       0.00517441 Ry

     iteration #  4     ecut=    50.00 Ry     beta= 0.20
     Davidson diagonalization with overlap
     ethr =  6.47E-05,  avg # of iterations =  1.8

     total cpu time spent up to now is       22.7 secs

     total energy              =     -30.71338429 Ry
     estimated scf accuracy    <       0.00233330 Ry

     iteration #  5     ecut=    50.00 Ry     beta= 0.20
     Davidson diagonalization with overlap
     ethr =  2.92E-05,  avg # of iterations =  2.0

     total cpu time spent up to now is       25.9 secs

     total energy              =     -30.71402010 Ry
     estimated scf accuracy    <       0.00038881 Ry

     iteration #  6     ecut=    50.00 Ry     beta= 0.20
     Davidson diagonalization with overlap
     ethr =  4.86E-06,  avg # of iterations =  2.0

     total cpu time spent up to now is       29.2 secs

     total energy              =     -30.71406895 Ry
     estimated scf accuracy    <       0.00016256 Ry

     iteration #  7     ecut=    50.00 Ry     beta= 0.20
     Davidson diagonalization with overlap
     ethr =  2.03E-06,  avg # of iterations =  1.0

     total cpu time spent up to now is       31.5 secs

     total energy              =     -30.71401808 Ry
     estimated scf accuracy    <       0.00010936 Ry

     iteration #  8     ecut=    50.00 Ry     beta= 0.20
     Davidson diagonalization with overlap
     ethr =  1.37E-06,  avg # of iterations =  2.0

     total cpu time spent up to now is       33.6 secs

     total energy              =     -30.71406071 Ry
     estimated scf accuracy    <       0.00008192 Ry

     iteration #  9     ecut=    50.00 Ry     beta= 0.20
     Davidson diagonalization with overlap
     ethr =  1.02E-06,  avg # of iterations =  1.0

     total cpu time spent up to now is       34.9 secs

     total energy              =     -30.71406056 Ry
     estimated scf accuracy    <       0.00002375 Ry

     iteration # 10     ecut=    50.00 Ry     beta= 0.20
     Davidson diagonalization with overlap
     ethr =  2.97E-07,  avg # of iterations =  1.0

     total cpu time spent up to now is       36.0 secs

     End of self-consistent calculation

          k = 0.0000 0.0000 0.0000 (  2109 PWs)   bands (ev):

   -14.5654  -1.8116  -1.8116  -1.8116

          k =-0.1000 0.1000-0.1000 (  2106 PWs)   bands (ev):

   -14.5479  -1.9863  -1.8240  -1.8240

          k =-0.2000 0.2000-0.2000 (  2121 PWs)   bands (ev):

   -14.5018  -2.3920  -1.8557  -1.8557

          k =-0.3000 0.3000-0.3000 (  2121 PWs)   bands (ev):

   -14.4433  -2.8239  -1.8936  -1.8936

          k =-0.4000 0.4000-0.4000 (  2117 PWs)   bands (ev):

   -14.3949  -3.1356  -1.9234  -1.9234

          k = 0.5000-0.5000 0.5000 (  2120 PWs)   bands (ev):

   -14.3762  -3.2479  -1.9346  -1.9346

          k = 0.0000 0.2000 0.0000 (  2121 PWs)   bands (ev):

   -14.5422  -1.9764  -1.8633  -1.8633

          k =-0.1000 0.3000-0.1000 (  2122 PWs)   bands (ev):

   -14.5054  -2.2831  -1.9165  -1.8864

          k =-0.2000 0.4000-0.2000 (  2124 PWs)   bands (ev):

   -14.4508  -2.6915  -1.9626  -1.9291

          k =-0.3000 0.5000-0.3000 (  2121 PWs)   bands (ev):

   -14.3987  -3.0279  -1.9908  -1.9844

          k = 0.6000-0.4000 0.6000 (  2116 PWs)   bands (ev):

   -14.3698  -3.1971  -2.0471  -1.9746

          k = 0.5000-0.3000 0.5000 (  2125 PWs)   bands (ev):

   -14.3762  -3.1593  -2.0758  -1.9370

          k = 0.4000-0.2000 0.4000 (  2119 PWs)   bands (ev):

   -14.4149  -2.9250  -2.0642  -1.8851

          k = 0.3000-0.1000 0.3000 (  2120 PWs)   bands (ev):

   -14.4704  -2.5585  -2.0109  -1.8381

          k = 0.2000 0.0000 0.2000 (  2115 PWs)   bands (ev):

   -14.5209  -2.1897  -1.9200  -1.8144

          k = 0.0000 0.4000 0.0000 (  2117 PWs)   bands (ev):

   -14.4800  -2.3611  -1.9955  -1.9955

          k =-0.1000 0.5000-0.1000 (  2119 PWs)   bands (ev):

   -14.4346  -2.6435  -2.0665  -2.0621

          k =-0.2000 0.6000-0.2000 (  2112 PWs)   bands (ev):

   -14.3859  -2.9206  -2.1710  -2.0923

          k = 0.7000-0.3000 0.7000 (  2123 PWs)   bands (ev):

   -14.3531  -3.0791  -2.2932  -2.0760

          k = 0.6000-0.2000 0.6000 (  2127 PWs)   bands (ev):

   -14.3493  -3.0793  -2.3794  -2.0189

          k = 0.5000-0.1000 0.5000 (  2121 PWs)   bands (ev):

   -14.3760  -2.9413  -2.3753  -1.9409

          k = 0.4000 0.0000 0.4000 (  2121 PWs)   bands (ev):

   -14.4225  -2.7445  -2.2383  -1.8713

          k = 0.0000 0.6000 0.0000 (  2105 PWs)   bands (ev):

   -14.4004  -2.7777  -2.1530  -2.1530

          k =-0.1000 0.7000-0.1000 (  2119 PWs)   bands (ev):

   -14.3613  -2.9559  -2.2589  -2.2029

          k = 0.8000-0.2000 0.8000 (  2130 PWs)   bands (ev):

   -14.3321  -3.0325  -2.4408  -2.1954

          k = 0.7000-0.1000 0.7000 (  2139 PWs)   bands (ev):

   -14.3245  -2.9603  -2.6466  -2.1329

          k = 0.6000-0.0000 0.6000 (  2135 PWs)   bands (ev):

   -14.3414  -2.8738  -2.6784  -2.0364

          k = 0.0000 0.8000 0.0000 (  2112 PWs)   bands (ev):

   -14.3340  -3.0854  -2.2759  -2.2759

          k = 0.9000-0.1000 0.9000 (  2125 PWs)   bands (ev):

   -14.3148  -3.1370  -2.3768  -2.2875

          k = 0.8000 0.0000 0.8000 (  2139 PWs)   bands (ev):

   -14.3113  -3.0532  -2.5651  -2.2343

          k = 0.0000-1.0000 0.0000 (  2100 PWs)   bands (ev):

   -14.3079  -3.1980  -2.3218  -2.3218

          k =-0.2000 0.4000 0.0000 (  2108 PWs)   bands (ev):

   -14.4642  -2.5191  -2.0644  -1.9024

          k =-0.3000 0.5000-0.1000 (  2121 PWs)   bands (ev):

   -14.4125  -2.8135  -2.1853  -1.9453

          k = 0.6000-0.4000 0.8000 (  2119 PWs)   bands (ev):

   -14.3697  -3.0456  -2.2467  -2.0009

          k = 0.5000-0.3000 0.7000 (  2124 PWs)   bands (ev):

   -14.3532  -3.1321  -2.2634  -2.0269

          k =-0.2000 0.6000 0.0000 (  2114 PWs)   bands (ev):

   -14.3920  -2.8282  -2.2355  -2.0880

          k = 0.7000-0.3000 0.9000 (  2128 PWs)   bands (ev):

   -14.3529  -2.9686  -2.3852  -2.1360

          k = 0.6000-0.2000 0.8000 (  2137 PWs)   bands (ev):

   -14.3325  -3.0086  -2.5148  -2.1417

          k = 0.5000-0.1000 0.7000 (  2128 PWs)   bands (ev):

   -14.3389  -2.9566  -2.5663  -2.0870

          k = 0.4000 0.0000 0.6000 (  2121 PWs)   bands (ev):

   -14.3696  -2.8907  -2.4415  -2.0054

          k = 0.8000-0.2000 1.0000 (  2129 PWs)   bands (ev):

   -14.3320  -3.0459  -2.3685  -2.2567

          k = 0.7000-0.1000 0.9000 (  2133 PWs)   bands (ev):

   -14.3153  -3.0174  -2.5483  -2.2623

          k = 0.6000 0.0000 0.8000 (  2132 PWs)   bands (ev):

   -14.3180  -2.8579  -2.7623  -2.1924

          k =-0.2000-1.0000 0.0000 (  2134 PWs)   bands (ev):

   -14.3085  -3.1247  -2.4181  -2.3228

          k = 0.6000-0.2000 1.0000 (  2148 PWs)   bands (ev):

   -14.3261  -2.9327  -2.5975  -2.2150

          k = 0.5000-0.1000 0.9000 (  2142 PWs)   bands (ev):

   -14.3156  -2.8654  -2.7213  -2.2577

          k =-0.4000-1.0000 0.0000 (  2154 PWs)   bands (ev):

   -14.3092  -2.9239  -2.6553  -2.3243

     highest occupied level (ev):    -1.8116

!    total energy              =     -30.71405711 Ry
     estimated scf accuracy    <       0.00000800 Ry

     The total energy is the sum of the following terms:
     one-electron contribution =     -10.73228349 Ry
     hartree contribution      =       7.99908950 Ry
     xc contribution           =      -6.24831440 Ry
     ewald contribution        =     -21.73254872 Ry

     convergence has been achieved in  10 iterations
     Writing meta-gga kinetic term

     Writing all to output data dir ./input_pw/LiCl/12/pwscf.save/
     Writing meta-gga kinetic term
 
     init_run     :      3.08s CPU      6.15s WALL (       1 calls)
     electrons    :     22.85s CPU     29.86s WALL (       1 calls)

     Called by init_run:
     wfcinit      :      2.93s CPU      5.96s WALL (       1 calls)
     potinit      :      0.04s CPU      0.07s WALL (       1 calls)
     hinit0       :      0.09s CPU      0.11s WALL (       1 calls)

     Called by electrons:
     c_bands      :     18.15s CPU     23.67s WALL (      10 calls)
     sum_band     :      4.12s CPU      5.47s WALL (      10 calls)
     v_of_rho     :      0.31s CPU      0.40s WALL (      11 calls)
     mix_rho      :      0.29s CPU      0.37s WALL (      10 calls)

     Called by c_bands:
     init_us_2    :      0.23s CPU      0.35s WALL (     987 calls)
     init_us_2:cp :      0.23s CPU      0.34s WALL (     987 calls)
     cegterg      :     17.93s CPU     23.36s WALL (     470 calls)

     Called by *egterg:
     cdiaghg      :      0.06s CPU      0.09s WALL (    1119 calls)
     h_psi        :     20.44s CPU     28.68s WALL (    1166 calls)
     g_psi        :      0.01s CPU      0.01s WALL (     649 calls)

     Called by h_psi:
     h_psi:calbec :      0.07s CPU      0.11s WALL (    1166 calls)
     vloc_psi     :      5.05s CPU      7.08s WALL (    1166 calls)
     add_vuspsi   :      0.06s CPU      0.10s WALL (    1166 calls)
     h_psi_meta   :     15.23s CPU     21.35s WALL (    1166 calls)

     General routines
     calbec       :      0.06s CPU      0.11s WALL (    1166 calls)
     fft          :      0.06s CPU      0.07s WALL (     129 calls)
     ffts         :      0.11s CPU      0.15s WALL (     247 calls)
     fftw         :     21.24s CPU     29.74s WALL (   47072 calls)
     interpolate  :      0.00s CPU      0.00s WALL (      11 calls)
 
     Parallel routines
 
     PWSCF        :     25.98s CPU     36.07s WALL

 
   This run was terminated on:  14:24:54   7Jul2023            

=------------------------------------------------------------------------------=
   JOB DONE.
=------------------------------------------------------------------------------=
