
     Program PWSCF v.7.0 starts on 14Mar2023 at 14:28:42 

     This program is part of the open-source Quantum ESPRESSO suite
     for quantum simulation of materials; please cite
         "P. Giannozzi et al., J. Phys.:Condens. Matter 21 395502 (2009);
         "P. Giannozzi et al., J. Phys.:Condens. Matter 29 465901 (2017);
         "P. Giannozzi et al., J. Chem. Phys. 152 154105 (2020);
          URL http://www.quantum-espresso.org", 
     in publications or presentations arising from this work. More details at
     http://www.quantum-espresso.org/quote

     Parallel version (MPI), running on     1 processors

     MPI processes distributed on     1 nodes
     27053 MiB available memory on the printing compute node when the environment starts
 
     Waiting for input...
     Reading input from standard input
Warning: card &CELL ignored
Warning: card / ignored

     Current dimensions of program PWSCF are:
     Max number of different atomic species (ntypx) = 10
     Max number of k-points (npk) =  40000
     Max angular momentum in pseudopotentials (lmaxx) =  4
     file Cl.SCAN.UPF2: wavefunction(s)  0D renormalized

     WARNING: the MGGA functional with ID    5 has been 
     read together with other dft terms, but it should 
     stand alone in order to work properly. The other 
     terms will be ignored.

     WARNING: the MGGA functional with ID    5 has been 
     read together with other dft terms, but it should 
     stand alone in order to work properly. The other 
     terms will be ignored.

     Subspace diagonalization in iterative solution of the eigenvalue problem:
     a serial algorithm will be used

 
     G-vector sticks info
     --------------------
     sticks:   dense  smooth     PW     G-vecs:    dense   smooth      PW
     Sum         769     769    241                14331    14331    2445
 
     Using Slab Decomposition
 


     bravais-lattice index     =            2
     lattice parameter (alat)  =      10.6510  a.u.
     unit-cell volume          =     302.0725 (a.u.)^3
     number of atoms/cell      =            2
     number of atomic types    =            2
     number of electrons       =         8.00
     number of Kohn-Sham states=            4
     kinetic-energy cutoff     =      50.0000  Ry
     charge density cutoff     =     200.0000  Ry
     scf convergence threshold =      1.0E-06
     mixing beta               =       0.0100
     number of iterations used =            8  local-TF  mixing
     Exchange-correlation= SLA  PW   SCAN SCAN
                           (   0   0   0   0   0 263 267)

     celldm(1)=  10.651000  celldm(2)=   0.000000  celldm(3)=   0.000000
     celldm(4)=   0.000000  celldm(5)=   0.000000  celldm(6)=   0.000000

     crystal axes: (cart. coord. in units of alat)
               a(1) = (  -0.500000   0.000000   0.500000 )  
               a(2) = (   0.000000   0.500000   0.500000 )  
               a(3) = (  -0.500000   0.500000   0.000000 )  

     reciprocal axes: (cart. coord. in units 2 pi/alat)
               b(1) = ( -1.000000 -1.000000  1.000000 )  
               b(2) = (  1.000000  1.000000  1.000000 )  
               b(3) = ( -1.000000  1.000000 -1.000000 )  


     PseudoPot. # 1 for Li read from file:
     ~/Documents/TA/PWDFT.jl/pseudopotentials/scan_upf/Li.SCAN.UPF2
     MD5 check sum: Not computed, couldn't open file
     Pseudo is Norm-conserving, Zval =  1.0
     Generated by new atomic code, or converted to UPF format
     Using radial grid of 1321 points,  1 beta functions with: 
                l(1) =   0

     PseudoPot. # 2 for Cl read from file:
     ~/Documents/TA/PWDFT.jl/pseudopotentials/scan_upf/Cl.SCAN.UPF2
     MD5 check sum: Not computed, couldn't open file
     Pseudo is Norm-conserving, Zval =  7.0
     Generated by new atomic code, or converted to UPF format
     Using radial grid of 1493 points,  2 beta functions with: 
                l(1) =   0
                l(2) =   1

     atomic species   valence    mass     pseudopotential
        Li             1.00     6.94100     Li( 1.00)
        Cl             7.00    35.45300     Cl( 1.00)

     48 Sym. Ops., with inversion, found



   Cartesian axes

     site n.     atom                  positions (alat units)
         1           Li  tau(   1) = (   0.0000000   0.0000000   0.0000000  )
         2           Cl  tau(   2) = (   0.5000000   0.5000000   0.5000000  )

     number of k points=    47
                       cart. coord. in units 2pi/alat
        k(    1) = (   0.0000000   0.0000000   0.0000000), wk =   0.0020000
        k(    2) = (  -0.1000000   0.1000000  -0.1000000), wk =   0.0160000
        k(    3) = (  -0.2000000   0.2000000  -0.2000000), wk =   0.0160000
        k(    4) = (  -0.3000000   0.3000000  -0.3000000), wk =   0.0160000
        k(    5) = (  -0.4000000   0.4000000  -0.4000000), wk =   0.0160000
        k(    6) = (   0.5000000  -0.5000000   0.5000000), wk =   0.0080000
        k(    7) = (   0.0000000   0.2000000   0.0000000), wk =   0.0120000
        k(    8) = (  -0.1000000   0.3000000  -0.1000000), wk =   0.0480000
        k(    9) = (  -0.2000000   0.4000000  -0.2000000), wk =   0.0480000
        k(   10) = (  -0.3000000   0.5000000  -0.3000000), wk =   0.0480000
        k(   11) = (   0.6000000  -0.4000000   0.6000000), wk =   0.0480000
        k(   12) = (   0.5000000  -0.3000000   0.5000000), wk =   0.0480000
        k(   13) = (   0.4000000  -0.2000000   0.4000000), wk =   0.0480000
        k(   14) = (   0.3000000  -0.1000000   0.3000000), wk =   0.0480000
        k(   15) = (   0.2000000   0.0000000   0.2000000), wk =   0.0240000
        k(   16) = (   0.0000000   0.4000000   0.0000000), wk =   0.0120000
        k(   17) = (  -0.1000000   0.5000000  -0.1000000), wk =   0.0480000
        k(   18) = (  -0.2000000   0.6000000  -0.2000000), wk =   0.0480000
        k(   19) = (   0.7000000  -0.3000000   0.7000000), wk =   0.0480000
        k(   20) = (   0.6000000  -0.2000000   0.6000000), wk =   0.0480000
        k(   21) = (   0.5000000  -0.1000000   0.5000000), wk =   0.0480000
        k(   22) = (   0.4000000   0.0000000   0.4000000), wk =   0.0240000
        k(   23) = (   0.0000000   0.6000000   0.0000000), wk =   0.0120000
        k(   24) = (  -0.1000000   0.7000000  -0.1000000), wk =   0.0480000
        k(   25) = (   0.8000000  -0.2000000   0.8000000), wk =   0.0480000
        k(   26) = (   0.7000000  -0.1000000   0.7000000), wk =   0.0480000
        k(   27) = (   0.6000000  -0.0000000   0.6000000), wk =   0.0240000
        k(   28) = (   0.0000000   0.8000000   0.0000000), wk =   0.0120000
        k(   29) = (   0.9000000  -0.1000000   0.9000000), wk =   0.0480000
        k(   30) = (   0.8000000   0.0000000   0.8000000), wk =   0.0240000
        k(   31) = (   0.0000000  -1.0000000   0.0000000), wk =   0.0060000
        k(   32) = (  -0.2000000   0.4000000   0.0000000), wk =   0.0480000
        k(   33) = (  -0.3000000   0.5000000  -0.1000000), wk =   0.0960000
        k(   34) = (   0.6000000  -0.4000000   0.8000000), wk =   0.0960000
        k(   35) = (   0.5000000  -0.3000000   0.7000000), wk =   0.0480000
        k(   36) = (  -0.2000000   0.6000000   0.0000000), wk =   0.0480000
        k(   37) = (   0.7000000  -0.3000000   0.9000000), wk =   0.0960000
        k(   38) = (   0.6000000  -0.2000000   0.8000000), wk =   0.0960000
        k(   39) = (   0.5000000  -0.1000000   0.7000000), wk =   0.0960000
        k(   40) = (   0.4000000   0.0000000   0.6000000), wk =   0.0480000
        k(   41) = (   0.8000000  -0.2000000   1.0000000), wk =   0.0480000
        k(   42) = (   0.7000000  -0.1000000   0.9000000), wk =   0.0960000
        k(   43) = (   0.6000000   0.0000000   0.8000000), wk =   0.0480000
        k(   44) = (  -0.2000000  -1.0000000   0.0000000), wk =   0.0240000
        k(   45) = (   0.6000000  -0.2000000   1.0000000), wk =   0.0480000
        k(   46) = (   0.5000000  -0.1000000   0.9000000), wk =   0.0480000
        k(   47) = (  -0.4000000  -1.0000000   0.0000000), wk =   0.0240000

     Dense  grid:    14331 G-vectors     FFT dimensions: (  36,  36,  36)

     Estimated max dynamical RAM per process >      27.63 MB

     WARNING: libxc functional with ID  263 depends
      on external parameters: check the user_guide of
      QE if you need to modify them or to check their
      default values.

     Initial potential from superposition of free atoms

     starting charge       7.9953, renormalised to       8.0000
     Starting wfcs are   13 randomized atomic wfcs

     total cpu time spent up to now is        7.0 secs

     Self-consistent Calculation

     iteration #  1     ecut=    50.00 Ry     beta= 0.01
     Davidson diagonalization with overlap
     ethr =  1.00E-02,  avg # of iterations =  1.0

     total cpu time spent up to now is       12.7 secs

     total energy              =     -30.64897979 Ry
     estimated scf accuracy    <       0.36070790 Ry

     iteration #  2     ecut=    50.00 Ry     beta= 0.01
     Davidson diagonalization with overlap
     ethr =  4.51E-03,  avg # of iterations =  1.0

     total cpu time spent up to now is       18.7 secs

     total energy              =     -30.68149545 Ry
     estimated scf accuracy    <       0.34329958 Ry

     iteration #  3     ecut=    50.00 Ry     beta= 0.01
     Davidson diagonalization with overlap
     ethr =  4.29E-03,  avg # of iterations =  1.0

     total cpu time spent up to now is       24.4 secs

     total energy              =     -30.73163102 Ry
     estimated scf accuracy    <       0.25356909 Ry

     iteration #  4     ecut=    50.00 Ry     beta= 0.01
     Davidson diagonalization with overlap
     ethr =  3.17E-03,  avg # of iterations =  1.0

     total cpu time spent up to now is       29.5 secs

     total energy              =     -30.73381595 Ry
     estimated scf accuracy    <       0.00623611 Ry

     iteration #  5     ecut=    50.00 Ry     beta= 0.01
     Davidson diagonalization with overlap
     ethr =  7.80E-05,  avg # of iterations =  1.0

     total cpu time spent up to now is       34.2 secs

     total energy              =     -30.73322241 Ry
     estimated scf accuracy    <       0.00602490 Ry

     iteration #  6     ecut=    50.00 Ry     beta= 0.01
     Davidson diagonalization with overlap
     ethr =  7.53E-05,  avg # of iterations =  1.0

     total cpu time spent up to now is       38.3 secs

     total energy              =     -30.73130554 Ry
     estimated scf accuracy    <       0.00461921 Ry

     iteration #  7     ecut=    50.00 Ry     beta= 0.01
     Davidson diagonalization with overlap
     ethr =  5.77E-05,  avg # of iterations =  2.0

     total cpu time spent up to now is       42.5 secs

     total energy              =     -30.73341541 Ry
     estimated scf accuracy    <       0.00324485 Ry

     iteration #  8     ecut=    50.00 Ry     beta= 0.01
     Davidson diagonalization with overlap
     ethr =  4.06E-05,  avg # of iterations =  1.0

     total cpu time spent up to now is       45.9 secs

     total energy              =     -30.73298504 Ry
     estimated scf accuracy    <       0.00306384 Ry

     iteration #  9     ecut=    50.00 Ry     beta= 0.01
     Davidson diagonalization with overlap
     ethr =  3.83E-05,  avg # of iterations =  1.0

     total cpu time spent up to now is       48.6 secs

     total energy              =     -30.73272709 Ry
     estimated scf accuracy    <       0.00150249 Ry

     iteration # 10     ecut=    50.00 Ry     beta= 0.01
     Davidson diagonalization with overlap
     ethr =  1.88E-05,  avg # of iterations =  1.9

     total cpu time spent up to now is       51.9 secs

     total energy              =     -30.73287806 Ry
     estimated scf accuracy    <       0.00001659 Ry

     iteration # 11     ecut=    50.00 Ry     beta= 0.01
     Davidson diagonalization with overlap
     ethr =  2.07E-07,  avg # of iterations =  2.0

     total cpu time spent up to now is       55.5 secs

     total energy              =     -30.73290322 Ry
     estimated scf accuracy    <       0.00003029 Ry

     iteration # 12     ecut=    50.00 Ry     beta= 0.01
     Davidson diagonalization with overlap
     ethr =  2.07E-07,  avg # of iterations =  2.0

     total cpu time spent up to now is       58.9 secs

     total energy              =     -30.73286989 Ry
     estimated scf accuracy    <       0.00008032 Ry

     iteration # 13     ecut=    50.00 Ry     beta= 0.01
     Davidson diagonalization with overlap
     ethr =  2.07E-07,  avg # of iterations =  2.0

     total cpu time spent up to now is       62.4 secs

     End of self-consistent calculation

          k = 0.0000 0.0000 0.0000 (  1807 PWs)   bands (ev):

   -14.0249  -0.9650  -0.9650  -0.9650

          k =-0.1000 0.1000-0.1000 (  1829 PWs)   bands (ev):

   -13.9979  -1.1936  -0.9816  -0.9816

          k =-0.2000 0.2000-0.2000 (  1811 PWs)   bands (ev):

   -13.9249  -1.7214  -1.0242  -1.0242

          k =-0.3000 0.3000-0.3000 (  1823 PWs)   bands (ev):

   -13.8318  -2.2818  -1.0748  -1.0748

          k =-0.4000 0.4000-0.4000 (  1829 PWs)   bands (ev):

   -13.7539  -2.6872  -1.1143  -1.1143

          k = 0.5000-0.5000 0.5000 (  1802 PWs)   bands (ev):

   -13.7230  -2.8337  -1.1290  -1.1290

          k = 0.0000 0.2000 0.0000 (  1824 PWs)   bands (ev):

   -13.9887  -1.1768  -1.0359  -1.0359

          k =-0.1000 0.3000-0.1000 (  1811 PWs)   bands (ev):

   -13.9306  -1.5778  -1.1081  -1.0663

          k =-0.2000 0.4000-0.2000 (  1821 PWs)   bands (ev):

   -13.8438  -2.1101  -1.1698  -1.1244

          k =-0.3000 0.5000-0.3000 (  1815 PWs)   bands (ev):

   -13.7598  -2.5493  -1.2083  -1.1982

          k = 0.6000-0.4000 0.6000 (  1801 PWs)   bands (ev):

   -13.7127  -2.7712  -1.2844  -1.1840

          k = 0.5000-0.3000 0.5000 (  1805 PWs)   bands (ev):

   -13.7230  -2.7214  -1.3234  -1.1327

          k = 0.4000-0.2000 0.4000 (  1812 PWs)   bands (ev):

   -13.7861  -2.4144  -1.3085  -1.0626

          k = 0.3000-0.1000 0.3000 (  1818 PWs)   bands (ev):

   -13.8751  -1.9357  -1.2374  -0.9992

          k = 0.2000 0.0000 0.2000 (  1819 PWs)   bands (ev):

   -13.9552  -1.4562  -1.1139  -0.9677

          k = 0.0000 0.4000 0.0000 (  1808 PWs)   bands (ev):

   -13.8902  -1.6774  -1.2156  -1.2156

          k =-0.1000 0.5000-0.1000 (  1802 PWs)   bands (ev):

   -13.8175  -2.0493  -1.3119  -1.3050

          k =-0.2000 0.6000-0.2000 (  1798 PWs)   bands (ev):

   -13.7388  -2.4155  -1.4542  -1.3449

          k = 0.7000-0.3000 0.7000 (  1793 PWs)   bands (ev):

   -13.6851  -2.6266  -1.6183  -1.3222

          k = 0.6000-0.2000 0.6000 (  1802 PWs)   bands (ev):

   -13.6790  -2.6271  -1.7331  -1.2446

          k = 0.5000-0.1000 0.5000 (  1800 PWs)   bands (ev):

   -13.7228  -2.4403  -1.7296  -1.1388

          k = 0.4000 0.0000 0.4000 (  1809 PWs)   bands (ev):

   -13.7982  -2.1767  -1.5476  -1.0440

          k = 0.0000 0.6000 0.0000 (  1808 PWs)   bands (ev):

   -13.7625  -2.2314  -1.4269  -1.4269

          k =-0.1000 0.7000-0.1000 (  1797 PWs)   bands (ev):

   -13.6985  -2.4718  -1.5695  -1.4931

          k = 0.8000-0.2000 0.8000 (  1792 PWs)   bands (ev):

   -13.6503  -2.5796  -1.8117  -1.4827

          k = 0.7000-0.1000 0.7000 (  1800 PWs)   bands (ev):

   -13.6378  -2.4899  -2.0807  -1.3989

          k = 0.6000-0.0000 0.6000 (  1792 PWs)   bands (ev):

   -13.6658  -2.3593  -2.1338  -1.2687

          k = 0.0000 0.8000 0.0000 (  1772 PWs)   bands (ev):

   -13.6532  -2.6498  -1.5899  -1.5899

          k = 0.9000-0.1000 0.9000 (  1793 PWs)   bands (ev):

   -13.6216  -2.7240  -1.7240  -1.6052

          k = 0.8000 0.0000 0.8000 (  1806 PWs)   bands (ev):

   -13.6158  -2.6201  -1.9704  -1.5344

          k = 0.0000-1.0000 0.0000 (  1772 PWs)   bands (ev):

   -13.6102  -2.8051  -1.6505  -1.6505

          k =-0.2000 0.4000 0.0000 (  1810 PWs)   bands (ev):

   -13.8652  -1.8837  -1.3107  -1.0877

          k =-0.3000 0.5000-0.1000 (  1816 PWs)   bands (ev):

   -13.7821  -2.2702  -1.4741  -1.1457

          k = 0.6000-0.4000 0.8000 (  1800 PWs)   bands (ev):

   -13.7125  -2.5781  -1.5560  -1.2204

          k = 0.5000-0.3000 0.7000 (  1806 PWs)   bands (ev):

   -13.6855  -2.6933  -1.5784  -1.2552

          k =-0.2000 0.6000 0.0000 (  1807 PWs)   bands (ev):

   -13.7489  -2.2955  -1.5406  -1.3393

          k = 0.7000-0.3000 0.9000 (  1805 PWs)   bands (ev):

   -13.6848  -2.4864  -1.7421  -1.4027

          k = 0.6000-0.2000 0.8000 (  1804 PWs)   bands (ev):

   -13.6511  -2.5445  -1.9138  -1.4095

          k = 0.5000-0.1000 0.7000 (  1803 PWs)   bands (ev):

   -13.6618  -2.4727  -1.9829  -1.3364

          k = 0.4000 0.0000 0.6000 (  1800 PWs)   bands (ev):

   -13.7123  -2.3759  -1.8196  -1.2269

          k = 0.8000-0.2000 1.0000 (  1792 PWs)   bands (ev):

   -13.6499  -2.5985  -1.7169  -1.5627

          k = 0.7000-0.1000 0.9000 (  1795 PWs)   bands (ev):

   -13.6225  -2.5698  -1.9543  -1.5690

          k = 0.6000 0.0000 0.8000 (  1801 PWs)   bands (ev):

   -13.6272  -2.3677  -2.2272  -1.4768

          k =-0.2000-1.0000 0.0000 (  1790 PWs)   bands (ev):

   -13.6110  -2.7115  -1.7822  -1.6485

          k = 0.6000-0.2000 1.0000 (  1799 PWs)   bands (ev):

   -13.6402  -2.4504  -2.0253  -1.5054

          k = 0.5000-0.1000 0.9000 (  1800 PWs)   bands (ev):

   -13.6231  -2.3692  -2.1881  -1.5601

          k =-0.4000-1.0000 0.0000 (  1792 PWs)   bands (ev):

   -13.6120  -2.4530  -2.1008  -1.6452

     highest occupied level (ev):    -0.9650

!    total energy              =     -30.73288193 Ry
     estimated scf accuracy    <       0.00000005 Ry

     The total energy is the sum of the following terms:
     one-electron contribution =      -8.67030390 Ry
     hartree contribution      =       7.17367035 Ry
     xc contribution           =      -6.28071700 Ry
     ewald contribution        =     -22.95553138 Ry

     convergence has been achieved in  13 iterations
     Writing meta-gga kinetic term

     Writing all to output data dir ./input_pw/LiCl/12/pwscf.save/
     Writing meta-gga kinetic term
 
     init_run     :      3.03s CPU      6.92s WALL (       1 calls)
     electrons    :     35.37s CPU     55.40s WALL (       1 calls)

     Called by init_run:
     wfcinit      :      2.87s CPU      6.42s WALL (       1 calls)
     potinit      :      0.04s CPU      0.15s WALL (       1 calls)
     hinit0       :      0.10s CPU      0.31s WALL (       1 calls)

     Called by electrons:
     c_bands      :     28.02s CPU     43.96s WALL (      13 calls)
     sum_band     :      6.52s CPU     10.07s WALL (      13 calls)
     v_of_rho     :      0.44s CPU      0.80s WALL (      14 calls)
     mix_rho      :      0.41s CPU      0.67s WALL (      13 calls)

     Called by c_bands:
     init_us_2    :      0.29s CPU      0.48s WALL (    1269 calls)
     init_us_2:cp :      0.29s CPU      0.48s WALL (    1269 calls)
     cegterg      :     27.75s CPU     43.56s WALL (     611 calls)

     Called by *egterg:
     cdiaghg      :      0.09s CPU      0.10s WALL (    1451 calls)
     h_psi        :     30.09s CPU     49.22s WALL (    1498 calls)
     g_psi        :      0.02s CPU      0.02s WALL (     840 calls)

     Called by h_psi:
     h_psi:calbec :      0.09s CPU      0.18s WALL (    1498 calls)
     vloc_psi     :      7.50s CPU     12.21s WALL (    1498 calls)
     add_vuspsi   :      0.08s CPU      0.09s WALL (    1498 calls)
     h_psi_meta   :     22.39s CPU     36.70s WALL (    1498 calls)

     General routines
     calbec       :      0.09s CPU      0.15s WALL (    1498 calls)
     fft          :      0.09s CPU      0.12s WALL (     165 calls)
     ffts         :      0.17s CPU      0.34s WALL (     318 calls)
     fftw         :     31.36s CPU     51.32s WALL (   59904 calls)
     interpolate  :      0.00s CPU      0.00s WALL (      14 calls)
 
     Parallel routines
 
     PWSCF        :     38.44s CPU   1m 2.44s WALL

 
   This run was terminated on:  14:29:45  14Mar2023            

=------------------------------------------------------------------------------=
   JOB DONE.
=------------------------------------------------------------------------------=
