
     Program PWSCF v.7.0 starts on  7Jul2023 at 14:25:23 

     This program is part of the open-source Quantum ESPRESSO suite
     for quantum simulation of materials; please cite
         "P. Giannozzi et al., J. Phys.:Condens. Matter 21 395502 (2009);
         "P. Giannozzi et al., J. Phys.:Condens. Matter 29 465901 (2017);
         "P. Giannozzi et al., J. Chem. Phys. 152 154105 (2020);
          URL http://www.quantum-espresso.org", 
     in publications or presentations arising from this work. More details at
     http://www.quantum-espresso.org/quote

     Parallel version (MPI), running on     1 processors

     MPI processes distributed on     1 nodes
     26976 MiB available memory on the printing compute node when the environment starts
 
     Waiting for input...
     Reading input from standard input
Warning: card &CELL ignored
Warning: card / ignored

     Current dimensions of program PWSCF are:
     Max number of different atomic species (ntypx) = 10
     Max number of k-points (npk) =  40000
     Max angular momentum in pseudopotentials (lmaxx) =  4

     WARNING: the MGGA functional with ID    5 has been 
     read together with other dft terms, but it should 
     stand alone in order to work properly. The other 
     terms will be ignored.

     Subspace diagonalization in iterative solution of the eigenvalue problem:
     a serial algorithm will be used

 
     G-vector sticks info
     --------------------
     sticks:   dense  smooth     PW     G-vecs:    dense   smooth      PW
     Sum         349     349    121                 4279     4279     869
 
     Using Slab Decomposition
 


     bravais-lattice index     =            2
     lattice parameter (alat)  =       7.0507  a.u.
     unit-cell volume          =      87.6275 (a.u.)^3
     number of atoms/cell      =            2
     number of atomic types    =            1
     number of electrons       =         8.00
     number of Kohn-Sham states=            4
     kinetic-energy cutoff     =      50.0000  Ry
     charge density cutoff     =     200.0000  Ry
     scf convergence threshold =      2.0E-05
     mixing beta               =       0.2000
     number of iterations used =            8  local-TF  mixing
     Exchange-correlation= SLA  PW   SCAN SCAN
                           (   0   0   0   0   0 263 267)

     celldm(1)=   7.050719  celldm(2)=   0.000000  celldm(3)=   0.000000
     celldm(4)=   0.000000  celldm(5)=   0.000000  celldm(6)=   0.000000

     crystal axes: (cart. coord. in units of alat)
               a(1) = (  -0.500000   0.000000   0.500000 )  
               a(2) = (   0.000000   0.500000   0.500000 )  
               a(3) = (  -0.500000   0.500000   0.000000 )  

     reciprocal axes: (cart. coord. in units 2 pi/alat)
               b(1) = ( -1.000000 -1.000000  1.000000 )  
               b(2) = (  1.000000  1.000000  1.000000 )  
               b(3) = ( -1.000000  1.000000 -1.000000 )  


     PseudoPot. # 1 for C  read from file:
     ~/Documents/TA/PWDFT.jl/pseudopotentials/scan_upf/C.SCAN.UPF2
     MD5 check sum: Not computed, couldn't open file
     Pseudo is Norm-conserving, Zval =  4.0
     Generated by new atomic code, or converted to UPF format
     Using radial grid of 1389 points,  1 beta functions with: 
                l(1) =   0

     atomic species   valence    mass     pseudopotential
        C              4.00    12.01100     C ( 1.00)

     48 Sym. Ops., with inversion, found (24 have fractional translation)



   Cartesian axes

     site n.     atom                  positions (alat units)
         1           C   tau(   1) = (   0.0000000   0.0000000   0.0000000  )
         2           C   tau(   2) = (   0.2500000   0.2500000   0.2500000  )

     number of k points=    47
                       cart. coord. in units 2pi/alat
        k(    1) = (   0.0000000   0.0000000   0.0000000), wk =   0.0020000
        k(    2) = (  -0.1000000   0.1000000  -0.1000000), wk =   0.0160000
        k(    3) = (  -0.2000000   0.2000000  -0.2000000), wk =   0.0160000
        k(    4) = (  -0.3000000   0.3000000  -0.3000000), wk =   0.0160000
        k(    5) = (  -0.4000000   0.4000000  -0.4000000), wk =   0.0160000
        k(    6) = (   0.5000000  -0.5000000   0.5000000), wk =   0.0080000
        k(    7) = (   0.0000000   0.2000000   0.0000000), wk =   0.0120000
        k(    8) = (  -0.1000000   0.3000000  -0.1000000), wk =   0.0480000
        k(    9) = (  -0.2000000   0.4000000  -0.2000000), wk =   0.0480000
        k(   10) = (  -0.3000000   0.5000000  -0.3000000), wk =   0.0480000
        k(   11) = (   0.6000000  -0.4000000   0.6000000), wk =   0.0480000
        k(   12) = (   0.5000000  -0.3000000   0.5000000), wk =   0.0480000
        k(   13) = (   0.4000000  -0.2000000   0.4000000), wk =   0.0480000
        k(   14) = (   0.3000000  -0.1000000   0.3000000), wk =   0.0480000
        k(   15) = (   0.2000000   0.0000000   0.2000000), wk =   0.0240000
        k(   16) = (   0.0000000   0.4000000   0.0000000), wk =   0.0120000
        k(   17) = (  -0.1000000   0.5000000  -0.1000000), wk =   0.0480000
        k(   18) = (  -0.2000000   0.6000000  -0.2000000), wk =   0.0480000
        k(   19) = (   0.7000000  -0.3000000   0.7000000), wk =   0.0480000
        k(   20) = (   0.6000000  -0.2000000   0.6000000), wk =   0.0480000
        k(   21) = (   0.5000000  -0.1000000   0.5000000), wk =   0.0480000
        k(   22) = (   0.4000000   0.0000000   0.4000000), wk =   0.0240000
        k(   23) = (   0.0000000   0.6000000   0.0000000), wk =   0.0120000
        k(   24) = (  -0.1000000   0.7000000  -0.1000000), wk =   0.0480000
        k(   25) = (   0.8000000  -0.2000000   0.8000000), wk =   0.0480000
        k(   26) = (   0.7000000  -0.1000000   0.7000000), wk =   0.0480000
        k(   27) = (   0.6000000  -0.0000000   0.6000000), wk =   0.0240000
        k(   28) = (   0.0000000   0.8000000   0.0000000), wk =   0.0120000
        k(   29) = (   0.9000000  -0.1000000   0.9000000), wk =   0.0480000
        k(   30) = (   0.8000000   0.0000000   0.8000000), wk =   0.0240000
        k(   31) = (   0.0000000  -1.0000000   0.0000000), wk =   0.0060000
        k(   32) = (  -0.2000000   0.4000000   0.0000000), wk =   0.0480000
        k(   33) = (  -0.3000000   0.5000000  -0.1000000), wk =   0.0960000
        k(   34) = (   0.6000000  -0.4000000   0.8000000), wk =   0.0960000
        k(   35) = (   0.5000000  -0.3000000   0.7000000), wk =   0.0480000
        k(   36) = (  -0.2000000   0.6000000   0.0000000), wk =   0.0480000
        k(   37) = (   0.7000000  -0.3000000   0.9000000), wk =   0.0960000
        k(   38) = (   0.6000000  -0.2000000   0.8000000), wk =   0.0960000
        k(   39) = (   0.5000000  -0.1000000   0.7000000), wk =   0.0960000
        k(   40) = (   0.4000000   0.0000000   0.6000000), wk =   0.0480000
        k(   41) = (   0.8000000  -0.2000000   1.0000000), wk =   0.0480000
        k(   42) = (   0.7000000  -0.1000000   0.9000000), wk =   0.0960000
        k(   43) = (   0.6000000   0.0000000   0.8000000), wk =   0.0480000
        k(   44) = (  -0.2000000  -1.0000000   0.0000000), wk =   0.0240000
        k(   45) = (   0.6000000  -0.2000000   1.0000000), wk =   0.0480000
        k(   46) = (   0.5000000  -0.1000000   0.9000000), wk =   0.0480000
        k(   47) = (  -0.4000000  -1.0000000   0.0000000), wk =   0.0240000

     Dense  grid:     4279 G-vectors     FFT dimensions: (  24,  24,  24)

     Estimated max dynamical RAM per process >       7.99 MB

     WARNING: libxc functional with ID  263 depends
      on external parameters: check the user_guide of
      QE if you need to modify them or to check their
      default values.

     Initial potential from superposition of free atoms

     starting charge       7.9999, renormalised to       8.0000
     Starting wfcs are    8 randomized atomic wfcs

     total cpu time spent up to now is        1.3 secs

     Self-consistent Calculation

     iteration #  1     ecut=    50.00 Ry     beta= 0.20
     Davidson diagonalization with overlap
     ethr =  1.00E-02,  avg # of iterations =  2.0

     total cpu time spent up to now is        3.0 secs

     total energy              =     -22.65159543 Ry
     estimated scf accuracy    <       1.75276000 Ry

     iteration #  2     ecut=    50.00 Ry     beta= 0.20
     Davidson diagonalization with overlap
     ethr =  1.00E-02,  avg # of iterations =  1.0

     total cpu time spent up to now is        4.3 secs

     total energy              =     -22.70922627 Ry
     estimated scf accuracy    <       1.16169286 Ry

     iteration #  3     ecut=    50.00 Ry     beta= 0.20
     Davidson diagonalization with overlap
     ethr =  1.00E-02,  avg # of iterations =  1.0

     total cpu time spent up to now is        5.6 secs

     total energy              =     -22.71266967 Ry
     estimated scf accuracy    <       0.00929784 Ry

     iteration #  4     ecut=    50.00 Ry     beta= 0.20
     Davidson diagonalization with overlap
     ethr =  1.16E-04,  avg # of iterations =  1.0

     total cpu time spent up to now is        6.9 secs

     total energy              =     -22.71142264 Ry
     estimated scf accuracy    <       0.00580952 Ry

     iteration #  5     ecut=    50.00 Ry     beta= 0.20
     Davidson diagonalization with overlap
     ethr =  7.26E-05,  avg # of iterations =  1.1

     total cpu time spent up to now is        8.2 secs

     total energy              =     -22.71185576 Ry
     estimated scf accuracy    <       0.00004400 Ry

     iteration #  6     ecut=    50.00 Ry     beta= 0.20
     Davidson diagonalization with overlap
     ethr =  5.50E-07,  avg # of iterations =  2.9

     total cpu time spent up to now is        9.5 secs

     total energy              =     -22.71188348 Ry
     estimated scf accuracy    <       0.00006975 Ry

     iteration #  7     ecut=    50.00 Ry     beta= 0.20
     Davidson diagonalization with overlap
     ethr =  5.50E-07,  avg # of iterations =  1.0

     total cpu time spent up to now is       10.4 secs

     total energy              =     -22.71189925 Ry
     estimated scf accuracy    <       0.00003939 Ry

     iteration #  8     ecut=    50.00 Ry     beta= 0.20
     Davidson diagonalization with overlap
     ethr =  4.92E-07,  avg # of iterations =  1.2

     total cpu time spent up to now is       11.5 secs

     End of self-consistent calculation

          k = 0.0000 0.0000 0.0000 (   531 PWs)   bands (ev):

    -9.7347  10.9419  10.9419  10.9419

          k =-0.1000 0.1000-0.1000 (   534 PWs)   bands (ev):

    -9.4724   9.3693  10.5464  10.5464

          k =-0.2000 0.2000-0.2000 (   531 PWs)   bands (ev):

    -8.6913   6.3220   9.7512   9.7512

          k =-0.3000 0.3000-0.3000 (   522 PWs)   bands (ev):

    -7.4185   3.0990   9.0161   9.0161

          k =-0.4000 0.4000-0.4000 (   528 PWs)   bands (ev):

    -5.7620   0.1775   8.5358   8.5358

          k = 0.5000-0.5000 0.5000 (   544 PWs)   bands (ev):

    -4.5313  -1.4878   8.3572   8.3572

          k = 0.0000 0.2000 0.0000 (   532 PWs)   bands (ev):

    -9.3849   9.8607   9.8607  10.0137

          k =-0.1000 0.3000-0.1000 (   534 PWs)   bands (ev):

    -8.7765   7.3670   8.9788   9.6451

          k =-0.2000 0.4000-0.2000 (   525 PWs)   bands (ev):

    -7.6655   4.2552   8.2873   8.8505

          k =-0.3000 0.5000-0.3000 (   526 PWs)   bands (ev):

    -6.1174   1.2485   7.9236   8.0493

          k = 0.6000-0.4000 0.6000 (   524 PWs)   bands (ev):

    -4.5148  -1.0496   7.4724   7.9378

          k = 0.5000-0.3000 0.5000 (   522 PWs)   bands (ev):

    -4.9812  -0.4385   7.2170   8.3081

          k = 0.4000-0.2000 0.4000 (   525 PWs)   bands (ev):

    -6.6744   2.2242   7.3306   8.9719

          k = 0.3000-0.1000 0.3000 (   526 PWs)   bands (ev):

    -8.0903   5.3083   7.8375   9.8108

          k = 0.2000 0.0000 0.2000 (   527 PWs)   bands (ev):

    -9.0368   8.1232   8.8647  10.5038

          k = 0.0000 0.4000 0.0000 (   524 PWs)   bands (ev):

    -8.3426   7.7407   8.0434   8.0434

          k =-0.1000 0.5000-0.1000 (   528 PWs)   bands (ev):

    -7.4029   5.2968   7.3098   7.4784

          k =-0.2000 0.6000-0.2000 (   531 PWs)   bands (ev):

    -6.0006   2.5180   6.4958   6.9438

          k = 0.7000-0.3000 0.7000 (   524 PWs)   bands (ev):

    -4.3294   0.0304   5.5762   6.9922

          k = 0.6000-0.2000 0.6000 (   522 PWs)   bands (ev):

    -3.8923  -0.5046   4.9731   7.4390

          k = 0.5000-0.1000 0.5000 (   527 PWs)   bands (ev):

    -5.4708   1.7040   4.8125   8.2080

          k = 0.4000 0.0000 0.4000 (   530 PWs)   bands (ev):

    -6.9945   4.1592   5.4736   9.1248

          k = 0.0000 0.6000 0.0000 (   524 PWs)   bands (ev):

    -6.6362   4.8084   6.5075   6.5075

          k =-0.1000 0.7000-0.1000 (   527 PWs)   bands (ev):

    -5.3969   2.9497   5.4867   6.0679

          k = 0.8000-0.2000 0.8000 (   524 PWs)   bands (ev):

    -3.7966   0.9517   4.0612   6.0576

          k = 0.7000-0.1000 0.7000 (   515 PWs)   bands (ev):

    -2.6870  -0.2160   2.9997   6.4743

          k = 0.6000-0.0000 0.6000 (   526 PWs)   bands (ev):

    -3.9189   1.0579   2.8857   7.2457

          k = 0.0000 0.8000 0.0000 (   520 PWs)   bands (ev):

    -4.3230   1.6190   5.5310   5.5310

          k = 0.9000-0.1000 0.9000 (   514 PWs)   bands (ev):

    -2.8503   0.0614   4.5480   5.4211

          k = 0.8000 0.0000 0.8000 (   514 PWs)   bands (ev):

    -1.6299  -0.8618   3.0594   5.7499

          k = 0.0000-1.0000 0.0000 (   524 PWs)   bands (ev):

    -1.5119  -1.5119   5.1952   5.1952

          k =-0.2000 0.4000 0.0000 (   531 PWs)   bands (ev):

    -8.0023   6.0493   7.1247   9.1550

          k =-0.3000 0.5000-0.1000 (   525 PWs)   bands (ev):

    -6.7432   3.4210   6.2248   8.3632

          k = 0.6000-0.4000 0.8000 (   528 PWs)   bands (ev):

    -5.1082   0.6784   5.9416   7.5950

          k = 0.5000-0.3000 0.7000 (   526 PWs)   bands (ev):

    -3.8981  -0.9259   5.9025   7.2725

          k =-0.2000 0.6000 0.0000 (   527 PWs)   bands (ev):

    -6.3132   3.9577   5.6541   6.9656

          k = 0.7000-0.3000 0.9000 (   517 PWs)   bands (ev):

    -4.8023   1.8210   4.7245   6.2575

          k = 0.6000-0.2000 0.8000 (   523 PWs)   bands (ev):

    -3.2527  -0.1430   4.0819   6.1128

          k = 0.5000-0.1000 0.7000 (   525 PWs)   bands (ev):

    -3.7363   0.4705   3.6942   6.6123

          k = 0.4000 0.0000 0.6000 (   523 PWs)   bands (ev):

    -5.3711   2.4662   4.1028   7.4888

          k = 0.8000-0.2000 1.0000 (   520 PWs)   bands (ev):

    -4.0418   1.4963   4.7615   5.2609

          k = 0.7000-0.1000 0.9000 (   518 PWs)   bands (ev):

    -2.4426   0.0367   3.4123   5.1292

          k = 0.6000 0.0000 0.8000 (   520 PWs)   bands (ev):

    -2.2703  -0.0508   2.5692   5.6777

          k =-0.2000-1.0000 0.0000 (   512 PWs)   bands (ev):

    -1.3345  -1.3345   4.5828   4.5828

          k = 0.6000-0.2000 1.0000 (   515 PWs)   bands (ev):

    -3.2611   0.9011   3.3917   5.1952

          k = 0.5000-0.1000 0.9000 (   514 PWs)   bands (ev):

    -2.0884  -0.1362   3.0788   4.6892

          k =-0.4000-1.0000 0.0000 (   520 PWs)   bands (ev):

    -0.9923  -0.9923   3.6431   3.6431

     highest occupied level (ev):    10.9419

!    total energy              =     -22.71190252 Ry
     estimated scf accuracy    <       0.00000049 Ry

     The total energy is the sum of the following terms:
     one-electron contribution =       6.52475551 Ry
     hartree contribution      =       2.07464797 Ry
     xc contribution           =      -6.86308604 Ry
     ewald contribution        =     -24.44821997 Ry

     convergence has been achieved in   8 iterations
     Writing meta-gga kinetic term

     Writing all to output data dir ./input_pw/C/7/pwscf.save/
     Writing meta-gga kinetic term
 
     init_run     :      0.54s CPU      1.26s WALL (       1 calls)
     electrons    :      5.73s CPU     10.26s WALL (       1 calls)

     Called by init_run:
     wfcinit      :      0.49s CPU      1.16s WALL (       1 calls)
     potinit      :      0.01s CPU      0.02s WALL (       1 calls)
     hinit0       :      0.03s CPU      0.07s WALL (       1 calls)

     Called by electrons:
     c_bands      :      4.58s CPU      8.21s WALL (       8 calls)
     sum_band     :      1.04s CPU      1.84s WALL (       8 calls)
     v_of_rho     :      0.08s CPU      0.17s WALL (       9 calls)
     mix_rho      :      0.04s CPU      0.04s WALL (       8 calls)

     Called by c_bands:
     init_us_2    :      0.02s CPU      0.03s WALL (     799 calls)
     init_us_2:cp :      0.02s CPU      0.02s WALL (     799 calls)
     cegterg      :      4.56s CPU      8.17s WALL (     376 calls)

     Called by *egterg:
     cdiaghg      :      0.04s CPU      0.04s WALL (     904 calls)
     h_psi        :      4.92s CPU      9.14s WALL (     951 calls)
     g_psi        :      0.00s CPU      0.00s WALL (     528 calls)

     Called by h_psi:
     h_psi:calbec :      0.01s CPU      0.01s WALL (     951 calls)
     vloc_psi     :      1.22s CPU      2.27s WALL (     951 calls)
     add_vuspsi   :      0.01s CPU      0.01s WALL (     951 calls)
     h_psi_meta   :      3.67s CPU      6.84s WALL (     951 calls)

     General routines
     calbec       :      0.01s CPU      0.01s WALL (     951 calls)
     fft          :      0.02s CPU      0.03s WALL (     105 calls)
     ffts         :      0.02s CPU      0.02s WALL (     133 calls)
     fftw         :      5.30s CPU      9.76s WALL (   36728 calls)
     interpolate  :      0.00s CPU      0.00s WALL (       9 calls)
 
     Parallel routines
 
     PWSCF        :      6.30s CPU     11.57s WALL

 
   This run was terminated on:  14:25:35   7Jul2023            

=------------------------------------------------------------------------------=
   JOB DONE.
=------------------------------------------------------------------------------=
