
     Program PWSCF v.7.0 starts on 29Mar2023 at 12:34:18 

     This program is part of the open-source Quantum ESPRESSO suite
     for quantum simulation of materials; please cite
         "P. Giannozzi et al., J. Phys.:Condens. Matter 21 395502 (2009);
         "P. Giannozzi et al., J. Phys.:Condens. Matter 29 465901 (2017);
         "P. Giannozzi et al., J. Chem. Phys. 152 154105 (2020);
          URL http://www.quantum-espresso.org", 
     in publications or presentations arising from this work. More details at
     http://www.quantum-espresso.org/quote

     Parallel version (MPI), running on     1 processors

     MPI processes distributed on     1 nodes
     23424 MiB available memory on the printing compute node when the environment starts
 
     Waiting for input...
     Reading input from standard input
Warning: card &CELL ignored
Warning: card / ignored

     Current dimensions of program PWSCF are:
     Max number of different atomic species (ntypx) = 10
     Max number of k-points (npk) =  40000
     Max angular momentum in pseudopotentials (lmaxx) =  4

     WARNING: the MGGA functional with ID    5 has been 
     read together with other dft terms, but it should 
     stand alone in order to work properly. The other 
     terms will be ignored.

     Subspace diagonalization in iterative solution of the eigenvalue problem:
     a serial algorithm will be used

 
     G-vector sticks info
     --------------------
     sticks:   dense  smooth     PW     G-vecs:    dense   smooth      PW
     Sum         349     349    121                 4279     4279     869
 
     Using Slab Decomposition
 


     bravais-lattice index     =            2
     lattice parameter (alat)  =       7.0507  a.u.
     unit-cell volume          =      87.6275 (a.u.)^3
     number of atoms/cell      =            2
     number of atomic types    =            1
     number of electrons       =         8.00
     number of Kohn-Sham states=            4
     kinetic-energy cutoff     =      50.0000  Ry
     charge density cutoff     =     200.0000  Ry
     scf convergence threshold =      1.0E-06
     mixing beta               =       0.0100
     number of iterations used =            8  local-TF  mixing
     Exchange-correlation= SLA  PW   SCAN SCAN
                           (   0   0   0   0   0 263 267)

     celldm(1)=   7.050719  celldm(2)=   0.000000  celldm(3)=   0.000000
     celldm(4)=   0.000000  celldm(5)=   0.000000  celldm(6)=   0.000000

     crystal axes: (cart. coord. in units of alat)
               a(1) = (  -0.500000   0.000000   0.500000 )  
               a(2) = (   0.000000   0.500000   0.500000 )  
               a(3) = (  -0.500000   0.500000   0.000000 )  

     reciprocal axes: (cart. coord. in units 2 pi/alat)
               b(1) = ( -1.000000 -1.000000  1.000000 )  
               b(2) = (  1.000000  1.000000  1.000000 )  
               b(3) = ( -1.000000  1.000000 -1.000000 )  


     PseudoPot. # 1 for C  read from file:
     ~/Documents/TA/PWDFT.jl/pseudopotentials/scan_upf/C.SCAN.UPF2
     MD5 check sum: Not computed, couldn't open file
     Pseudo is Norm-conserving, Zval =  4.0
     Generated by new atomic code, or converted to UPF format
     Using radial grid of 1389 points,  1 beta functions with: 
                l(1) =   0

     atomic species   valence    mass     pseudopotential
        C              4.00    12.01100     C ( 1.00)

     48 Sym. Ops., with inversion, found (24 have fractional translation)



   Cartesian axes

     site n.     atom                  positions (alat units)
         1           C   tau(   1) = (   0.0000000   0.0000000   0.0000000  )
         2           C   tau(   2) = (   0.2500000   0.2500000   0.2500000  )

     number of k points=    47
                       cart. coord. in units 2pi/alat
        k(    1) = (   0.0000000   0.0000000   0.0000000), wk =   0.0020000
        k(    2) = (  -0.1000000   0.1000000  -0.1000000), wk =   0.0160000
        k(    3) = (  -0.2000000   0.2000000  -0.2000000), wk =   0.0160000
        k(    4) = (  -0.3000000   0.3000000  -0.3000000), wk =   0.0160000
        k(    5) = (  -0.4000000   0.4000000  -0.4000000), wk =   0.0160000
        k(    6) = (   0.5000000  -0.5000000   0.5000000), wk =   0.0080000
        k(    7) = (   0.0000000   0.2000000   0.0000000), wk =   0.0120000
        k(    8) = (  -0.1000000   0.3000000  -0.1000000), wk =   0.0480000
        k(    9) = (  -0.2000000   0.4000000  -0.2000000), wk =   0.0480000
        k(   10) = (  -0.3000000   0.5000000  -0.3000000), wk =   0.0480000
        k(   11) = (   0.6000000  -0.4000000   0.6000000), wk =   0.0480000
        k(   12) = (   0.5000000  -0.3000000   0.5000000), wk =   0.0480000
        k(   13) = (   0.4000000  -0.2000000   0.4000000), wk =   0.0480000
        k(   14) = (   0.3000000  -0.1000000   0.3000000), wk =   0.0480000
        k(   15) = (   0.2000000   0.0000000   0.2000000), wk =   0.0240000
        k(   16) = (   0.0000000   0.4000000   0.0000000), wk =   0.0120000
        k(   17) = (  -0.1000000   0.5000000  -0.1000000), wk =   0.0480000
        k(   18) = (  -0.2000000   0.6000000  -0.2000000), wk =   0.0480000
        k(   19) = (   0.7000000  -0.3000000   0.7000000), wk =   0.0480000
        k(   20) = (   0.6000000  -0.2000000   0.6000000), wk =   0.0480000
        k(   21) = (   0.5000000  -0.1000000   0.5000000), wk =   0.0480000
        k(   22) = (   0.4000000   0.0000000   0.4000000), wk =   0.0240000
        k(   23) = (   0.0000000   0.6000000   0.0000000), wk =   0.0120000
        k(   24) = (  -0.1000000   0.7000000  -0.1000000), wk =   0.0480000
        k(   25) = (   0.8000000  -0.2000000   0.8000000), wk =   0.0480000
        k(   26) = (   0.7000000  -0.1000000   0.7000000), wk =   0.0480000
        k(   27) = (   0.6000000  -0.0000000   0.6000000), wk =   0.0240000
        k(   28) = (   0.0000000   0.8000000   0.0000000), wk =   0.0120000
        k(   29) = (   0.9000000  -0.1000000   0.9000000), wk =   0.0480000
        k(   30) = (   0.8000000   0.0000000   0.8000000), wk =   0.0240000
        k(   31) = (   0.0000000  -1.0000000   0.0000000), wk =   0.0060000
        k(   32) = (  -0.2000000   0.4000000   0.0000000), wk =   0.0480000
        k(   33) = (  -0.3000000   0.5000000  -0.1000000), wk =   0.0960000
        k(   34) = (   0.6000000  -0.4000000   0.8000000), wk =   0.0960000
        k(   35) = (   0.5000000  -0.3000000   0.7000000), wk =   0.0480000
        k(   36) = (  -0.2000000   0.6000000   0.0000000), wk =   0.0480000
        k(   37) = (   0.7000000  -0.3000000   0.9000000), wk =   0.0960000
        k(   38) = (   0.6000000  -0.2000000   0.8000000), wk =   0.0960000
        k(   39) = (   0.5000000  -0.1000000   0.7000000), wk =   0.0960000
        k(   40) = (   0.4000000   0.0000000   0.6000000), wk =   0.0480000
        k(   41) = (   0.8000000  -0.2000000   1.0000000), wk =   0.0480000
        k(   42) = (   0.7000000  -0.1000000   0.9000000), wk =   0.0960000
        k(   43) = (   0.6000000   0.0000000   0.8000000), wk =   0.0480000
        k(   44) = (  -0.2000000  -1.0000000   0.0000000), wk =   0.0240000
        k(   45) = (   0.6000000  -0.2000000   1.0000000), wk =   0.0480000
        k(   46) = (   0.5000000  -0.1000000   0.9000000), wk =   0.0480000
        k(   47) = (  -0.4000000  -1.0000000   0.0000000), wk =   0.0240000

     Dense  grid:     4279 G-vectors     FFT dimensions: (  24,  24,  24)

     Estimated max dynamical RAM per process >       7.99 MB

     WARNING: libxc functional with ID  263 depends
      on external parameters: check the user_guide of
      QE if you need to modify them or to check their
      default values.

     Initial potential from superposition of free atoms

     starting charge       7.9999, renormalised to       8.0000
     Starting wfcs are    8 randomized atomic wfcs

     total cpu time spent up to now is        1.1 secs

     Self-consistent Calculation

     iteration #  1     ecut=    50.00 Ry     beta= 0.01
     Davidson diagonalization with overlap
     ethr =  1.00E-02,  avg # of iterations =  2.0

     total cpu time spent up to now is        3.2 secs

     total energy              =     -22.59524873 Ry
     estimated scf accuracy    <       1.75276000 Ry

     iteration #  2     ecut=    50.00 Ry     beta= 0.01
     Davidson diagonalization with overlap
     ethr =  1.00E-02,  avg # of iterations =  1.0

     total cpu time spent up to now is        4.5 secs

     total energy              =     -22.48602716 Ry
     estimated scf accuracy    <       1.76160930 Ry

     iteration #  3     ecut=    50.00 Ry     beta= 0.01
     Davidson diagonalization with overlap
     ethr =  1.00E-02,  avg # of iterations =  1.0

     total cpu time spent up to now is        5.8 secs

     total energy              =     -22.70025111 Ry
     estimated scf accuracy    <       4.52767264 Ry

     iteration #  4     ecut=    50.00 Ry     beta= 0.01
     Davidson diagonalization with overlap
     ethr =  1.00E-02,  avg # of iterations =  1.0

     total cpu time spent up to now is        7.2 secs

     total energy              =     -22.71358363 Ry
     estimated scf accuracy    <       0.01011870 Ry

     iteration #  5     ecut=    50.00 Ry     beta= 0.01
     Davidson diagonalization with overlap
     ethr =  1.26E-04,  avg # of iterations =  1.2

     total cpu time spent up to now is        8.5 secs

     total energy              =     -22.71412095 Ry
     estimated scf accuracy    <       0.01788053 Ry

     iteration #  6     ecut=    50.00 Ry     beta= 0.01
     Davidson diagonalization with overlap
     ethr =  1.26E-04,  avg # of iterations =  1.0

     total cpu time spent up to now is        9.8 secs

     total energy              =     -22.71197856 Ry
     estimated scf accuracy    <       0.01746135 Ry

     iteration #  7     ecut=    50.00 Ry     beta= 0.01
     Davidson diagonalization with overlap
     ethr =  1.26E-04,  avg # of iterations =  1.0

     total cpu time spent up to now is       11.1 secs

     total energy              =     -22.71152412 Ry
     estimated scf accuracy    <       0.00317005 Ry

     iteration #  8     ecut=    50.00 Ry     beta= 0.01
     Davidson diagonalization with overlap
     ethr =  3.96E-05,  avg # of iterations =  2.0

     total cpu time spent up to now is       12.7 secs

     total energy              =     -22.71187803 Ry
     estimated scf accuracy    <       0.00294253 Ry

     iteration #  9     ecut=    50.00 Ry     beta= 0.01
     Davidson diagonalization with overlap
     ethr =  3.68E-05,  avg # of iterations =  1.0

     total cpu time spent up to now is       13.7 secs

     total energy              =     -22.71187309 Ry
     estimated scf accuracy    <       0.00222070 Ry

     iteration # 10     ecut=    50.00 Ry     beta= 0.01
     Davidson diagonalization with overlap
     ethr =  2.78E-05,  avg # of iterations =  1.0

     total cpu time spent up to now is       15.0 secs

     total energy              =     -22.71189673 Ry
     estimated scf accuracy    <       0.00011744 Ry

     iteration # 11     ecut=    50.00 Ry     beta= 0.01
     Davidson diagonalization with overlap
     ethr =  1.47E-06,  avg # of iterations =  1.0

     total cpu time spent up to now is       16.3 secs

     total energy              =     -22.71189993 Ry
     estimated scf accuracy    <       0.00001647 Ry

     iteration # 12     ecut=    50.00 Ry     beta= 0.01
     Davidson diagonalization with overlap
     ethr =  2.06E-07,  avg # of iterations =  1.0

     total cpu time spent up to now is       17.3 secs

     total energy              =     -22.71190220 Ry
     estimated scf accuracy    <       0.00000895 Ry

     iteration # 13     ecut=    50.00 Ry     beta= 0.01
     Davidson diagonalization with overlap
     ethr =  1.12E-07,  avg # of iterations =  1.0

     total cpu time spent up to now is       18.3 secs

     End of self-consistent calculation

          k = 0.0000 0.0000 0.0000 (   531 PWs)   bands (ev):

    -9.7361  10.9412  10.9412  10.9412

          k =-0.1000 0.1000-0.1000 (   534 PWs)   bands (ev):

    -9.4738   9.3683  10.5455  10.5455

          k =-0.2000 0.2000-0.2000 (   531 PWs)   bands (ev):

    -8.6927   6.3209   9.7503   9.7503

          k =-0.3000 0.3000-0.3000 (   522 PWs)   bands (ev):

    -7.4200   3.0979   9.0152   9.0152

          k =-0.4000 0.4000-0.4000 (   528 PWs)   bands (ev):

    -5.7636   0.1765   8.5348   8.5348

          k = 0.5000-0.5000 0.5000 (   544 PWs)   bands (ev):

    -4.5332  -1.4885   8.3562   8.3562

          k = 0.0000 0.2000 0.0000 (   532 PWs)   bands (ev):

    -9.3863   9.8599   9.8599  10.0127

          k =-0.1000 0.3000-0.1000 (   534 PWs)   bands (ev):

    -8.7779   7.3659   8.9779   9.6441

          k =-0.2000 0.4000-0.2000 (   525 PWs)   bands (ev):

    -7.6670   4.2541   8.2863   8.8494

          k =-0.3000 0.5000-0.3000 (   526 PWs)   bands (ev):

    -6.1189   1.2474   7.9226   8.0483

          k = 0.6000-0.4000 0.6000 (   524 PWs)   bands (ev):

    -4.5166  -1.0504   7.4713   7.9368

          k = 0.5000-0.3000 0.5000 (   522 PWs)   bands (ev):

    -4.9829  -0.4394   7.2160   8.3071

          k = 0.4000-0.2000 0.4000 (   525 PWs)   bands (ev):

    -6.6759   2.2231   7.3296   8.9709

          k = 0.3000-0.1000 0.3000 (   526 PWs)   bands (ev):

    -8.0918   5.3072   7.8365   9.8098

          k = 0.2000 0.0000 0.2000 (   527 PWs)   bands (ev):

    -9.0382   8.1222   8.8639  10.5030

          k = 0.0000 0.4000 0.0000 (   524 PWs)   bands (ev):

    -8.3440   7.7394   8.0425   8.0425

          k =-0.1000 0.5000-0.1000 (   528 PWs)   bands (ev):

    -7.4043   5.2955   7.3089   7.4773

          k =-0.2000 0.6000-0.2000 (   531 PWs)   bands (ev):

    -6.0021   2.5167   6.4948   6.9428

          k = 0.7000-0.3000 0.7000 (   524 PWs)   bands (ev):

    -4.3310   0.0293   5.5751   6.9913

          k = 0.6000-0.2000 0.6000 (   522 PWs)   bands (ev):

    -3.8941  -0.5055   4.9721   7.4380

          k = 0.5000-0.1000 0.5000 (   527 PWs)   bands (ev):

    -5.4724   1.7028   4.8115   8.2070

          k = 0.4000 0.0000 0.4000 (   530 PWs)   bands (ev):

    -6.9960   4.1579   5.4727   9.1239

          k = 0.0000 0.6000 0.0000 (   524 PWs)   bands (ev):

    -6.6376   4.8068   6.5066   6.5066

          k =-0.1000 0.7000-0.1000 (   527 PWs)   bands (ev):

    -5.3984   2.9481   5.4858   6.0670

          k = 0.8000-0.2000 0.8000 (   524 PWs)   bands (ev):

    -3.7982   0.9502   4.0604   6.0566

          k = 0.7000-0.1000 0.7000 (   515 PWs)   bands (ev):

    -2.6889  -0.2173   2.9991   6.4733

          k = 0.6000-0.0000 0.6000 (   526 PWs)   bands (ev):

    -3.9206   1.0565   2.8851   7.2447

          k = 0.0000 0.8000 0.0000 (   520 PWs)   bands (ev):

    -4.3246   1.6174   5.5301   5.5301

          k = 0.9000-0.1000 0.9000 (   514 PWs)   bands (ev):

    -2.8519   0.0597   4.5472   5.4201

          k = 0.8000 0.0000 0.8000 (   514 PWs)   bands (ev):

    -1.6317  -0.8633   3.0589   5.7490

          k = 0.0000-1.0000 0.0000 (   524 PWs)   bands (ev):

    -1.5135  -1.5135   5.1943   5.1943

          k =-0.2000 0.4000 0.0000 (   531 PWs)   bands (ev):

    -8.0037   6.0480   7.1238   9.1540

          k =-0.3000 0.5000-0.1000 (   525 PWs)   bands (ev):

    -6.7447   3.4198   6.2238   8.3622

          k = 0.6000-0.4000 0.8000 (   528 PWs)   bands (ev):

    -5.1098   0.6773   5.9406   7.5941

          k = 0.5000-0.3000 0.7000 (   526 PWs)   bands (ev):

    -3.8999  -0.9267   5.9014   7.2716

          k =-0.2000 0.6000 0.0000 (   527 PWs)   bands (ev):

    -6.3147   3.9562   5.6533   6.9647

          k = 0.7000-0.3000 0.9000 (   517 PWs)   bands (ev):

    -4.8039   1.8196   4.7236   6.2567

          k = 0.6000-0.2000 0.8000 (   523 PWs)   bands (ev):

    -3.2545  -0.1442   4.0810   6.1119

          k = 0.5000-0.1000 0.7000 (   525 PWs)   bands (ev):

    -3.7380   0.4693   3.6934   6.6114

          k = 0.4000 0.0000 0.6000 (   523 PWs)   bands (ev):

    -5.3727   2.4648   4.1021   7.4878

          k = 0.8000-0.2000 1.0000 (   520 PWs)   bands (ev):

    -4.0433   1.4946   4.7606   5.2601

          k = 0.7000-0.1000 0.9000 (   518 PWs)   bands (ev):

    -2.4443   0.0350   3.4117   5.1284

          k = 0.6000 0.0000 0.8000 (   520 PWs)   bands (ev):

    -2.2721  -0.0524   2.5687   5.6768

          k =-0.2000-1.0000 0.0000 (   512 PWs)   bands (ev):

    -1.3362  -1.3362   4.5820   4.5820

          k = 0.6000-0.2000 1.0000 (   515 PWs)   bands (ev):

    -3.2628   0.8994   3.3910   5.1945

          k = 0.5000-0.1000 0.9000 (   514 PWs)   bands (ev):

    -2.0903  -0.1378   3.0781   4.6885

          k =-0.4000-1.0000 0.0000 (   520 PWs)   bands (ev):

    -0.9940  -0.9940   3.6425   3.6425

     highest occupied level (ev):    10.9412

!    total energy              =     -22.71190275 Ry
     estimated scf accuracy    <       0.00000069 Ry

     The total energy is the sum of the following terms:
     one-electron contribution =       6.52444539 Ry
     hartree contribution      =       2.07512477 Ry
     xc contribution           =      -6.86325294 Ry
     ewald contribution        =     -24.44821997 Ry

     convergence has been achieved in  13 iterations
     Writing meta-gga kinetic term

     Writing all to output data dir ./input_pw/C/7/pwscf.save/
     Writing meta-gga kinetic term
 
     init_run     :      0.59s CPU      1.06s WALL (       1 calls)
     electrons    :      8.61s CPU     17.17s WALL (       1 calls)

     Called by init_run:
     wfcinit      :      0.54s CPU      0.94s WALL (       1 calls)
     potinit      :      0.01s CPU      0.03s WALL (       1 calls)
     hinit0       :      0.03s CPU      0.08s WALL (       1 calls)

     Called by electrons:
     c_bands      :      6.77s CPU     13.70s WALL (      13 calls)
     sum_band     :      1.67s CPU      3.12s WALL (      13 calls)
     v_of_rho     :      0.11s CPU      0.25s WALL (      14 calls)
     mix_rho      :      0.06s CPU      0.12s WALL (      13 calls)

     Called by c_bands:
     init_us_2    :      0.03s CPU      0.05s WALL (    1269 calls)
     init_us_2:cp :      0.03s CPU      0.04s WALL (    1269 calls)
     cegterg      :      6.73s CPU     13.63s WALL (     611 calls)

     Called by *egterg:
     cdiaghg      :      0.05s CPU      0.11s WALL (    1323 calls)
     h_psi        :      7.10s CPU     14.22s WALL (    1370 calls)
     g_psi        :      0.01s CPU      0.02s WALL (     712 calls)

     Called by h_psi:
     h_psi:calbec :      0.01s CPU      0.05s WALL (    1370 calls)
     vloc_psi     :      1.75s CPU      3.51s WALL (    1370 calls)
     add_vuspsi   :      0.02s CPU      0.05s WALL (    1370 calls)
     h_psi_meta   :      5.30s CPU     10.59s WALL (    1370 calls)

     General routines
     calbec       :      0.01s CPU      0.04s WALL (    1370 calls)
     fft          :      0.02s CPU      0.09s WALL (     165 calls)
     ffts         :      0.03s CPU      0.05s WALL (     220 calls)
     fftw         :      7.78s CPU     15.27s WALL (   54408 calls)
     interpolate  :      0.00s CPU      0.00s WALL (      14 calls)
 
     Parallel routines
 
     PWSCF        :      9.24s CPU     18.29s WALL

 
   This run was terminated on:  12:34:37  29Mar2023            

=------------------------------------------------------------------------------=
   JOB DONE.
=------------------------------------------------------------------------------=
