
     Program PWSCF v.7.0 starts on 14Mar2023 at 11:48:15 

     This program is part of the open-source Quantum ESPRESSO suite
     for quantum simulation of materials; please cite
         "P. Giannozzi et al., J. Phys.:Condens. Matter 21 395502 (2009);
         "P. Giannozzi et al., J. Phys.:Condens. Matter 29 465901 (2017);
         "P. Giannozzi et al., J. Chem. Phys. 152 154105 (2020);
          URL http://www.quantum-espresso.org", 
     in publications or presentations arising from this work. More details at
     http://www.quantum-espresso.org/quote

     Parallel version (MPI), running on     1 processors

     MPI processes distributed on     1 nodes
     27292 MiB available memory on the printing compute node when the environment starts
 
     Waiting for input...
     Reading input from standard input
Warning: card &CELL ignored
Warning: card / ignored

     Current dimensions of program PWSCF are:
     Max number of different atomic species (ntypx) = 10
     Max number of k-points (npk) =  40000
     Max angular momentum in pseudopotentials (lmaxx) =  4

     WARNING: the MGGA functional with ID    5 has been 
     read together with other dft terms, but it should 
     stand alone in order to work properly. The other 
     terms will be ignored.

     Subspace diagonalization in iterative solution of the eigenvalue problem:
     a serial algorithm will be used

 
     G-vector sticks info
     --------------------
     sticks:   dense  smooth     PW     G-vecs:    dense   smooth      PW
     Sum         349     349    121                 4285     4285     869
 
     Using Slab Decomposition
 


     bravais-lattice index     =            2
     lattice parameter (alat)  =       7.1460  a.u.
     unit-cell volume          =      91.2282 (a.u.)^3
     number of atoms/cell      =            2
     number of atomic types    =            1
     number of electrons       =         8.00
     number of Kohn-Sham states=            4
     kinetic-energy cutoff     =      50.0000  Ry
     charge density cutoff     =     200.0000  Ry
     scf convergence threshold =      1.0E-06
     mixing beta               =       0.0100
     number of iterations used =            8  local-TF  mixing
     Exchange-correlation= SLA  PW   SCAN SCAN
                           (   0   0   0   0   0 263 267)

     celldm(1)=   7.146000  celldm(2)=   0.000000  celldm(3)=   0.000000
     celldm(4)=   0.000000  celldm(5)=   0.000000  celldm(6)=   0.000000

     crystal axes: (cart. coord. in units of alat)
               a(1) = (  -0.500000   0.000000   0.500000 )  
               a(2) = (   0.000000   0.500000   0.500000 )  
               a(3) = (  -0.500000   0.500000   0.000000 )  

     reciprocal axes: (cart. coord. in units 2 pi/alat)
               b(1) = ( -1.000000 -1.000000  1.000000 )  
               b(2) = (  1.000000  1.000000  1.000000 )  
               b(3) = ( -1.000000  1.000000 -1.000000 )  


     PseudoPot. # 1 for C  read from file:
     ~/Documents/TA/PWDFT.jl/pseudopotentials/scan_upf/C.SCAN.UPF2
     MD5 check sum: Not computed, couldn't open file
     Pseudo is Norm-conserving, Zval =  4.0
     Generated by new atomic code, or converted to UPF format
     Using radial grid of 1389 points,  1 beta functions with: 
                l(1) =   0

     atomic species   valence    mass     pseudopotential
        C              4.00    12.01100     C ( 1.00)

     48 Sym. Ops., with inversion, found (24 have fractional translation)



   Cartesian axes

     site n.     atom                  positions (alat units)
         1           C   tau(   1) = (   0.0000000   0.0000000   0.0000000  )
         2           C   tau(   2) = (   0.2500000   0.2500000   0.2500000  )

     number of k points=    47
                       cart. coord. in units 2pi/alat
        k(    1) = (   0.0000000   0.0000000   0.0000000), wk =   0.0020000
        k(    2) = (  -0.1000000   0.1000000  -0.1000000), wk =   0.0160000
        k(    3) = (  -0.2000000   0.2000000  -0.2000000), wk =   0.0160000
        k(    4) = (  -0.3000000   0.3000000  -0.3000000), wk =   0.0160000
        k(    5) = (  -0.4000000   0.4000000  -0.4000000), wk =   0.0160000
        k(    6) = (   0.5000000  -0.5000000   0.5000000), wk =   0.0080000
        k(    7) = (   0.0000000   0.2000000   0.0000000), wk =   0.0120000
        k(    8) = (  -0.1000000   0.3000000  -0.1000000), wk =   0.0480000
        k(    9) = (  -0.2000000   0.4000000  -0.2000000), wk =   0.0480000
        k(   10) = (  -0.3000000   0.5000000  -0.3000000), wk =   0.0480000
        k(   11) = (   0.6000000  -0.4000000   0.6000000), wk =   0.0480000
        k(   12) = (   0.5000000  -0.3000000   0.5000000), wk =   0.0480000
        k(   13) = (   0.4000000  -0.2000000   0.4000000), wk =   0.0480000
        k(   14) = (   0.3000000  -0.1000000   0.3000000), wk =   0.0480000
        k(   15) = (   0.2000000   0.0000000   0.2000000), wk =   0.0240000
        k(   16) = (   0.0000000   0.4000000   0.0000000), wk =   0.0120000
        k(   17) = (  -0.1000000   0.5000000  -0.1000000), wk =   0.0480000
        k(   18) = (  -0.2000000   0.6000000  -0.2000000), wk =   0.0480000
        k(   19) = (   0.7000000  -0.3000000   0.7000000), wk =   0.0480000
        k(   20) = (   0.6000000  -0.2000000   0.6000000), wk =   0.0480000
        k(   21) = (   0.5000000  -0.1000000   0.5000000), wk =   0.0480000
        k(   22) = (   0.4000000   0.0000000   0.4000000), wk =   0.0240000
        k(   23) = (   0.0000000   0.6000000   0.0000000), wk =   0.0120000
        k(   24) = (  -0.1000000   0.7000000  -0.1000000), wk =   0.0480000
        k(   25) = (   0.8000000  -0.2000000   0.8000000), wk =   0.0480000
        k(   26) = (   0.7000000  -0.1000000   0.7000000), wk =   0.0480000
        k(   27) = (   0.6000000  -0.0000000   0.6000000), wk =   0.0240000
        k(   28) = (   0.0000000   0.8000000   0.0000000), wk =   0.0120000
        k(   29) = (   0.9000000  -0.1000000   0.9000000), wk =   0.0480000
        k(   30) = (   0.8000000   0.0000000   0.8000000), wk =   0.0240000
        k(   31) = (   0.0000000  -1.0000000   0.0000000), wk =   0.0060000
        k(   32) = (  -0.2000000   0.4000000   0.0000000), wk =   0.0480000
        k(   33) = (  -0.3000000   0.5000000  -0.1000000), wk =   0.0960000
        k(   34) = (   0.6000000  -0.4000000   0.8000000), wk =   0.0960000
        k(   35) = (   0.5000000  -0.3000000   0.7000000), wk =   0.0480000
        k(   36) = (  -0.2000000   0.6000000   0.0000000), wk =   0.0480000
        k(   37) = (   0.7000000  -0.3000000   0.9000000), wk =   0.0960000
        k(   38) = (   0.6000000  -0.2000000   0.8000000), wk =   0.0960000
        k(   39) = (   0.5000000  -0.1000000   0.7000000), wk =   0.0960000
        k(   40) = (   0.4000000   0.0000000   0.6000000), wk =   0.0480000
        k(   41) = (   0.8000000  -0.2000000   1.0000000), wk =   0.0480000
        k(   42) = (   0.7000000  -0.1000000   0.9000000), wk =   0.0960000
        k(   43) = (   0.6000000   0.0000000   0.8000000), wk =   0.0480000
        k(   44) = (  -0.2000000  -1.0000000   0.0000000), wk =   0.0240000
        k(   45) = (   0.6000000  -0.2000000   1.0000000), wk =   0.0480000
        k(   46) = (   0.5000000  -0.1000000   0.9000000), wk =   0.0480000
        k(   47) = (  -0.4000000  -1.0000000   0.0000000), wk =   0.0240000

     Dense  grid:     4285 G-vectors     FFT dimensions: (  24,  24,  24)

     Estimated max dynamical RAM per process >       8.06 MB

     WARNING: libxc functional with ID  263 depends
      on external parameters: check the user_guide of
      QE if you need to modify them or to check their
      default values.

     Initial potential from superposition of free atoms

     starting charge       7.9999, renormalised to       8.0000
     Starting wfcs are    8 randomized atomic wfcs

     total cpu time spent up to now is        1.3 secs

     Self-consistent Calculation

     iteration #  1     ecut=    50.00 Ry     beta= 0.01
     Davidson diagonalization with overlap
     ethr =  1.00E-02,  avg # of iterations =  2.0

     total cpu time spent up to now is        2.6 secs

     total energy              =     -22.58542254 Ry
     estimated scf accuracy    <       1.65935011 Ry

     iteration #  2     ecut=    50.00 Ry     beta= 0.01
     Davidson diagonalization with overlap
     ethr =  1.00E-02,  avg # of iterations =  1.0

     total cpu time spent up to now is        3.6 secs

     total energy              =     -22.43007869 Ry
     estimated scf accuracy    <       1.66930169 Ry

     iteration #  3     ecut=    50.00 Ry     beta= 0.01
     Davidson diagonalization with overlap
     ethr =  1.00E-02,  avg # of iterations =  1.0

     total cpu time spent up to now is        4.6 secs

     total energy              =     -22.67869966 Ry
     estimated scf accuracy    <       4.61314555 Ry

     iteration #  4     ecut=    50.00 Ry     beta= 0.01
     Davidson diagonalization with overlap
     ethr =  1.00E-02,  avg # of iterations =  1.0

     total cpu time spent up to now is        5.5 secs

     total energy              =     -22.69951183 Ry
     estimated scf accuracy    <       0.00979475 Ry

     iteration #  5     ecut=    50.00 Ry     beta= 0.01
     Davidson diagonalization with overlap
     ethr =  1.22E-04,  avg # of iterations =  1.2

     total cpu time spent up to now is        6.8 secs

     total energy              =     -22.69991478 Ry
     estimated scf accuracy    <       0.01155264 Ry

     iteration #  6     ecut=    50.00 Ry     beta= 0.01
     Davidson diagonalization with overlap
     ethr =  1.22E-04,  avg # of iterations =  1.0

     total cpu time spent up to now is        8.1 secs

     total energy              =     -22.69758349 Ry
     estimated scf accuracy    <       0.00923822 Ry

     iteration #  7     ecut=    50.00 Ry     beta= 0.01
     Davidson diagonalization with overlap
     ethr =  1.15E-04,  avg # of iterations =  1.0

     total cpu time spent up to now is        9.4 secs

     total energy              =     -22.69791442 Ry
     estimated scf accuracy    <       0.00097164 Ry

     iteration #  8     ecut=    50.00 Ry     beta= 0.01
     Davidson diagonalization with overlap
     ethr =  1.21E-05,  avg # of iterations =  2.0

     total cpu time spent up to now is       11.0 secs

     total energy              =     -22.69818937 Ry
     estimated scf accuracy    <       0.00420788 Ry

     iteration #  9     ecut=    50.00 Ry     beta= 0.01
     Davidson diagonalization with overlap
     ethr =  1.21E-05,  avg # of iterations =  1.0

     total cpu time spent up to now is       12.2 secs

     total energy              =     -22.69805655 Ry
     estimated scf accuracy    <       0.00680443 Ry

     iteration # 10     ecut=    50.00 Ry     beta= 0.01
     Davidson diagonalization with overlap
     ethr =  1.21E-05,  avg # of iterations =  1.0

     total cpu time spent up to now is       13.4 secs

     total energy              =     -22.69810859 Ry
     estimated scf accuracy    <       0.00011256 Ry

     iteration # 11     ecut=    50.00 Ry     beta= 0.01
     Davidson diagonalization with overlap
     ethr =  1.41E-06,  avg # of iterations =  1.0

     total cpu time spent up to now is       14.3 secs

     total energy              =     -22.69811196 Ry
     estimated scf accuracy    <       0.00004699 Ry

     iteration # 12     ecut=    50.00 Ry     beta= 0.01
     Davidson diagonalization with overlap
     ethr =  5.87E-07,  avg # of iterations =  1.0

     total cpu time spent up to now is       15.2 secs

     total energy              =     -22.69811315 Ry
     estimated scf accuracy    <       0.00001169 Ry

     iteration # 13     ecut=    50.00 Ry     beta= 0.01
     Davidson diagonalization with overlap
     ethr =  1.46E-07,  avg # of iterations =  1.1

     total cpu time spent up to now is       16.1 secs

     total energy              =     -22.69811479 Ry
     estimated scf accuracy    <       0.00000735 Ry

     iteration # 14     ecut=    50.00 Ry     beta= 0.01
     Davidson diagonalization with overlap
     ethr =  9.19E-08,  avg # of iterations =  1.0

     total cpu time spent up to now is       17.1 secs

     End of self-consistent calculation

          k = 0.0000 0.0000 0.0000 (   537 PWs)   bands (ev):

    -9.8915  10.3129  10.3129  10.3129

          k =-0.1000 0.1000-0.1000 (   537 PWs)   bands (ev):

    -9.6364   8.7762   9.9332   9.9332

          k =-0.2000 0.2000-0.2000 (   552 PWs)   bands (ev):

    -8.8787   5.7936   9.1611   9.1611

          k =-0.3000 0.3000-0.3000 (   555 PWs)   bands (ev):

    -7.6464   2.6586   8.4426   8.4426

          k =-0.4000 0.4000-0.4000 (   547 PWs)   bands (ev):

    -6.0499  -0.1654   7.9795   7.9795

          k = 0.5000-0.5000 0.5000 (   544 PWs)   bands (ev):

    -4.8931  -1.7420   7.8183   7.8183

          k = 0.0000 0.2000 0.0000 (   540 PWs)   bands (ev):

    -9.5515   9.2781   9.2781   9.3688

          k =-0.1000 0.3000-0.1000 (   551 PWs)   bands (ev):

    -8.9610   6.8061   8.4266   9.0302

          k =-0.2000 0.4000-0.2000 (   549 PWs)   bands (ev):

    -7.8841   3.7800   7.7505   8.2624

          k =-0.3000 0.5000-0.3000 (   546 PWs)   bands (ev):

    -6.3888   0.8630   7.4017   7.4918

          k = 0.6000-0.4000 0.6000 (   547 PWs)   bands (ev):

    -4.8665  -1.3353   6.9387   7.4070

          k = 0.5000-0.3000 0.5000 (   551 PWs)   bands (ev):

    -5.3040  -0.7583   6.6917   7.7603

          k = 0.4000-0.2000 0.4000 (   546 PWs)   bands (ev):

    -6.9262   1.8080   6.8086   8.4067

          k = 0.3000-0.1000 0.3000 (   548 PWs)   bands (ev):

    -8.2956   4.8026   7.3024   9.2057

          k = 0.2000 0.0000 0.2000 (   545 PWs)   bands (ev):

    -9.2137   7.5298   8.3160   9.8849

          k = 0.0000 0.4000 0.0000 (   540 PWs)   bands (ev):

    -8.5394   7.1019   7.5235   7.5235

          k =-0.1000 0.5000-0.1000 (   551 PWs)   bands (ev):

    -7.6280   4.7612   6.8103   6.9368

          k =-0.2000 0.6000-0.2000 (   549 PWs)   bands (ev):

    -6.2711   2.0729   5.9812   6.4571

          k = 0.7000-0.3000 0.7000 (   547 PWs)   bands (ev):

    -4.6691  -0.3239   5.0946   6.5024

          k = 0.6000-0.2000 0.6000 (   540 PWs)   bands (ev):

    -4.2601  -0.8250   4.5157   6.9335

          k = 0.5000-0.1000 0.5000 (   543 PWs)   bands (ev):

    -5.7622   1.2846   4.3731   7.6727

          k = 0.4000 0.0000 0.4000 (   550 PWs)   bands (ev):

    -7.2339   3.6495   5.0372   8.5489

          k = 0.0000 0.6000 0.0000 (   552 PWs)   bands (ev):

    -6.8839   4.2273   6.0403   6.0403

          k =-0.1000 0.7000-0.1000 (   543 PWs)   bands (ev):

    -5.6823   2.4254   5.0557   5.6159

          k = 0.8000-0.2000 0.8000 (   544 PWs)   bands (ev):

    -4.1396   0.4960   3.6740   5.6051

          k = 0.7000-0.1000 0.7000 (   545 PWs)   bands (ev):

    -3.0964  -0.6044   2.6445   6.0065

          k = 0.6000-0.0000 0.6000 (   542 PWs)   bands (ev):

    -4.2686   0.6076   2.5515   6.7507

          k = 0.0000 0.8000 0.0000 (   556 PWs)   bands (ev):

    -4.6406   1.1232   5.0938   5.0938

          k = 0.9000-0.1000 0.9000 (   546 PWs)   bands (ev):

    -3.2142  -0.3933   4.1538   4.9915

          k = 0.8000 0.0000 0.8000 (   542 PWs)   bands (ev):

    -2.0626  -1.2769   2.7377   5.3102

          k = 0.0000-1.0000 0.0000 (   524 PWs)   bands (ev):

    -1.9108  -1.9108   4.7812   4.7812

          k =-0.2000 0.4000 0.0000 (   548 PWs)   bands (ev):

    -8.2097   5.4963   6.6345   8.5726

          k =-0.3000 0.5000-0.1000 (   543 PWs)   bands (ev):

    -6.9905   2.9550   5.7419   7.8125

          k = 0.6000-0.4000 0.8000 (   546 PWs)   bands (ev):

    -5.4151   0.3034   5.4546   7.0822

          k = 0.5000-0.3000 0.7000 (   548 PWs)   bands (ev):

    -4.2756  -1.2187   5.4084   6.7716

          k =-0.2000 0.6000 0.0000 (   543 PWs)   bands (ev):

    -6.5718   3.4252   5.2182   6.4727

          k = 0.7000-0.3000 0.9000 (   549 PWs)   bands (ev):

    -5.1125   1.3570   4.2916   5.7985

          k = 0.6000-0.2000 0.8000 (   545 PWs)   bands (ev):

    -3.6370  -0.5087   3.6589   5.6638

          k = 0.5000-0.1000 0.7000 (   541 PWs)   bands (ev):

    -4.0946   0.0735   3.2985   6.1409

          k = 0.4000 0.0000 0.6000 (   548 PWs)   bands (ev):

    -5.6633   1.9798   3.7155   6.9764

          k = 0.8000-0.2000 1.0000 (   537 PWs)   bands (ev):

    -4.3698   0.9984   4.3587   4.8497

          k = 0.7000-0.1000 0.9000 (   541 PWs)   bands (ev):

    -2.8347  -0.4192   3.0702   4.7141

          k = 0.6000 0.0000 0.8000 (   539 PWs)   bands (ev):

    -2.6871  -0.4885   2.2657   5.2393

          k =-0.2000-1.0000 0.0000 (   540 PWs)   bands (ev):

    -1.7494  -1.7494   4.1871   4.1871

          k = 0.6000-0.2000 1.0000 (   540 PWs)   bands (ev):

    -3.6275   0.4224   3.0385   4.7861

          k = 0.5000-0.1000 0.9000 (   540 PWs)   bands (ev):

    -2.5120  -0.5694   2.7376   4.2990

          k =-0.4000-1.0000 0.0000 (   534 PWs)   bands (ev):

    -1.4355  -1.4355   3.3006   3.3006

     highest occupied level (ev):    10.3129

!    total energy              =     -22.69811496 Ry
     estimated scf accuracy    <       0.00000032 Ry

     The total energy is the sum of the following terms:
     one-electron contribution =       6.10762171 Ry
     hartree contribution      =       2.11765456 Ry
     xc contribution           =      -6.80114973 Ry
     ewald contribution        =     -24.12224149 Ry

     convergence has been achieved in  14 iterations
     Writing meta-gga kinetic term

     Writing all to output data dir ./input_pw/C/7/pwscf.save/
     Writing meta-gga kinetic term
 
     init_run     :      0.54s CPU      1.30s WALL (       1 calls)
     electrons    :      9.12s CPU     15.77s WALL (       1 calls)

     Called by init_run:
     wfcinit      :      0.50s CPU      1.17s WALL (       1 calls)
     potinit      :      0.01s CPU      0.02s WALL (       1 calls)
     hinit0       :      0.03s CPU      0.08s WALL (       1 calls)

     Called by electrons:
     c_bands      :      7.16s CPU     12.47s WALL (      14 calls)
     sum_band     :      1.79s CPU      2.96s WALL (      14 calls)
     v_of_rho     :      0.11s CPU      0.25s WALL (      15 calls)
     mix_rho      :      0.06s CPU      0.09s WALL (      14 calls)

     Called by c_bands:
     init_us_2    :      0.03s CPU      0.06s WALL (    1363 calls)
     init_us_2:cp :      0.03s CPU      0.06s WALL (    1363 calls)
     cegterg      :      7.12s CPU     12.42s WALL (     658 calls)

     Called by *egterg:
     cdiaghg      :      0.06s CPU      0.10s WALL (    1420 calls)
     h_psi        :      7.43s CPU     13.29s WALL (    1467 calls)
     g_psi        :      0.01s CPU      0.01s WALL (     762 calls)

     Called by h_psi:
     h_psi:calbec :      0.01s CPU      0.02s WALL (    1467 calls)
     vloc_psi     :      1.83s CPU      3.32s WALL (    1467 calls)
     add_vuspsi   :      0.02s CPU      0.07s WALL (    1467 calls)
     h_psi_meta   :      5.54s CPU      9.87s WALL (    1467 calls)

     General routines
     calbec       :      0.01s CPU      0.01s WALL (    1467 calls)
     fft          :      0.02s CPU      0.07s WALL (     177 calls)
     ffts         :      0.03s CPU      0.05s WALL (     239 calls)
     fftw         :      8.18s CPU     14.48s WALL (   57984 calls)
     interpolate  :      0.00s CPU      0.00s WALL (      15 calls)
 
     Parallel routines
 
     PWSCF        :      9.69s CPU     17.12s WALL

 
   This run was terminated on:  11:48:33  14Mar2023            

=------------------------------------------------------------------------------=
   JOB DONE.
=------------------------------------------------------------------------------=
