
     Program PWSCF v.7.0 starts on 29Mar2023 at 11:31: 6 

     This program is part of the open-source Quantum ESPRESSO suite
     for quantum simulation of materials; please cite
         "P. Giannozzi et al., J. Phys.:Condens. Matter 21 395502 (2009);
         "P. Giannozzi et al., J. Phys.:Condens. Matter 29 465901 (2017);
         "P. Giannozzi et al., J. Chem. Phys. 152 154105 (2020);
          URL http://www.quantum-espresso.org", 
     in publications or presentations arising from this work. More details at
     http://www.quantum-espresso.org/quote

     Parallel version (MPI), running on     1 processors

     MPI processes distributed on     1 nodes
     23673 MiB available memory on the printing compute node when the environment starts
 
     Waiting for input...
     Reading input from standard input
Warning: card &CELL ignored
Warning: card / ignored

     Current dimensions of program PWSCF are:
     Max number of different atomic species (ntypx) = 10
     Max number of k-points (npk) =  40000
     Max angular momentum in pseudopotentials (lmaxx) =  4
     file Si.SCAN.UPF2: wavefunction(s)  0D renormalized

     WARNING: the MGGA functional with ID    5 has been 
     read together with other dft terms, but it should 
     stand alone in order to work properly. The other 
     terms will be ignored.

     Subspace diagonalization in iterative solution of the eigenvalue problem:
     a serial algorithm will be used

 
     G-vector sticks info
     --------------------
     sticks:   dense  smooth     PW     G-vecs:    dense   smooth      PW
     Sum         595     595    199                 9841     9841    1807
 
     Using Slab Decomposition
 


     bravais-lattice index     =            2
     lattice parameter (alat)  =       9.3703  a.u.
     unit-cell volume          =     205.6853 (a.u.)^3
     number of atoms/cell      =            2
     number of atomic types    =            1
     number of electrons       =         8.00
     number of Kohn-Sham states=            4
     kinetic-energy cutoff     =      50.0000  Ry
     charge density cutoff     =     200.0000  Ry
     scf convergence threshold =      1.0E-06
     mixing beta               =       0.0100
     number of iterations used =            8  local-TF  mixing
     Exchange-correlation= SLA  PW   SCAN SCAN
                           (   0   0   0   0   0 263 267)

     celldm(1)=   9.370320  celldm(2)=   0.000000  celldm(3)=   0.000000
     celldm(4)=   0.000000  celldm(5)=   0.000000  celldm(6)=   0.000000

     crystal axes: (cart. coord. in units of alat)
               a(1) = (  -0.500000   0.000000   0.500000 )  
               a(2) = (   0.000000   0.500000   0.500000 )  
               a(3) = (  -0.500000   0.500000   0.000000 )  

     reciprocal axes: (cart. coord. in units 2 pi/alat)
               b(1) = ( -1.000000 -1.000000  1.000000 )  
               b(2) = (  1.000000  1.000000  1.000000 )  
               b(3) = ( -1.000000  1.000000 -1.000000 )  


     PseudoPot. # 1 for Si read from file:
     ~/Documents/TA/PWDFT.jl/pseudopotentials/scan_upf/Si.SCAN.UPF2
     MD5 check sum: Not computed, couldn't open file
     Pseudo is Norm-conserving, Zval =  4.0
     Generated by new atomic code, or converted to UPF format
     Using radial grid of 1475 points,  2 beta functions with: 
                l(1) =   0
                l(2) =   1

     atomic species   valence    mass     pseudopotential
        Si             4.00    28.08550     Si( 1.00)

     48 Sym. Ops., with inversion, found (24 have fractional translation)



   Cartesian axes

     site n.     atom                  positions (alat units)
         1           Si  tau(   1) = (   0.0000000   0.0000000   0.0000000  )
         2           Si  tau(   2) = (   0.2500000   0.2500000   0.2500000  )

     number of k points=    47
                       cart. coord. in units 2pi/alat
        k(    1) = (   0.0000000   0.0000000   0.0000000), wk =   0.0020000
        k(    2) = (  -0.1000000   0.1000000  -0.1000000), wk =   0.0160000
        k(    3) = (  -0.2000000   0.2000000  -0.2000000), wk =   0.0160000
        k(    4) = (  -0.3000000   0.3000000  -0.3000000), wk =   0.0160000
        k(    5) = (  -0.4000000   0.4000000  -0.4000000), wk =   0.0160000
        k(    6) = (   0.5000000  -0.5000000   0.5000000), wk =   0.0080000
        k(    7) = (   0.0000000   0.2000000   0.0000000), wk =   0.0120000
        k(    8) = (  -0.1000000   0.3000000  -0.1000000), wk =   0.0480000
        k(    9) = (  -0.2000000   0.4000000  -0.2000000), wk =   0.0480000
        k(   10) = (  -0.3000000   0.5000000  -0.3000000), wk =   0.0480000
        k(   11) = (   0.6000000  -0.4000000   0.6000000), wk =   0.0480000
        k(   12) = (   0.5000000  -0.3000000   0.5000000), wk =   0.0480000
        k(   13) = (   0.4000000  -0.2000000   0.4000000), wk =   0.0480000
        k(   14) = (   0.3000000  -0.1000000   0.3000000), wk =   0.0480000
        k(   15) = (   0.2000000   0.0000000   0.2000000), wk =   0.0240000
        k(   16) = (   0.0000000   0.4000000   0.0000000), wk =   0.0120000
        k(   17) = (  -0.1000000   0.5000000  -0.1000000), wk =   0.0480000
        k(   18) = (  -0.2000000   0.6000000  -0.2000000), wk =   0.0480000
        k(   19) = (   0.7000000  -0.3000000   0.7000000), wk =   0.0480000
        k(   20) = (   0.6000000  -0.2000000   0.6000000), wk =   0.0480000
        k(   21) = (   0.5000000  -0.1000000   0.5000000), wk =   0.0480000
        k(   22) = (   0.4000000   0.0000000   0.4000000), wk =   0.0240000
        k(   23) = (   0.0000000   0.6000000   0.0000000), wk =   0.0120000
        k(   24) = (  -0.1000000   0.7000000  -0.1000000), wk =   0.0480000
        k(   25) = (   0.8000000  -0.2000000   0.8000000), wk =   0.0480000
        k(   26) = (   0.7000000  -0.1000000   0.7000000), wk =   0.0480000
        k(   27) = (   0.6000000  -0.0000000   0.6000000), wk =   0.0240000
        k(   28) = (   0.0000000   0.8000000   0.0000000), wk =   0.0120000
        k(   29) = (   0.9000000  -0.1000000   0.9000000), wk =   0.0480000
        k(   30) = (   0.8000000   0.0000000   0.8000000), wk =   0.0240000
        k(   31) = (   0.0000000  -1.0000000   0.0000000), wk =   0.0060000
        k(   32) = (  -0.2000000   0.4000000   0.0000000), wk =   0.0480000
        k(   33) = (  -0.3000000   0.5000000  -0.1000000), wk =   0.0960000
        k(   34) = (   0.6000000  -0.4000000   0.8000000), wk =   0.0960000
        k(   35) = (   0.5000000  -0.3000000   0.7000000), wk =   0.0480000
        k(   36) = (  -0.2000000   0.6000000   0.0000000), wk =   0.0480000
        k(   37) = (   0.7000000  -0.3000000   0.9000000), wk =   0.0960000
        k(   38) = (   0.6000000  -0.2000000   0.8000000), wk =   0.0960000
        k(   39) = (   0.5000000  -0.1000000   0.7000000), wk =   0.0960000
        k(   40) = (   0.4000000   0.0000000   0.6000000), wk =   0.0480000
        k(   41) = (   0.8000000  -0.2000000   1.0000000), wk =   0.0480000
        k(   42) = (   0.7000000  -0.1000000   0.9000000), wk =   0.0960000
        k(   43) = (   0.6000000   0.0000000   0.8000000), wk =   0.0480000
        k(   44) = (  -0.2000000  -1.0000000   0.0000000), wk =   0.0240000
        k(   45) = (   0.6000000  -0.2000000   1.0000000), wk =   0.0480000
        k(   46) = (   0.5000000  -0.1000000   0.9000000), wk =   0.0480000
        k(   47) = (  -0.4000000  -1.0000000   0.0000000), wk =   0.0240000

     Dense  grid:     9841 G-vectors     FFT dimensions: (  32,  32,  32)

     Estimated max dynamical RAM per process >      18.74 MB

     WARNING: libxc functional with ID  263 depends
      on external parameters: check the user_guide of
      QE if you need to modify them or to check their
      default values.

     Initial potential from superposition of free atoms

     starting charge       7.9990, renormalised to       8.0000
     Starting wfcs are   18 randomized atomic wfcs

     total cpu time spent up to now is        3.9 secs

     Self-consistent Calculation

     iteration #  1     ecut=    50.00 Ry     beta= 0.01
     Davidson diagonalization with overlap
     ethr =  1.00E-02,  avg # of iterations =  2.0

     total cpu time spent up to now is        6.7 secs

     total energy              =     -15.54832534 Ry
     estimated scf accuracy    <       0.09020723 Ry

     iteration #  2     ecut=    50.00 Ry     beta= 0.01
     Davidson diagonalization with overlap
     ethr =  1.13E-03,  avg # of iterations =  1.1

     total cpu time spent up to now is        9.0 secs

     total energy              =     -15.59988598 Ry
     estimated scf accuracy    <       0.09358832 Ry

     iteration #  3     ecut=    50.00 Ry     beta= 0.01
     Davidson diagonalization with overlap
     ethr =  1.13E-03,  avg # of iterations =  2.0

     total cpu time spent up to now is       11.7 secs

     total energy              =     -15.66952336 Ry
     estimated scf accuracy    <       0.16800485 Ry

     iteration #  4     ecut=    50.00 Ry     beta= 0.01
     Davidson diagonalization with overlap
     ethr =  1.13E-03,  avg # of iterations =  1.7

     total cpu time spent up to now is       14.1 secs

     total energy              =     -15.67513669 Ry
     estimated scf accuracy    <       0.02200031 Ry

     iteration #  5     ecut=    50.00 Ry     beta= 0.01
     Davidson diagonalization with overlap
     ethr =  2.75E-04,  avg # of iterations =  1.0

     total cpu time spent up to now is       16.1 secs

     total energy              =     -15.67570193 Ry
     estimated scf accuracy    <       0.01303972 Ry

     iteration #  6     ecut=    50.00 Ry     beta= 0.01
     Davidson diagonalization with overlap
     ethr =  1.63E-04,  avg # of iterations =  1.0

     total cpu time spent up to now is       18.4 secs

     total energy              =     -15.67234206 Ry
     estimated scf accuracy    <       0.01257328 Ry

     iteration #  7     ecut=    50.00 Ry     beta= 0.01
     Davidson diagonalization with overlap
     ethr =  1.57E-04,  avg # of iterations =  2.0

     total cpu time spent up to now is       21.0 secs

     total energy              =     -15.67387127 Ry
     estimated scf accuracy    <       0.00025061 Ry

     iteration #  8     ecut=    50.00 Ry     beta= 0.01
     Davidson diagonalization with overlap
     ethr =  3.13E-06,  avg # of iterations =  2.4

     total cpu time spent up to now is       24.1 secs

     total energy              =     -15.67381075 Ry
     estimated scf accuracy    <       0.00029343 Ry

     iteration #  9     ecut=    50.00 Ry     beta= 0.01
     Davidson diagonalization with overlap
     ethr =  3.13E-06,  avg # of iterations =  1.0

     total cpu time spent up to now is       25.6 secs

     total energy              =     -15.67354208 Ry
     estimated scf accuracy    <       0.00013340 Ry

     iteration # 10     ecut=    50.00 Ry     beta= 0.01
     Davidson diagonalization with overlap
     ethr =  1.67E-06,  avg # of iterations =  2.0

     total cpu time spent up to now is       28.6 secs

     total energy              =     -15.67357737 Ry
     estimated scf accuracy    <       0.00001386 Ry

     iteration # 11     ecut=    50.00 Ry     beta= 0.01
     Davidson diagonalization with overlap
     ethr =  1.73E-07,  avg # of iterations =  3.1

     total cpu time spent up to now is       31.9 secs

     total energy              =     -15.67360360 Ry
     estimated scf accuracy    <       0.00000265 Ry

     iteration # 12     ecut=    50.00 Ry     beta= 0.01
     Davidson diagonalization with overlap
     ethr =  3.31E-08,  avg # of iterations =  2.4

     total cpu time spent up to now is       34.6 secs

     total energy              =     -15.67358478 Ry
     estimated scf accuracy    <       0.00000300 Ry

     iteration # 13     ecut=    50.00 Ry     beta= 0.01
     Davidson diagonalization with overlap
     ethr =  3.31E-08,  avg # of iterations =  3.2

     total cpu time spent up to now is       38.2 secs

     End of self-consistent calculation

          k = 0.0000 0.0000 0.0000 (  1243 PWs)   bands (ev):

    -5.2396   9.2133   9.2133   9.2133

          k =-0.1000 0.1000-0.1000 (  1242 PWs)   bands (ev):

    -5.0684   7.9675   8.9601   8.9601

          k =-0.2000 0.2000-0.2000 (  1239 PWs)   bands (ev):

    -4.5602   5.7464   8.4887   8.4887

          k =-0.3000 0.3000-0.3000 (  1233 PWs)   bands (ev):

    -3.7389   3.5112   8.0868   8.0868

          k =-0.4000 0.4000-0.4000 (  1221 PWs)   bands (ev):

    -2.6959   1.5745   7.8386   7.8386

          k = 0.5000-0.5000 0.5000 (  1224 PWs)   bands (ev):

    -1.9877   0.5625   7.7562   7.7562

          k = 0.0000 0.2000 0.0000 (  1239 PWs)   bands (ev):

    -5.0111   8.4401   8.4401   8.4619

          k =-0.1000 0.3000-0.1000 (  1241 PWs)   bands (ev):

    -4.6143   6.5234   7.8820   8.3083

          k =-0.2000 0.4000-0.2000 (  1227 PWs)   bands (ev):

    -3.8939   4.3132   7.4920   7.7954

          k =-0.3000 0.5000-0.3000 (  1223 PWs)   bands (ev):

    -2.9051   2.2713   7.2788   7.3296

          k = 0.6000-0.4000 0.6000 (  1219 PWs)   bands (ev):

    -1.9438   0.8156   6.8891   7.3994

          k = 0.5000-0.3000 0.5000 (  1222 PWs)   bands (ev):

    -2.2105   1.1836   6.6859   7.6779

          k = 0.4000-0.2000 0.4000 (  1233 PWs)   bands (ev):

    -3.2587   2.9214   6.7093   8.1186

          k = 0.3000-0.1000 0.3000 (  1232 PWs)   bands (ev):

    -4.1693   5.0451   6.9886   8.6369

          k = 0.2000 0.0000 0.2000 (  1241 PWs)   bands (ev):

    -4.7844   7.0604   7.6727   9.0359

          k = 0.0000 0.4000 0.0000 (  1243 PWs)   bands (ev):

    -4.3298   6.7371   7.2552   7.2552

          k =-0.1000 0.5000-0.1000 (  1238 PWs)   bands (ev):

    -3.7163   5.0517   6.7578   6.8139

          k =-0.2000 0.6000-0.2000 (  1244 PWs)   bands (ev):

    -2.8086   3.1131   6.0134   6.6238

          k = 0.7000-0.3000 0.7000 (  1225 PWs)   bands (ev):

    -1.7621   1.4589   5.3624   6.6993

          k = 0.6000-0.2000 0.6000 (  1224 PWs)   bands (ev):

    -1.5109   1.1308   4.9407   7.0272

          k = 0.5000-0.1000 0.5000 (  1226 PWs)   bands (ev):

    -2.4780   2.5523   4.8224   7.5625

          k = 0.4000 0.0000 0.4000 (  1235 PWs)   bands (ev):

    -3.4575   4.2302   5.2782   8.1927

          k = 0.0000 0.6000 0.0000 (  1238 PWs)   bands (ev):

    -3.2103   4.6054   6.3041   6.3041

          k =-0.1000 0.7000-0.1000 (  1235 PWs)   bands (ev):

    -2.3977   3.3122   5.4630   6.0464

          k = 0.8000-0.2000 0.8000 (  1226 PWs)   bands (ev):

    -1.3631   1.9487   4.3535   6.0652

          k = 0.7000-0.1000 0.7000 (  1226 PWs)   bands (ev):

    -0.6957   1.2050   3.6040   6.3563

          k = 0.6000-0.0000 0.6000 (  1220 PWs)   bands (ev):

    -1.4738   2.0304   3.5381   6.8870

          k = 0.0000 0.8000 0.0000 (  1238 PWs)   bands (ev):

    -1.6814   2.3532   5.7105   5.7105

          k = 0.9000-0.1000 0.9000 (  1219 PWs)   bands (ev):

    -0.7056   1.2719   4.8689   5.6517

          k = 0.8000 0.0000 0.8000 (  1230 PWs)   bands (ev):

     0.0497   0.6657   3.7302   5.8742

          k = 0.0000-1.0000 0.0000 (  1234 PWs)   bands (ev):

     0.2045   0.2045   5.5098   5.5098

          k =-0.2000 0.4000 0.0000 (  1238 PWs)   bands (ev):

    -4.1096   5.5836   6.4796   8.0740

          k =-0.3000 0.5000-0.1000 (  1240 PWs)   bands (ev):

    -3.2937   3.7357   5.8529   7.5461

          k = 0.6000-0.4000 0.8000 (  1229 PWs)   bands (ev):

    -2.2550   1.8856   5.6696   7.0367

          k = 0.5000-0.3000 0.7000 (  1216 PWs)   bands (ev):

    -1.5424   0.8888   5.6400   6.8259

          k =-0.2000 0.6000 0.0000 (  1238 PWs)   bands (ev):

    -3.0042   4.0655   5.5339   6.5091

          k = 0.7000-0.3000 0.9000 (  1229 PWs)   bands (ev):

    -2.0257   2.5856   4.8059   6.0160

          k = 0.6000-0.2000 0.8000 (  1216 PWs)   bands (ev):

    -1.0645   1.3065   4.3184   5.9401

          k = 0.5000-0.1000 0.7000 (  1227 PWs)   bands (ev):

    -1.3624   1.6931   4.0594   6.2868

          k = 0.4000 0.0000 0.6000 (  1228 PWs)   bands (ev):

    -2.4030   3.0240   4.3600   6.9060

          k = 0.8000-0.2000 1.0000 (  1230 PWs)   bands (ev):

    -1.5053   2.2712   4.9826   5.3604

          k = 0.7000-0.1000 0.9000 (  1220 PWs)   bands (ev):

    -0.4683   1.2601   3.9535   5.2582

          k = 0.6000 0.0000 0.8000 (  1221 PWs)   bands (ev):

    -0.3984   1.2282   3.3632   5.6305

          k =-0.2000-1.0000 0.0000 (  1210 PWs)   bands (ev):

     0.3101   0.3101   4.8943   4.8943

          k = 0.6000-0.2000 1.0000 (  1219 PWs)   bands (ev):

    -1.0200   1.8737   3.9152   5.1907

          k = 0.5000-0.1000 0.9000 (  1222 PWs)   bands (ev):

    -0.2736   1.1769   3.6893   4.8384

          k =-0.4000-1.0000 0.0000 (  1224 PWs)   bands (ev):

     0.5106   0.5106   4.1174   4.1174

     highest occupied level (ev):     9.2133

!    total energy              =     -15.67359037 Ry
     estimated scf accuracy    <       0.00000018 Ry

     The total energy is the sum of the following terms:
     one-electron contribution =       6.98266405 Ry
     hartree contribution      =       0.89852720 Ry
     xc contribution           =      -5.15866165 Ry
     ewald contribution        =     -18.39611997 Ry

     convergence has been achieved in  13 iterations
     Writing meta-gga kinetic term

     Writing all to output data dir ./input_pw/Si/4/pwscf.save/
     Writing meta-gga kinetic term
 
     init_run     :      1.80s CPU      3.83s WALL (       1 calls)
     electrons    :     16.68s CPU     34.32s WALL (       1 calls)

     Called by init_run:
     wfcinit      :      1.71s CPU      3.67s WALL (       1 calls)
     potinit      :      0.02s CPU      0.06s WALL (       1 calls)
     hinit0       :      0.07s CPU      0.08s WALL (       1 calls)

     Called by electrons:
     c_bands      :     13.54s CPU     28.24s WALL (      13 calls)
     sum_band     :      2.74s CPU      5.21s WALL (      13 calls)
     v_of_rho     :      0.27s CPU      0.62s WALL (      14 calls)
     mix_rho      :      0.13s CPU      0.28s WALL (      13 calls)

     Called by c_bands:
     init_us_2    :      0.20s CPU      0.38s WALL (    1269 calls)
     init_us_2:cp :      0.19s CPU      0.37s WALL (    1269 calls)
     cegterg      :     13.30s CPU     27.73s WALL (     611 calls)

     Called by *egterg:
     cdiaghg      :      0.11s CPU      0.22s WALL (    1782 calls)
     h_psi        :     14.50s CPU     30.39s WALL (    1829 calls)
     g_psi        :      0.02s CPU      0.03s WALL (    1171 calls)

     Called by h_psi:
     h_psi:calbec :      0.09s CPU      0.20s WALL (    1829 calls)
     vloc_psi     :      3.55s CPU      7.30s WALL (    1829 calls)
     add_vuspsi   :      0.07s CPU      0.14s WALL (    1829 calls)
     h_psi_meta   :     10.75s CPU     22.67s WALL (    1829 calls)

     General routines
     calbec       :      0.08s CPU      0.20s WALL (    1829 calls)
     fft          :      0.03s CPU      0.14s WALL (     165 calls)
     ffts         :      0.04s CPU      0.07s WALL (     206 calls)
     fftw         :     13.88s CPU     29.04s WALL (   69536 calls)
     interpolate  :      0.00s CPU      0.00s WALL (      14 calls)
 
     Parallel routines
 
     PWSCF        :     18.52s CPU     38.24s WALL

 
   This run was terminated on:  11:31:44  29Mar2023            

=------------------------------------------------------------------------------=
   JOB DONE.
=------------------------------------------------------------------------------=
