
     Program PWSCF v.7.0 starts on 21Feb2023 at 12:49:40 

     This program is part of the open-source Quantum ESPRESSO suite
     for quantum simulation of materials; please cite
         "P. Giannozzi et al., J. Phys.:Condens. Matter 21 395502 (2009);
         "P. Giannozzi et al., J. Phys.:Condens. Matter 29 465901 (2017);
         "P. Giannozzi et al., J. Chem. Phys. 152 154105 (2020);
          URL http://www.quantum-espresso.org", 
     in publications or presentations arising from this work. More details at
     http://www.quantum-espresso.org/quote

     Parallel version (MPI), running on     1 processors

     MPI processes distributed on     1 nodes
     3172 MiB available memory on the printing compute node when the environment starts
 
     Waiting for input...
     Reading input from standard input
Warning: card &CELL ignored
Warning: card / ignored

     Current dimensions of program PWSCF are:
     Max number of different atomic species (ntypx) = 10
     Max number of k-points (npk) =  40000
     Max angular momentum in pseudopotentials (lmaxx) =  4
     file Si.SCAN.UPF2: wavefunction(s)  0D renormalized

     WARNING: the MGGA functional with ID    5 has been 
     read together with other dft terms, but it should 
     stand alone in order to work properly. The other 
     terms will be ignored.

     Subspace diagonalization in iterative solution of the eigenvalue problem:
     a serial algorithm will be used

 
     G-vector sticks info
     --------------------
     sticks:   dense  smooth     PW     G-vecs:    dense   smooth      PW
     Sum         595     595    187                 9577     9577    1687
 
     Using Slab Decomposition
 


     bravais-lattice index     =            2
     lattice parameter (alat)  =       9.2916  a.u.
     unit-cell volume          =     200.5449 (a.u.)^3
     number of atoms/cell      =            2
     number of atomic types    =            1
     number of electrons       =         8.00
     number of Kohn-Sham states=            4
     kinetic-energy cutoff     =      50.0000  Ry
     charge density cutoff     =     200.0000  Ry
     scf convergence threshold =      1.0E-06
     mixing beta               =       0.0100
     number of iterations used =            8  local-TF  mixing
     Exchange-correlation= SLA  PW   SCAN SCAN
                           (   0   0   0   0   0 263 267)

     celldm(1)=   9.291600  celldm(2)=   0.000000  celldm(3)=   0.000000
     celldm(4)=   0.000000  celldm(5)=   0.000000  celldm(6)=   0.000000

     crystal axes: (cart. coord. in units of alat)
               a(1) = (  -0.500000   0.000000   0.500000 )  
               a(2) = (   0.000000   0.500000   0.500000 )  
               a(3) = (  -0.500000   0.500000   0.000000 )  

     reciprocal axes: (cart. coord. in units 2 pi/alat)
               b(1) = ( -1.000000 -1.000000  1.000000 )  
               b(2) = (  1.000000  1.000000  1.000000 )  
               b(3) = ( -1.000000  1.000000 -1.000000 )  


     PseudoPot. # 1 for Si read from file:
     ~/Documents/TA/PWDFT.jl/pseudopotentials/scan_upf/Si.SCAN.UPF2
     MD5 check sum: Not computed, couldn't open file
     Pseudo is Norm-conserving, Zval =  4.0
     Generated by new atomic code, or converted to UPF format
     Using radial grid of 1475 points,  2 beta functions with: 
                l(1) =   0
                l(2) =   1

     atomic species   valence    mass     pseudopotential
        Si             4.00    28.08550     Si( 1.00)

     48 Sym. Ops., with inversion, found (24 have fractional translation)



   Cartesian axes

     site n.     atom                  positions (alat units)
         1           Si  tau(   1) = (   0.0000000   0.0000000   0.0000000  )
         2           Si  tau(   2) = (   0.2500000   0.2500000   0.2500000  )

     number of k points=    47
                       cart. coord. in units 2pi/alat
        k(    1) = (   0.0000000   0.0000000   0.0000000), wk =   0.0020000
        k(    2) = (  -0.1000000   0.1000000  -0.1000000), wk =   0.0160000
        k(    3) = (  -0.2000000   0.2000000  -0.2000000), wk =   0.0160000
        k(    4) = (  -0.3000000   0.3000000  -0.3000000), wk =   0.0160000
        k(    5) = (  -0.4000000   0.4000000  -0.4000000), wk =   0.0160000
        k(    6) = (   0.5000000  -0.5000000   0.5000000), wk =   0.0080000
        k(    7) = (   0.0000000   0.2000000   0.0000000), wk =   0.0120000
        k(    8) = (  -0.1000000   0.3000000  -0.1000000), wk =   0.0480000
        k(    9) = (  -0.2000000   0.4000000  -0.2000000), wk =   0.0480000
        k(   10) = (  -0.3000000   0.5000000  -0.3000000), wk =   0.0480000
        k(   11) = (   0.6000000  -0.4000000   0.6000000), wk =   0.0480000
        k(   12) = (   0.5000000  -0.3000000   0.5000000), wk =   0.0480000
        k(   13) = (   0.4000000  -0.2000000   0.4000000), wk =   0.0480000
        k(   14) = (   0.3000000  -0.1000000   0.3000000), wk =   0.0480000
        k(   15) = (   0.2000000   0.0000000   0.2000000), wk =   0.0240000
        k(   16) = (   0.0000000   0.4000000   0.0000000), wk =   0.0120000
        k(   17) = (  -0.1000000   0.5000000  -0.1000000), wk =   0.0480000
        k(   18) = (  -0.2000000   0.6000000  -0.2000000), wk =   0.0480000
        k(   19) = (   0.7000000  -0.3000000   0.7000000), wk =   0.0480000
        k(   20) = (   0.6000000  -0.2000000   0.6000000), wk =   0.0480000
        k(   21) = (   0.5000000  -0.1000000   0.5000000), wk =   0.0480000
        k(   22) = (   0.4000000   0.0000000   0.4000000), wk =   0.0240000
        k(   23) = (   0.0000000   0.6000000   0.0000000), wk =   0.0120000
        k(   24) = (  -0.1000000   0.7000000  -0.1000000), wk =   0.0480000
        k(   25) = (   0.8000000  -0.2000000   0.8000000), wk =   0.0480000
        k(   26) = (   0.7000000  -0.1000000   0.7000000), wk =   0.0480000
        k(   27) = (   0.6000000  -0.0000000   0.6000000), wk =   0.0240000
        k(   28) = (   0.0000000   0.8000000   0.0000000), wk =   0.0120000
        k(   29) = (   0.9000000  -0.1000000   0.9000000), wk =   0.0480000
        k(   30) = (   0.8000000   0.0000000   0.8000000), wk =   0.0240000
        k(   31) = (   0.0000000  -1.0000000   0.0000000), wk =   0.0060000
        k(   32) = (  -0.2000000   0.4000000   0.0000000), wk =   0.0480000
        k(   33) = (  -0.3000000   0.5000000  -0.1000000), wk =   0.0960000
        k(   34) = (   0.6000000  -0.4000000   0.8000000), wk =   0.0960000
        k(   35) = (   0.5000000  -0.3000000   0.7000000), wk =   0.0480000
        k(   36) = (  -0.2000000   0.6000000   0.0000000), wk =   0.0480000
        k(   37) = (   0.7000000  -0.3000000   0.9000000), wk =   0.0960000
        k(   38) = (   0.6000000  -0.2000000   0.8000000), wk =   0.0960000
        k(   39) = (   0.5000000  -0.1000000   0.7000000), wk =   0.0960000
        k(   40) = (   0.4000000   0.0000000   0.6000000), wk =   0.0480000
        k(   41) = (   0.8000000  -0.2000000   1.0000000), wk =   0.0480000
        k(   42) = (   0.7000000  -0.1000000   0.9000000), wk =   0.0960000
        k(   43) = (   0.6000000   0.0000000   0.8000000), wk =   0.0480000
        k(   44) = (  -0.2000000  -1.0000000   0.0000000), wk =   0.0240000
        k(   45) = (   0.6000000  -0.2000000   1.0000000), wk =   0.0480000
        k(   46) = (   0.5000000  -0.1000000   0.9000000), wk =   0.0480000
        k(   47) = (  -0.4000000  -1.0000000   0.0000000), wk =   0.0240000

     Dense  grid:     9577 G-vectors     FFT dimensions: (  32,  32,  32)

     Estimated max dynamical RAM per process >      18.35 MB

     WARNING: libxc functional with ID  263 depends
      on external parameters: check the user_guide of
      QE if you need to modify them or to check their
      default values.

     Initial potential from superposition of free atoms

     starting charge       7.9990, renormalised to       8.0000
     Starting wfcs are   18 randomized atomic wfcs

     total cpu time spent up to now is        3.7 secs

     Self-consistent Calculation

     iteration #  1     ecut=    50.00 Ry     beta= 0.01
     Davidson diagonalization with overlap
     ethr =  1.00E-02,  avg # of iterations =  2.0

     total cpu time spent up to now is        6.6 secs

     total energy              =     -15.53190269 Ry
     estimated scf accuracy    <       0.09375161 Ry

     iteration #  2     ecut=    50.00 Ry     beta= 0.01
     Davidson diagonalization with overlap
     ethr =  1.17E-03,  avg # of iterations =  1.1

     total cpu time spent up to now is        8.9 secs

     total energy              =     -15.58324986 Ry
     estimated scf accuracy    <       0.09716469 Ry

     iteration #  3     ecut=    50.00 Ry     beta= 0.01
     Davidson diagonalization with overlap
     ethr =  1.17E-03,  avg # of iterations =  2.0

     total cpu time spent up to now is       11.5 secs

     total energy              =     -15.65260707 Ry
     estimated scf accuracy    <       0.17404379 Ry

     iteration #  4     ecut=    50.00 Ry     beta= 0.01
     Davidson diagonalization with overlap
     ethr =  1.17E-03,  avg # of iterations =  1.7

     total cpu time spent up to now is       13.9 secs

     total energy              =     -15.65834128 Ry
     estimated scf accuracy    <       0.02040939 Ry

     iteration #  5     ecut=    50.00 Ry     beta= 0.01
     Davidson diagonalization with overlap
     ethr =  2.55E-04,  avg # of iterations =  1.0

     total cpu time spent up to now is       16.0 secs

     total energy              =     -15.65889563 Ry
     estimated scf accuracy    <       0.01244092 Ry

     iteration #  6     ecut=    50.00 Ry     beta= 0.01
     Davidson diagonalization with overlap
     ethr =  1.56E-04,  avg # of iterations =  1.0

     total cpu time spent up to now is       18.0 secs

     total energy              =     -15.65584945 Ry
     estimated scf accuracy    <       0.01223635 Ry

     iteration #  7     ecut=    50.00 Ry     beta= 0.01
     Davidson diagonalization with overlap
     ethr =  1.53E-04,  avg # of iterations =  2.0

     total cpu time spent up to now is       20.6 secs

     total energy              =     -15.65722908 Ry
     estimated scf accuracy    <       0.00023560 Ry

     iteration #  8     ecut=    50.00 Ry     beta= 0.01
     Davidson diagonalization with overlap
     ethr =  2.95E-06,  avg # of iterations =  2.3

     total cpu time spent up to now is       23.6 secs

     total energy              =     -15.65713166 Ry
     estimated scf accuracy    <       0.00026711 Ry

     iteration #  9     ecut=    50.00 Ry     beta= 0.01
     Davidson diagonalization with overlap
     ethr =  2.95E-06,  avg # of iterations =  1.0

     total cpu time spent up to now is       25.7 secs

     total energy              =     -15.65696910 Ry
     estimated scf accuracy    <       0.00007831 Ry

     iteration # 10     ecut=    50.00 Ry     beta= 0.01
     Davidson diagonalization with overlap
     ethr =  9.79E-07,  avg # of iterations =  2.1

     total cpu time spent up to now is       28.7 secs

     total energy              =     -15.65700335 Ry
     estimated scf accuracy    <       0.00000951 Ry

     iteration # 11     ecut=    50.00 Ry     beta= 0.01
     Davidson diagonalization with overlap
     ethr =  1.19E-07,  avg # of iterations =  3.1

     total cpu time spent up to now is       31.9 secs

     total energy              =     -15.65702262 Ry
     estimated scf accuracy    <       0.00000310 Ry

     iteration # 12     ecut=    50.00 Ry     beta= 0.01
     Davidson diagonalization with overlap
     ethr =  3.87E-08,  avg # of iterations =  2.0

     total cpu time spent up to now is       34.8 secs

     total energy              =     -15.65700378 Ry
     estimated scf accuracy    <       0.00000312 Ry

     iteration # 13     ecut=    50.00 Ry     beta= 0.01
     Davidson diagonalization with overlap
     ethr =  3.87E-08,  avg # of iterations =  3.2

     total cpu time spent up to now is       37.7 secs

     End of self-consistent calculation

          k = 0.0000 0.0000 0.0000 (  1243 PWs)   bands (ev):

    -5.1267   9.5500   9.5500   9.5500

          k =-0.1000 0.1000-0.1000 (  1218 PWs)   bands (ev):

    -4.9520   8.2836   9.2909   9.2909

          k =-0.2000 0.2000-0.2000 (  1215 PWs)   bands (ev):

    -4.4333   6.0268   8.8112   8.8112

          k =-0.3000 0.3000-0.3000 (  1206 PWs)   bands (ev):

    -3.5941   3.7523   8.4047   8.4047

          k =-0.4000 0.4000-0.4000 (  1188 PWs)   bands (ev):

    -2.5242   1.7749   8.1549   8.1549

          k = 0.5000-0.5000 0.5000 (  1194 PWs)   bands (ev):

    -1.7888   0.7309   8.0723   8.0723

          k = 0.0000 0.2000 0.0000 (  1219 PWs)   bands (ev):

    -4.8935   8.7551   8.7551   8.8056

          k =-0.1000 0.3000-0.1000 (  1209 PWs)   bands (ev):

    -4.4887   6.8221   8.1857   8.6386

          k =-0.2000 0.4000-0.2000 (  1208 PWs)   bands (ev):

    -3.7530   4.5728   7.7904   8.1176

          k =-0.3000 0.5000-0.3000 (  1200 PWs)   bands (ev):

    -2.7407   2.4902   7.5911   7.6283

          k = 0.6000-0.4000 0.6000 (  1193 PWs)   bands (ev):

    -1.7473   0.9943   7.1916   7.7029

          k = 0.5000-0.3000 0.5000 (  1193 PWs)   bands (ev):

    -2.0247   1.3747   6.9806   7.9898

          k = 0.4000-0.2000 0.4000 (  1199 PWs)   bands (ev):

    -3.1031   3.1540   6.9995   8.4409

          k = 0.3000-0.1000 0.3000 (  1206 PWs)   bands (ev):

    -4.0343   5.3187   7.2783   8.9694

          k = 0.2000 0.0000 0.2000 (  1205 PWs)   bands (ev):

    -4.6623   7.3724   7.9676   9.3746

          k = 0.0000 0.4000 0.0000 (  1199 PWs)   bands (ev):

    -4.1985   7.0773   7.5448   7.5448

          k =-0.1000 0.5000-0.1000 (  1208 PWs)   bands (ev):

    -3.5723   5.3468   7.0529   7.0957

          k =-0.2000 0.6000-0.2000 (  1198 PWs)   bands (ev):

    -2.6443   3.3640   6.2957   6.9038

          k = 0.7000-0.3000 0.7000 (  1194 PWs)   bands (ev):

    -1.5680   1.6667   5.6305   6.9831

          k = 0.6000-0.2000 0.6000 (  1184 PWs)   bands (ev):

    -1.3060   1.3258   5.1970   7.3201

          k = 0.5000-0.1000 0.5000 (  1193 PWs)   bands (ev):

    -2.3043   2.7889   5.0690   7.8688

          k = 0.4000 0.0000 0.4000 (  1207 PWs)   bands (ev):

    -3.3072   4.5093   5.5206   8.5151

          k = 0.0000 0.6000 0.0000 (  1206 PWs)   bands (ev):

    -3.0563   4.9180   6.5757   6.5757

          k =-0.1000 0.7000-0.1000 (  1208 PWs)   bands (ev):

    -2.2263   3.5999   5.7111   6.3139

          k = 0.8000-0.2000 0.8000 (  1199 PWs)   bands (ev):

    -1.1659   2.2028   4.5742   6.3342

          k = 0.7000-0.1000 0.7000 (  1188 PWs)   bands (ev):

    -0.4720   1.4296   3.8073   6.6325

          k = 0.6000-0.0000 0.6000 (  1197 PWs)   bands (ev):

    -1.2745   2.2809   3.7351   7.1759

          k = 0.0000 0.8000 0.0000 (  1198 PWs)   bands (ev):

    -1.4958   2.6230   5.9715   5.9715

          k = 0.9000-0.1000 0.9000 (  1198 PWs)   bands (ev):

    -0.4983   1.5214   5.1009   5.9120

          k = 0.8000 0.0000 0.8000 (  1190 PWs)   bands (ev):

     0.2865   0.8972   3.9239   6.1396

          k = 0.0000-1.0000 0.0000 (  1186 PWs)   bands (ev):

     0.4295   0.4295   5.7672   5.7672

          k =-0.2000 0.4000 0.0000 (  1204 PWs)   bands (ev):

    -3.9736   5.8834   6.7490   8.3961

          k =-0.3000 0.5000-0.1000 (  1195 PWs)   bands (ev):

    -3.1399   3.9947   6.1220   7.8524

          k = 0.6000-0.4000 0.8000 (  1198 PWs)   bands (ev):

    -2.0747   2.1013   5.9444   7.3265

          k = 0.5000-0.3000 0.7000 (  1194 PWs)   bands (ev):

    -1.3353   1.0723   5.9185   7.1078

          k =-0.2000 0.6000 0.0000 (  1204 PWs)   bands (ev):

    -2.8452   4.3600   5.7840   6.7848

          k = 0.7000-0.3000 0.9000 (  1199 PWs)   bands (ev):

    -1.8436   2.8436   5.0494   6.2735

          k = 0.6000-0.2000 0.8000 (  1194 PWs)   bands (ev):

    -0.8514   1.5221   4.5558   6.1960

          k = 0.5000-0.1000 0.7000 (  1188 PWs)   bands (ev):

    -1.1593   1.9218   4.2854   6.5538

          k = 0.4000 0.0000 0.6000 (  1195 PWs)   bands (ev):

    -2.2288   3.2922   4.5808   7.1912

          k = 0.8000-0.2000 1.0000 (  1195 PWs)   bands (ev):

    -1.3143   2.5434   5.2201   5.6008

          k = 0.7000-0.1000 0.9000 (  1191 PWs)   bands (ev):

    -0.2492   1.5116   4.1557   5.4985

          k = 0.6000 0.0000 0.8000 (  1189 PWs)   bands (ev):

    -0.1693   1.4720   3.5475   5.8808

          k =-0.2000-1.0000 0.0000 (  1194 PWs)   bands (ev):

     0.5409   0.5409   5.1270   5.1270

          k = 0.6000-0.2000 1.0000 (  1197 PWs)   bands (ev):

    -0.8127   2.1373   4.1210   5.4219

          k = 0.5000-0.1000 0.9000 (  1194 PWs)   bands (ev):

    -0.0421   1.4206   3.8895   5.0593

          k =-0.4000-1.0000 0.0000 (  1198 PWs)   bands (ev):

     0.7544   0.7544   4.3202   4.3202

     highest occupied level (ev):     9.5500

!    total energy              =     -15.65700934 Ry
     estimated scf accuracy    <       0.00000028 Ry

     The total energy is the sum of the following terms:
     one-electron contribution =       7.20556063 Ry
     hartree contribution      =       0.87937666 Ry
     xc contribution           =      -5.18997089 Ry
     ewald contribution        =     -18.55197574 Ry

     convergence has been achieved in  13 iterations
     Writing meta-gga kinetic term

     Writing all to output data dir ./input_pw/Si/4/pwscf.save/
     Writing meta-gga kinetic term
 
     init_run     :      1.82s CPU      3.59s WALL (       1 calls)
     electrons    :     16.90s CPU     34.01s WALL (       1 calls)

     Called by init_run:
     wfcinit      :      1.72s CPU      3.34s WALL (       1 calls)
     potinit      :      0.03s CPU      0.04s WALL (       1 calls)
     hinit0       :      0.06s CPU      0.17s WALL (       1 calls)

     Called by electrons:
     c_bands      :     13.68s CPU     27.30s WALL (      13 calls)
     sum_band     :      2.82s CPU      5.88s WALL (      13 calls)
     v_of_rho     :      0.28s CPU      0.61s WALL (      14 calls)
     mix_rho      :      0.13s CPU      0.24s WALL (      13 calls)

     Called by c_bands:
     init_us_2    :      0.19s CPU      0.43s WALL (    1269 calls)
     init_us_2:cp :      0.19s CPU      0.42s WALL (    1269 calls)
     cegterg      :     13.45s CPU     26.87s WALL (     611 calls)

     Called by *egterg:
     cdiaghg      :      0.11s CPU      0.15s WALL (    1759 calls)
     h_psi        :     14.67s CPU     29.39s WALL (    1806 calls)
     g_psi        :      0.02s CPU      0.04s WALL (    1148 calls)

     Called by h_psi:
     h_psi:calbec :      0.09s CPU      0.20s WALL (    1806 calls)
     vloc_psi     :      3.60s CPU      7.18s WALL (    1806 calls)
     add_vuspsi   :      0.07s CPU      0.19s WALL (    1806 calls)
     h_psi_meta   :     10.88s CPU     21.75s WALL (    1806 calls)

     General routines
     calbec       :      0.08s CPU      0.19s WALL (    1806 calls)
     fft          :      0.03s CPU      0.10s WALL (     165 calls)
     ffts         :      0.04s CPU      0.09s WALL (     206 calls)
     fftw         :     14.16s CPU     28.63s WALL (   68800 calls)
     interpolate  :      0.00s CPU      0.00s WALL (      14 calls)
 
     Parallel routines
 
     PWSCF        :     18.76s CPU     37.79s WALL

 
   This run was terminated on:  12:50:18  21Feb2023            

=------------------------------------------------------------------------------=
   JOB DONE.
=------------------------------------------------------------------------------=
