
     Program PWSCF v.7.0 starts on 14Mar2023 at 14:28:43 

     This program is part of the open-source Quantum ESPRESSO suite
     for quantum simulation of materials; please cite
         "P. Giannozzi et al., J. Phys.:Condens. Matter 21 395502 (2009);
         "P. Giannozzi et al., J. Phys.:Condens. Matter 29 465901 (2017);
         "P. Giannozzi et al., J. Chem. Phys. 152 154105 (2020);
          URL http://www.quantum-espresso.org", 
     in publications or presentations arising from this work. More details at
     http://www.quantum-espresso.org/quote

     Parallel version (MPI), running on     1 processors

     MPI processes distributed on     1 nodes
     26604 MiB available memory on the printing compute node when the environment starts
 
     Waiting for input...
     Reading input from standard input
Warning: card &CELL ignored
Warning: card / ignored

     Current dimensions of program PWSCF are:
     Max number of different atomic species (ntypx) = 10
     Max number of k-points (npk) =  40000
     Max angular momentum in pseudopotentials (lmaxx) =  4
     file Cl.SCAN.UPF2: wavefunction(s)  0D renormalized

     WARNING: the MGGA functional with ID    5 has been 
     read together with other dft terms, but it should 
     stand alone in order to work properly. The other 
     terms will be ignored.

     WARNING: the MGGA functional with ID    5 has been 
     read together with other dft terms, but it should 
     stand alone in order to work properly. The other 
     terms will be ignored.

     Subspace diagonalization in iterative solution of the eigenvalue problem:
     a serial algorithm will be used

 
     G-vector sticks info
     --------------------
     sticks:   dense  smooth     PW     G-vecs:    dense   smooth      PW
     Sum        1039    1039    313                22123    22123    3647
 
     Using Slab Decomposition
 


     bravais-lattice index     =            2
     lattice parameter (alat)  =      12.2640  a.u.
     unit-cell volume          =     461.1439 (a.u.)^3
     number of atoms/cell      =            2
     number of atomic types    =            2
     number of electrons       =         8.00
     number of Kohn-Sham states=            4
     kinetic-energy cutoff     =      50.0000  Ry
     charge density cutoff     =     200.0000  Ry
     scf convergence threshold =      1.0E-06
     mixing beta               =       0.0100
     number of iterations used =            8  local-TF  mixing
     Exchange-correlation= SLA  PW   SCAN SCAN
                           (   0   0   0   0   0 263 267)

     celldm(1)=  12.264000  celldm(2)=   0.000000  celldm(3)=   0.000000
     celldm(4)=   0.000000  celldm(5)=   0.000000  celldm(6)=   0.000000

     crystal axes: (cart. coord. in units of alat)
               a(1) = (  -0.500000   0.000000   0.500000 )  
               a(2) = (   0.000000   0.500000   0.500000 )  
               a(3) = (  -0.500000   0.500000   0.000000 )  

     reciprocal axes: (cart. coord. in units 2 pi/alat)
               b(1) = ( -1.000000 -1.000000  1.000000 )  
               b(2) = (  1.000000  1.000000  1.000000 )  
               b(3) = ( -1.000000  1.000000 -1.000000 )  


     PseudoPot. # 1 for Li read from file:
     ~/Documents/TA/PWDFT.jl/pseudopotentials/scan_upf/Li.SCAN.UPF2
     MD5 check sum: Not computed, couldn't open file
     Pseudo is Norm-conserving, Zval =  1.0
     Generated by new atomic code, or converted to UPF format
     Using radial grid of 1321 points,  1 beta functions with: 
                l(1) =   0

     PseudoPot. # 2 for Cl read from file:
     ~/Documents/TA/PWDFT.jl/pseudopotentials/scan_upf/Cl.SCAN.UPF2
     MD5 check sum: Not computed, couldn't open file
     Pseudo is Norm-conserving, Zval =  7.0
     Generated by new atomic code, or converted to UPF format
     Using radial grid of 1493 points,  2 beta functions with: 
                l(1) =   0
                l(2) =   1

     atomic species   valence    mass     pseudopotential
        Li             1.00     6.94100     Li( 1.00)
        Cl             7.00    35.45300     Cl( 1.00)

     48 Sym. Ops., with inversion, found



   Cartesian axes

     site n.     atom                  positions (alat units)
         1           Li  tau(   1) = (   0.0000000   0.0000000   0.0000000  )
         2           Cl  tau(   2) = (   0.5000000   0.5000000   0.5000000  )

     number of k points=    47
                       cart. coord. in units 2pi/alat
        k(    1) = (   0.0000000   0.0000000   0.0000000), wk =   0.0020000
        k(    2) = (  -0.1000000   0.1000000  -0.1000000), wk =   0.0160000
        k(    3) = (  -0.2000000   0.2000000  -0.2000000), wk =   0.0160000
        k(    4) = (  -0.3000000   0.3000000  -0.3000000), wk =   0.0160000
        k(    5) = (  -0.4000000   0.4000000  -0.4000000), wk =   0.0160000
        k(    6) = (   0.5000000  -0.5000000   0.5000000), wk =   0.0080000
        k(    7) = (   0.0000000   0.2000000   0.0000000), wk =   0.0120000
        k(    8) = (  -0.1000000   0.3000000  -0.1000000), wk =   0.0480000
        k(    9) = (  -0.2000000   0.4000000  -0.2000000), wk =   0.0480000
        k(   10) = (  -0.3000000   0.5000000  -0.3000000), wk =   0.0480000
        k(   11) = (   0.6000000  -0.4000000   0.6000000), wk =   0.0480000
        k(   12) = (   0.5000000  -0.3000000   0.5000000), wk =   0.0480000
        k(   13) = (   0.4000000  -0.2000000   0.4000000), wk =   0.0480000
        k(   14) = (   0.3000000  -0.1000000   0.3000000), wk =   0.0480000
        k(   15) = (   0.2000000   0.0000000   0.2000000), wk =   0.0240000
        k(   16) = (   0.0000000   0.4000000   0.0000000), wk =   0.0120000
        k(   17) = (  -0.1000000   0.5000000  -0.1000000), wk =   0.0480000
        k(   18) = (  -0.2000000   0.6000000  -0.2000000), wk =   0.0480000
        k(   19) = (   0.7000000  -0.3000000   0.7000000), wk =   0.0480000
        k(   20) = (   0.6000000  -0.2000000   0.6000000), wk =   0.0480000
        k(   21) = (   0.5000000  -0.1000000   0.5000000), wk =   0.0480000
        k(   22) = (   0.4000000   0.0000000   0.4000000), wk =   0.0240000
        k(   23) = (   0.0000000   0.6000000   0.0000000), wk =   0.0120000
        k(   24) = (  -0.1000000   0.7000000  -0.1000000), wk =   0.0480000
        k(   25) = (   0.8000000  -0.2000000   0.8000000), wk =   0.0480000
        k(   26) = (   0.7000000  -0.1000000   0.7000000), wk =   0.0480000
        k(   27) = (   0.6000000  -0.0000000   0.6000000), wk =   0.0240000
        k(   28) = (   0.0000000   0.8000000   0.0000000), wk =   0.0120000
        k(   29) = (   0.9000000  -0.1000000   0.9000000), wk =   0.0480000
        k(   30) = (   0.8000000   0.0000000   0.8000000), wk =   0.0240000
        k(   31) = (   0.0000000  -1.0000000   0.0000000), wk =   0.0060000
        k(   32) = (  -0.2000000   0.4000000   0.0000000), wk =   0.0480000
        k(   33) = (  -0.3000000   0.5000000  -0.1000000), wk =   0.0960000
        k(   34) = (   0.6000000  -0.4000000   0.8000000), wk =   0.0960000
        k(   35) = (   0.5000000  -0.3000000   0.7000000), wk =   0.0480000
        k(   36) = (  -0.2000000   0.6000000   0.0000000), wk =   0.0480000
        k(   37) = (   0.7000000  -0.3000000   0.9000000), wk =   0.0960000
        k(   38) = (   0.6000000  -0.2000000   0.8000000), wk =   0.0960000
        k(   39) = (   0.5000000  -0.1000000   0.7000000), wk =   0.0960000
        k(   40) = (   0.4000000   0.0000000   0.6000000), wk =   0.0480000
        k(   41) = (   0.8000000  -0.2000000   1.0000000), wk =   0.0480000
        k(   42) = (   0.7000000  -0.1000000   0.9000000), wk =   0.0960000
        k(   43) = (   0.6000000   0.0000000   0.8000000), wk =   0.0480000
        k(   44) = (  -0.2000000  -1.0000000   0.0000000), wk =   0.0240000
        k(   45) = (   0.6000000  -0.2000000   1.0000000), wk =   0.0480000
        k(   46) = (   0.5000000  -0.1000000   0.9000000), wk =   0.0480000
        k(   47) = (  -0.4000000  -1.0000000   0.0000000), wk =   0.0240000

     Dense  grid:    22123 G-vectors     FFT dimensions: (  40,  40,  40)

     Estimated max dynamical RAM per process >      41.53 MB

     WARNING: libxc functional with ID  263 depends
      on external parameters: check the user_guide of
      QE if you need to modify them or to check their
      default values.

     Initial potential from superposition of free atoms

     starting charge       7.9953, renormalised to       8.0000
     Starting wfcs are   13 randomized atomic wfcs

     total cpu time spent up to now is       10.1 secs

     Self-consistent Calculation

     iteration #  1     ecut=    50.00 Ry     beta= 0.01
     Davidson diagonalization with overlap
     ethr =  1.00E-02,  avg # of iterations =  1.0

     total cpu time spent up to now is       17.5 secs

     total energy              =     -30.59618485 Ry
     estimated scf accuracy    <       0.40090114 Ry

     iteration #  2     ecut=    50.00 Ry     beta= 0.01
     Davidson diagonalization with overlap
     ethr =  5.01E-03,  avg # of iterations =  1.0

     total cpu time spent up to now is       24.6 secs

     total energy              =     -30.64569715 Ry
     estimated scf accuracy    <       0.38088914 Ry

     iteration #  3     ecut=    50.00 Ry     beta= 0.01
     Davidson diagonalization with overlap
     ethr =  4.76E-03,  avg # of iterations =  1.0

     total cpu time spent up to now is       31.1 secs

     total energy              =     -30.67387954 Ry
     estimated scf accuracy    <       0.27477689 Ry

     iteration #  4     ecut=    50.00 Ry     beta= 0.01
     Davidson diagonalization with overlap
     ethr =  3.43E-03,  avg # of iterations =  1.0

     total cpu time spent up to now is       36.9 secs

     total energy              =     -30.67608131 Ry
     estimated scf accuracy    <       0.01550522 Ry

     iteration #  5     ecut=    50.00 Ry     beta= 0.01
     Davidson diagonalization with overlap
     ethr =  1.94E-04,  avg # of iterations =  1.0

     total cpu time spent up to now is       41.8 secs

     total energy              =     -30.67255584 Ry
     estimated scf accuracy    <       0.01361707 Ry

     iteration #  6     ecut=    50.00 Ry     beta= 0.01
     Davidson diagonalization with overlap
     ethr =  1.70E-04,  avg # of iterations =  1.0

     total cpu time spent up to now is       45.7 secs

     total energy              =     -30.67386865 Ry
     estimated scf accuracy    <       0.00724711 Ry

     iteration #  7     ecut=    50.00 Ry     beta= 0.01
     Davidson diagonalization with overlap
     ethr =  9.06E-05,  avg # of iterations =  2.0

     total cpu time spent up to now is       50.6 secs

     total energy              =     -30.67698969 Ry
     estimated scf accuracy    <       0.00447488 Ry

     iteration #  8     ecut=    50.00 Ry     beta= 0.01
     Davidson diagonalization with overlap
     ethr =  5.59E-05,  avg # of iterations =  1.0

     total cpu time spent up to now is       54.0 secs

     total energy              =     -30.67683981 Ry
     estimated scf accuracy    <       0.00563850 Ry

     iteration #  9     ecut=    50.00 Ry     beta= 0.01
     Davidson diagonalization with overlap
     ethr =  5.59E-05,  avg # of iterations =  1.0

     total cpu time spent up to now is       57.4 secs

     total energy              =     -30.67524251 Ry
     estimated scf accuracy    <       0.00520266 Ry

     iteration # 10     ecut=    50.00 Ry     beta= 0.01
     Davidson diagonalization with overlap
     ethr =  5.59E-05,  avg # of iterations =  1.9

     total cpu time spent up to now is       61.3 secs

     total energy              =     -30.67581977 Ry
     estimated scf accuracy    <       0.00029867 Ry

     iteration # 11     ecut=    50.00 Ry     beta= 0.01
     Davidson diagonalization with overlap
     ethr =  3.73E-06,  avg # of iterations =  1.6

     total cpu time spent up to now is       64.5 secs

     total energy              =     -30.67590094 Ry
     estimated scf accuracy    <       0.00026918 Ry

     iteration # 12     ecut=    50.00 Ry     beta= 0.01
     Davidson diagonalization with overlap
     ethr =  3.36E-06,  avg # of iterations =  1.0

     total cpu time spent up to now is       67.3 secs

     total energy              =     -30.67610002 Ry
     estimated scf accuracy    <       0.00031688 Ry

     iteration # 13     ecut=    50.00 Ry     beta= 0.01
     Davidson diagonalization with overlap
     ethr =  3.36E-06,  avg # of iterations =  2.0

     total cpu time spent up to now is       69.6 secs

     total energy              =     -30.67576037 Ry
     estimated scf accuracy    <       0.00106209 Ry

     iteration # 14     ecut=    50.00 Ry     beta= 0.01
     Davidson diagonalization with overlap
     ethr =  3.36E-06,  avg # of iterations =  2.0

     total cpu time spent up to now is       71.8 secs

     total energy              =     -30.67587550 Ry
     estimated scf accuracy    <       0.00003208 Ry

     iteration # 15     ecut=    50.00 Ry     beta= 0.01
     Davidson diagonalization with overlap
     ethr =  4.01E-07,  avg # of iterations =  1.0

     total cpu time spent up to now is       73.4 secs

     total energy              =     -30.67587384 Ry
     estimated scf accuracy    <       0.00002252 Ry

     iteration # 16     ecut=    50.00 Ry     beta= 0.01
     Davidson diagonalization with overlap
     ethr =  2.81E-07,  avg # of iterations =  1.0

     total cpu time spent up to now is       75.0 secs

     total energy              =     -30.67587475 Ry
     estimated scf accuracy    <       0.00001199 Ry

     iteration # 17     ecut=    50.00 Ry     beta= 0.01
     Davidson diagonalization with overlap
     ethr =  1.50E-07,  avg # of iterations =  1.0

     total cpu time spent up to now is       76.5 secs

     total energy              =     -30.67587701 Ry
     estimated scf accuracy    <       0.00000847 Ry

     iteration # 18     ecut=    50.00 Ry     beta= 0.01
     Davidson diagonalization with overlap
     ethr =  1.06E-07,  avg # of iterations =  1.0

     total cpu time spent up to now is       78.1 secs

     total energy              =     -30.67587529 Ry
     estimated scf accuracy    <       0.00000717 Ry

     iteration # 19     ecut=    50.00 Ry     beta= 0.01
     Davidson diagonalization with overlap
     ethr =  8.96E-08,  avg # of iterations =  2.0

     total cpu time spent up to now is       80.0 secs

     End of self-consistent calculation

          k = 0.0000 0.0000 0.0000 (  2733 PWs)   bands (ev):

   -15.1892  -2.7549  -2.7549  -2.7549

          k =-0.1000 0.1000-0.1000 (  2737 PWs)   bands (ev):

   -15.1812  -2.8659  -2.7626  -2.7626

          k =-0.2000 0.2000-0.2000 (  2740 PWs)   bands (ev):

   -15.1602  -3.1275  -2.7822  -2.7822

          k =-0.3000 0.3000-0.3000 (  2752 PWs)   bands (ev):

   -15.1339  -3.4093  -2.8060  -2.8060

          k =-0.4000 0.4000-0.4000 (  2752 PWs)   bands (ev):

   -15.1124  -3.6134  -2.8249  -2.8249

          k = 0.5000-0.5000 0.5000 (  2764 PWs)   bands (ev):

   -15.1042  -3.6869  -2.8320  -2.8320

          k = 0.0000 0.2000 0.0000 (  2734 PWs)   bands (ev):

   -15.1785  -2.8612  -2.7863  -2.7863

          k =-0.1000 0.3000-0.1000 (  2748 PWs)   bands (ev):

   -15.1619  -3.0577  -2.8189  -2.8007

          k =-0.2000 0.4000-0.2000 (  2747 PWs)   bands (ev):

   -15.1372  -3.3223  -2.8476  -2.8267

          k =-0.3000 0.5000-0.3000 (  2762 PWs)   bands (ev):

   -15.1142  -3.5412  -2.8645  -2.8617

          k = 0.6000-0.4000 0.6000 (  2768 PWs)   bands (ev):

   -15.1015  -3.6514  -2.8991  -2.8562

          k = 0.5000-0.3000 0.5000 (  2759 PWs)   bands (ev):

   -15.1042  -3.6269  -2.9166  -2.8332

          k = 0.4000-0.2000 0.4000 (  2760 PWs)   bands (ev):

   -15.1214  -3.4747  -2.9092  -2.8012

          k = 0.3000-0.1000 0.3000 (  2753 PWs)   bands (ev):

   -15.1461  -3.2366  -2.8760  -2.7721

          k = 0.2000 0.0000 0.2000 (  2751 PWs)   bands (ev):

   -15.1690  -2.9976  -2.8205  -2.7572

          k = 0.0000 0.4000 0.0000 (  2750 PWs)   bands (ev):

   -15.1504  -3.1082  -2.8672  -2.8672

          k =-0.1000 0.5000-0.1000 (  2749 PWs)   bands (ev):

   -15.1301  -3.2887  -2.9105  -2.9086

          k =-0.2000 0.6000-0.2000 (  2753 PWs)   bands (ev):

   -15.1085  -3.4666  -2.9740  -2.9278

          k = 0.7000-0.3000 0.7000 (  2744 PWs)   bands (ev):

   -15.0939  -3.5679  -3.0495  -2.9181

          k = 0.6000-0.2000 0.6000 (  2754 PWs)   bands (ev):

   -15.0923  -3.5684  -3.1035  -2.8830

          k = 0.5000-0.1000 0.5000 (  2748 PWs)   bands (ev):

   -15.1040  -3.4824  -3.1001  -2.8351

          k = 0.4000 0.0000 0.4000 (  2742 PWs)   bands (ev):

   -15.1246  -3.3580  -3.0144  -2.7925

          k = 0.0000 0.6000 0.0000 (  2758 PWs)   bands (ev):

   -15.1151  -3.3706  -2.9652  -2.9652

          k =-0.1000 0.7000-0.1000 (  2759 PWs)   bands (ev):

   -15.0978  -3.4817  -3.0307  -2.9967

          k = 0.8000-0.2000 0.8000 (  2756 PWs)   bands (ev):

   -15.0849  -3.5276  -3.1446  -2.9922

          k = 0.7000-0.1000 0.7000 (  2746 PWs)   bands (ev):

   -15.0814  -3.4793  -3.2762  -2.9533

          k = 0.6000-0.0000 0.6000 (  2750 PWs)   bands (ev):

   -15.0888  -3.4345  -3.2898  -2.8936

          k = 0.0000 0.8000 0.0000 (  2766 PWs)   bands (ev):

   -15.0860  -3.5597  -3.0427  -3.0427

          k = 0.9000-0.1000 0.9000 (  2768 PWs)   bands (ev):

   -15.0776  -3.5893  -3.1064  -3.0502

          k = 0.8000 0.0000 0.8000 (  2748 PWs)   bands (ev):

   -15.0757  -3.5322  -3.2273  -3.0167

          k = 0.0000-1.0000 0.0000 (  2778 PWs)   bands (ev):

   -15.0749  -3.6278  -3.0720  -3.0720

          k =-0.2000 0.4000 0.0000 (  2752 PWs)   bands (ev):

   -15.1434  -3.2109  -2.9086  -2.8108

          k =-0.3000 0.5000-0.1000 (  2753 PWs)   bands (ev):

   -15.1202  -3.4007  -2.9828  -2.8373

          k = 0.6000-0.4000 0.8000 (  2755 PWs)   bands (ev):

   -15.1013  -3.5493  -3.0207  -2.8718

          k = 0.5000-0.3000 0.7000 (  2764 PWs)   bands (ev):

   -15.0942  -3.6045  -3.0309  -2.8882

          k =-0.2000 0.6000 0.0000 (  2754 PWs)   bands (ev):

   -15.1113  -3.4053  -3.0148  -2.9248

          k = 0.7000-0.3000 0.9000 (  2749 PWs)   bands (ev):

   -15.0939  -3.4926  -3.1070  -2.9554

          k = 0.6000-0.2000 0.8000 (  2746 PWs)   bands (ev):

   -15.0849  -3.5161  -3.1882  -2.9595

          k = 0.5000-0.1000 0.7000 (  2752 PWs)   bands (ev):

   -15.0878  -3.4850  -3.2202  -2.9252

          k = 0.4000 0.0000 0.6000 (  2753 PWs)   bands (ev):

   -15.1013  -3.4479  -3.1409  -2.8744

          k = 0.8000-0.2000 1.0000 (  2763 PWs)   bands (ev):

   -15.0850  -3.5346  -3.0986  -3.0317

          k = 0.7000-0.1000 0.9000 (  2752 PWs)   bands (ev):

   -15.0775  -3.5115  -3.2127  -3.0359

          k = 0.6000 0.0000 0.8000 (  2748 PWs)   bands (ev):

   -15.0786  -3.4051  -3.3544  -2.9914

          k =-0.2000-1.0000 0.0000 (  2758 PWs)   bands (ev):

   -15.0747  -3.5793  -3.1302  -3.0747

          k = 0.6000-0.2000 1.0000 (  2759 PWs)   bands (ev):

   -15.0822  -3.4629  -3.2398  -3.0065

          k = 0.5000-0.1000 0.9000 (  2744 PWs)   bands (ev):

   -15.0775  -3.4160  -3.3182  -3.0347

          k =-0.4000-1.0000 0.0000 (  2748 PWs)   bands (ev):

   -15.0747  -3.4481  -3.2769  -3.0790

     highest occupied level (ev):    -2.7549

!    total energy              =     -30.67587653 Ry
     estimated scf accuracy    <       0.00000006 Ry

     The total energy is the sum of the following terms:
     one-electron contribution =     -13.84049816 Ry
     hartree contribution      =       9.31049175 Ry
     xc contribution           =      -6.20952271 Ry
     ewald contribution        =     -19.93634741 Ry

     convergence has been achieved in  19 iterations
     Writing meta-gga kinetic term

     Writing all to output data dir ./input_pw/LiCl/19/pwscf.save/
     Writing meta-gga kinetic term
 
     init_run     :      3.79s CPU      9.94s WALL (       1 calls)
     electrons    :     51.40s CPU     69.94s WALL (       1 calls)

     Called by init_run:
     wfcinit      :      3.61s CPU      9.38s WALL (       1 calls)
     potinit      :      0.06s CPU      0.25s WALL (       1 calls)
     hinit0       :      0.10s CPU      0.20s WALL (       1 calls)

     Called by electrons:
     c_bands      :     39.93s CPU     54.23s WALL (      19 calls)
     sum_band     :      9.96s CPU     13.69s WALL (      19 calls)
     v_of_rho     :      0.73s CPU      1.13s WALL (      20 calls)
     mix_rho      :      0.80s CPU      1.02s WALL (      19 calls)

     Called by c_bands:
     init_us_2    :      0.53s CPU      0.83s WALL (    1833 calls)
     init_us_2:cp :      0.52s CPU      0.82s WALL (    1833 calls)
     cegterg      :     39.44s CPU     53.53s WALL (     893 calls)

     Called by *egterg:
     cdiaghg      :      0.11s CPU      0.12s WALL (    2047 calls)
     h_psi        :     42.26s CPU     61.68s WALL (    2094 calls)
     g_psi        :      0.03s CPU      0.03s WALL (    1154 calls)

     Called by h_psi:
     h_psi:calbec :      0.14s CPU      0.18s WALL (    2094 calls)
     vloc_psi     :     10.46s CPU     15.26s WALL (    2094 calls)
     add_vuspsi   :      0.12s CPU      0.21s WALL (    2094 calls)
     h_psi_meta   :     31.48s CPU     45.91s WALL (    2094 calls)

     General routines
     calbec       :      0.13s CPU      0.17s WALL (    2094 calls)
     fft          :      0.13s CPU      0.21s WALL (     237 calls)
     ffts         :      0.29s CPU      0.43s WALL (     532 calls)
     fftw         :     44.08s CPU     64.23s WALL (   82424 calls)
     interpolate  :      0.00s CPU      0.00s WALL (      20 calls)
 
     Parallel routines
 
     PWSCF        :     55.23s CPU   1m20.02s WALL

 
   This run was terminated on:  14:30: 3  14Mar2023            

=------------------------------------------------------------------------------=
   JOB DONE.
=------------------------------------------------------------------------------=
