
     Program PWSCF v.7.0 starts on  7Jul2023 at 14:25:23 

     This program is part of the open-source Quantum ESPRESSO suite
     for quantum simulation of materials; please cite
         "P. Giannozzi et al., J. Phys.:Condens. Matter 21 395502 (2009);
         "P. Giannozzi et al., J. Phys.:Condens. Matter 29 465901 (2017);
         "P. Giannozzi et al., J. Chem. Phys. 152 154105 (2020);
          URL http://www.quantum-espresso.org", 
     in publications or presentations arising from this work. More details at
     http://www.quantum-espresso.org/quote

     Parallel version (MPI), running on     1 processors

     MPI processes distributed on     1 nodes
     27345 MiB available memory on the printing compute node when the environment starts
 
     Waiting for input...
     Reading input from standard input
Warning: card &CELL ignored
Warning: card / ignored

     Current dimensions of program PWSCF are:
     Max number of different atomic species (ntypx) = 10
     Max number of k-points (npk) =  40000
     Max angular momentum in pseudopotentials (lmaxx) =  4

     WARNING: the MGGA functional with ID    5 has been 
     read together with other dft terms, but it should 
     stand alone in order to work properly. The other 
     terms will be ignored.

     Subspace diagonalization in iterative solution of the eigenvalue problem:
     a serial algorithm will be used

 
     G-vector sticks info
     --------------------
     sticks:   dense  smooth     PW     G-vecs:    dense   smooth      PW
     Sum         397     397    127                 5209     5209     965
 
     Using Slab Decomposition
 


     bravais-lattice index     =            2
     lattice parameter (alat)  =       7.6224  a.u.
     unit-cell volume          =     110.7172 (a.u.)^3
     number of atoms/cell      =            2
     number of atomic types    =            1
     number of electrons       =         8.00
     number of Kohn-Sham states=            4
     kinetic-energy cutoff     =      50.0000  Ry
     charge density cutoff     =     200.0000  Ry
     scf convergence threshold =      2.0E-05
     mixing beta               =       0.2000
     number of iterations used =            8  local-TF  mixing
     Exchange-correlation= SLA  PW   SCAN SCAN
                           (   0   0   0   0   0 263 267)

     celldm(1)=   7.622399  celldm(2)=   0.000000  celldm(3)=   0.000000
     celldm(4)=   0.000000  celldm(5)=   0.000000  celldm(6)=   0.000000

     crystal axes: (cart. coord. in units of alat)
               a(1) = (  -0.500000   0.000000   0.500000 )  
               a(2) = (   0.000000   0.500000   0.500000 )  
               a(3) = (  -0.500000   0.500000   0.000000 )  

     reciprocal axes: (cart. coord. in units 2 pi/alat)
               b(1) = ( -1.000000 -1.000000  1.000000 )  
               b(2) = (  1.000000  1.000000  1.000000 )  
               b(3) = ( -1.000000  1.000000 -1.000000 )  


     PseudoPot. # 1 for C  read from file:
     ~/Documents/TA/PWDFT.jl/pseudopotentials/scan_upf/C.SCAN.UPF2
     MD5 check sum: Not computed, couldn't open file
     Pseudo is Norm-conserving, Zval =  4.0
     Generated by new atomic code, or converted to UPF format
     Using radial grid of 1389 points,  1 beta functions with: 
                l(1) =   0

     atomic species   valence    mass     pseudopotential
        C              4.00    12.01100     C ( 1.00)

     48 Sym. Ops., with inversion, found (24 have fractional translation)



   Cartesian axes

     site n.     atom                  positions (alat units)
         1           C   tau(   1) = (   0.0000000   0.0000000   0.0000000  )
         2           C   tau(   2) = (   0.2500000   0.2500000   0.2500000  )

     number of k points=    47
                       cart. coord. in units 2pi/alat
        k(    1) = (   0.0000000   0.0000000   0.0000000), wk =   0.0020000
        k(    2) = (  -0.1000000   0.1000000  -0.1000000), wk =   0.0160000
        k(    3) = (  -0.2000000   0.2000000  -0.2000000), wk =   0.0160000
        k(    4) = (  -0.3000000   0.3000000  -0.3000000), wk =   0.0160000
        k(    5) = (  -0.4000000   0.4000000  -0.4000000), wk =   0.0160000
        k(    6) = (   0.5000000  -0.5000000   0.5000000), wk =   0.0080000
        k(    7) = (   0.0000000   0.2000000   0.0000000), wk =   0.0120000
        k(    8) = (  -0.1000000   0.3000000  -0.1000000), wk =   0.0480000
        k(    9) = (  -0.2000000   0.4000000  -0.2000000), wk =   0.0480000
        k(   10) = (  -0.3000000   0.5000000  -0.3000000), wk =   0.0480000
        k(   11) = (   0.6000000  -0.4000000   0.6000000), wk =   0.0480000
        k(   12) = (   0.5000000  -0.3000000   0.5000000), wk =   0.0480000
        k(   13) = (   0.4000000  -0.2000000   0.4000000), wk =   0.0480000
        k(   14) = (   0.3000000  -0.1000000   0.3000000), wk =   0.0480000
        k(   15) = (   0.2000000   0.0000000   0.2000000), wk =   0.0240000
        k(   16) = (   0.0000000   0.4000000   0.0000000), wk =   0.0120000
        k(   17) = (  -0.1000000   0.5000000  -0.1000000), wk =   0.0480000
        k(   18) = (  -0.2000000   0.6000000  -0.2000000), wk =   0.0480000
        k(   19) = (   0.7000000  -0.3000000   0.7000000), wk =   0.0480000
        k(   20) = (   0.6000000  -0.2000000   0.6000000), wk =   0.0480000
        k(   21) = (   0.5000000  -0.1000000   0.5000000), wk =   0.0480000
        k(   22) = (   0.4000000   0.0000000   0.4000000), wk =   0.0240000
        k(   23) = (   0.0000000   0.6000000   0.0000000), wk =   0.0120000
        k(   24) = (  -0.1000000   0.7000000  -0.1000000), wk =   0.0480000
        k(   25) = (   0.8000000  -0.2000000   0.8000000), wk =   0.0480000
        k(   26) = (   0.7000000  -0.1000000   0.7000000), wk =   0.0480000
        k(   27) = (   0.6000000  -0.0000000   0.6000000), wk =   0.0240000
        k(   28) = (   0.0000000   0.8000000   0.0000000), wk =   0.0120000
        k(   29) = (   0.9000000  -0.1000000   0.9000000), wk =   0.0480000
        k(   30) = (   0.8000000   0.0000000   0.8000000), wk =   0.0240000
        k(   31) = (   0.0000000  -1.0000000   0.0000000), wk =   0.0060000
        k(   32) = (  -0.2000000   0.4000000   0.0000000), wk =   0.0480000
        k(   33) = (  -0.3000000   0.5000000  -0.1000000), wk =   0.0960000
        k(   34) = (   0.6000000  -0.4000000   0.8000000), wk =   0.0960000
        k(   35) = (   0.5000000  -0.3000000   0.7000000), wk =   0.0480000
        k(   36) = (  -0.2000000   0.6000000   0.0000000), wk =   0.0480000
        k(   37) = (   0.7000000  -0.3000000   0.9000000), wk =   0.0960000
        k(   38) = (   0.6000000  -0.2000000   0.8000000), wk =   0.0960000
        k(   39) = (   0.5000000  -0.1000000   0.7000000), wk =   0.0960000
        k(   40) = (   0.4000000   0.0000000   0.6000000), wk =   0.0480000
        k(   41) = (   0.8000000  -0.2000000   1.0000000), wk =   0.0480000
        k(   42) = (   0.7000000  -0.1000000   0.9000000), wk =   0.0960000
        k(   43) = (   0.6000000   0.0000000   0.8000000), wk =   0.0480000
        k(   44) = (  -0.2000000  -1.0000000   0.0000000), wk =   0.0240000
        k(   45) = (   0.6000000  -0.2000000   1.0000000), wk =   0.0480000
        k(   46) = (   0.5000000  -0.1000000   0.9000000), wk =   0.0480000
        k(   47) = (  -0.4000000  -1.0000000   0.0000000), wk =   0.0240000

     Dense  grid:     5209 G-vectors     FFT dimensions: (  32,  32,  32)

     Estimated max dynamical RAM per process >      11.62 MB

     WARNING: libxc functional with ID  263 depends
      on external parameters: check the user_guide of
      QE if you need to modify them or to check their
      default values.

     Initial potential from superposition of free atoms

     starting charge       7.9999, renormalised to       8.0000
     Starting wfcs are    8 randomized atomic wfcs

     total cpu time spent up to now is        1.4 secs

     Self-consistent Calculation

     iteration #  1     ecut=    50.00 Ry     beta= 0.20
     Davidson diagonalization with overlap
     ethr =  1.00E-02,  avg # of iterations =  2.0

     total cpu time spent up to now is        3.9 secs

     total energy              =     -22.53645879 Ry
     estimated scf accuracy    <       1.28547031 Ry

     iteration #  2     ecut=    50.00 Ry     beta= 0.20
     Davidson diagonalization with overlap
     ethr =  1.00E-02,  avg # of iterations =  1.0

     total cpu time spent up to now is        5.8 secs

     total energy              =     -22.60276440 Ry
     estimated scf accuracy    <       0.85800029 Ry

     iteration #  3     ecut=    50.00 Ry     beta= 0.20
     Davidson diagonalization with overlap
     ethr =  1.00E-02,  avg # of iterations =  1.0

     total cpu time spent up to now is        7.7 secs

     total energy              =     -22.60480000 Ry
     estimated scf accuracy    <       0.00683342 Ry

     iteration #  4     ecut=    50.00 Ry     beta= 0.20
     Davidson diagonalization with overlap
     ethr =  8.54E-05,  avg # of iterations =  1.0

     total cpu time spent up to now is        9.4 secs

     total energy              =     -22.60418678 Ry
     estimated scf accuracy    <       0.00432397 Ry

     iteration #  5     ecut=    50.00 Ry     beta= 0.20
     Davidson diagonalization with overlap
     ethr =  5.40E-05,  avg # of iterations =  1.0

     total cpu time spent up to now is       11.0 secs

     total energy              =     -22.60450278 Ry
     estimated scf accuracy    <       0.00009260 Ry

     iteration #  6     ecut=    50.00 Ry     beta= 0.20
     Davidson diagonalization with overlap
     ethr =  1.16E-06,  avg # of iterations =  2.8

     total cpu time spent up to now is       12.4 secs

     total energy              =     -22.60453908 Ry
     estimated scf accuracy    <       0.00006376 Ry

     iteration #  7     ecut=    50.00 Ry     beta= 0.20
     Davidson diagonalization with overlap
     ethr =  7.97E-07,  avg # of iterations =  1.0

     total cpu time spent up to now is       13.0 secs

     total energy              =     -22.60454465 Ry
     estimated scf accuracy    <       0.00003117 Ry

     iteration #  8     ecut=    50.00 Ry     beta= 0.20
     Davidson diagonalization with overlap
     ethr =  3.90E-07,  avg # of iterations =  1.1

     total cpu time spent up to now is       13.5 secs

     End of self-consistent calculation

          k = 0.0000 0.0000 0.0000 (   645 PWs)   bands (ev):

   -10.5724   7.5143   7.5144   7.5144

          k =-0.1000 0.1000-0.1000 (   649 PWs)   bands (ev):

   -10.3515   6.0971   7.2061   7.2062

          k =-0.2000 0.2000-0.2000 (   649 PWs)   bands (ev):

    -9.6977   3.4539   6.5702   6.5702

          k =-0.3000 0.3000-0.3000 (   652 PWs)   bands (ev):

    -8.6469   0.7117   5.9763   5.9763

          k =-0.4000 0.4000-0.4000 (   664 PWs)   bands (ev):

    -7.3315  -1.6993   5.5804   5.5804

          k = 0.5000-0.5000 0.5000 (   652 PWs)   bands (ev):

    -6.4696  -2.9348   5.4544   5.4544

          k = 0.0000 0.2000 0.0000 (   657 PWs)   bands (ev):

   -10.2779   6.4677   6.6834   6.6834

          k =-0.1000 0.3000-0.1000 (   660 PWs)   bands (ev):

    -9.7676   4.2977   5.9822   6.3530

          k =-0.2000 0.4000-0.2000 (   649 PWs)   bands (ev):

    -8.8448   1.6505   5.4160   5.7082

          k =-0.3000 0.5000-0.3000 (   652 PWs)   bands (ev):

    -7.5917  -0.8621   5.0632   5.1178

          k = 0.6000-0.4000 0.6000 (   659 PWs)   bands (ev):

    -6.4104  -2.6397   4.6003   5.1159

          k = 0.5000-0.3000 0.5000 (   659 PWs)   bands (ev):

    -6.7315  -2.1944   4.4120   5.4023

          k = 0.4000-0.2000 0.4000 (   653 PWs)   bands (ev):

    -8.0374  -0.0561   4.5341   5.9329

          k = 0.3000-0.1000 0.3000 (   652 PWs)   bands (ev):

    -9.1968   2.5305   4.9833   6.5954

          k = 0.2000 0.0000 0.2000 (   658 PWs)   bands (ev):

    -9.9860   4.9049   5.8883   7.1484

          k = 0.0000 0.4000 0.0000 (   653 PWs)   bands (ev):

    -9.4027   4.2395   5.2390   5.2390

          k =-0.1000 0.5000-0.1000 (   655 PWs)   bands (ev):

    -8.6187   2.3185   4.6026   4.6466

          k =-0.2000 0.6000-0.2000 (   662 PWs)   bands (ev):

    -7.4684   0.0359   3.7535   4.3445

          k = 0.7000-0.3000 0.7000 (   667 PWs)   bands (ev):

    -6.1742  -1.9348   2.9940   4.3727

          k = 0.6000-0.2000 0.6000 (   660 PWs)   bands (ev):

    -5.8779  -2.3097   2.5270   4.7256

          k = 0.5000-0.1000 0.5000 (   659 PWs)   bands (ev):

    -7.0566  -0.6222   2.4644   5.3346

          k = 0.4000 0.0000 0.4000 (   648 PWs)   bands (ev):

    -8.2896   1.3556   3.1351   6.0562

          k = 0.0000 0.6000 0.0000 (   652 PWs)   bands (ev):

    -7.9748   1.6243   4.0021   4.0021

          k =-0.1000 0.7000-0.1000 (   658 PWs)   bands (ev):

    -6.9483   0.0610   3.1599   3.6420

          k = 0.8000-0.2000 0.8000 (   668 PWs)   bands (ev):

    -5.6663  -1.5577   1.9898   3.6253

          k = 0.7000-0.1000 0.7000 (   669 PWs)   bands (ev):

    -4.8873  -2.3880   1.1342   3.9528

          k = 0.6000-0.0000 0.6000 (   670 PWs)   bands (ev):

    -5.8186  -1.4208   1.0914   4.5698

          k = 0.0000 0.8000 0.0000 (   664 PWs)   bands (ev):

    -6.0476  -1.0959   3.2027   3.2027

          k = 0.9000-0.1000 0.9000 (   662 PWs)   bands (ev):

    -4.8387  -2.4187   2.4383   3.1128

          k = 0.8000 0.0000 0.8000 (   678 PWs)   bands (ev):

    -3.9712  -3.1331   1.3109   3.3747

          k = 0.0000-1.0000 0.0000 (   652 PWs)   bands (ev):

    -3.7075  -3.7075   2.9331   2.9331

          k =-0.2000 0.4000 0.0000 (   652 PWs)   bands (ev):

    -9.1207   3.0105   4.4865   6.0172

          k =-0.3000 0.5000-0.1000 (   657 PWs)   bands (ev):

    -8.0817   0.8323   3.6387   5.4112

          k = 0.6000-0.4000 0.8000 (   661 PWs)   bands (ev):

    -6.7802  -1.3890   3.3190   4.8384

          k = 0.5000-0.3000 0.7000 (   664 PWs)   bands (ev):

    -5.9229  -2.5767   3.2473   4.6030

          k =-0.2000 0.6000 0.0000 (   656 PWs)   bands (ev):

    -7.7143   1.0084   3.2975   4.3190

          k = 0.7000-0.3000 0.9000 (   663 PWs)   bands (ev):

    -6.4881  -0.7365   2.4328   3.8022

          k = 0.6000-0.2000 0.8000 (   664 PWs)   bands (ev):

    -5.3275  -2.2042   1.8500   3.6993

          k = 0.5000-0.1000 0.7000 (   671 PWs)   bands (ev):

    -5.6842  -1.7556   1.5877   4.0761

          k = 0.4000 0.0000 0.6000 (   665 PWs)   bands (ev):

    -6.9612  -0.2065   2.0302   4.7493

          k = 0.8000-0.2000 1.0000 (   664 PWs)   bands (ev):

    -5.8334  -1.2269   2.5837   3.0310

          k = 0.7000-0.1000 0.9000 (   664 PWs)   bands (ev):

    -4.5747  -2.4526   1.5636   2.9097

          k = 0.6000 0.0000 0.8000 (   666 PWs)   bands (ev):

    -4.5245  -2.4546   0.9207   3.3396

          k =-0.2000-1.0000 0.0000 (   662 PWs)   bands (ev):

    -3.5991  -3.5991   2.4655   2.4655

          k = 0.6000-0.2000 1.0000 (   666 PWs)   bands (ev):

    -5.2531  -1.7128   1.5050   2.9895

          k = 0.5000-0.1000 0.9000 (   674 PWs)   bands (ev):

    -4.3706  -2.5323   1.2560   2.6007

          k =-0.4000-1.0000 0.0000 (   670 PWs)   bands (ev):

    -3.4015  -3.4015   1.7801   1.7801

     highest occupied level (ev):     7.5144

!    total energy              =     -22.60454618 Ry
     estimated scf accuracy    <       0.00000021 Ry

     The total energy is the sum of the following terms:
     one-electron contribution =       4.19694722 Ry
     hartree contribution      =       2.34063850 Ry
     xc contribution           =      -6.52752841 Ry
     ewald contribution        =     -22.61460349 Ry

     convergence has been achieved in   8 iterations
     Writing meta-gga kinetic term

     Writing all to output data dir ./input_pw/C/10/pwscf.save/
     Writing meta-gga kinetic term
 
     init_run     :      0.76s CPU      1.40s WALL (       1 calls)
     electrons    :      7.15s CPU     12.11s WALL (       1 calls)

     Called by init_run:
     wfcinit      :      0.70s CPU      1.26s WALL (       1 calls)
     potinit      :      0.02s CPU      0.08s WALL (       1 calls)
     hinit0       :      0.03s CPU      0.05s WALL (       1 calls)

     Called by electrons:
     c_bands      :      5.68s CPU      9.73s WALL (       8 calls)
     sum_band     :      1.30s CPU      2.12s WALL (       8 calls)
     v_of_rho     :      0.15s CPU      0.26s WALL (       9 calls)
     mix_rho      :      0.04s CPU      0.07s WALL (       8 calls)

     Called by c_bands:
     init_us_2    :      0.02s CPU      0.02s WALL (     799 calls)
     init_us_2:cp :      0.02s CPU      0.02s WALL (     799 calls)
     cegterg      :      5.66s CPU      9.70s WALL (     376 calls)

     Called by *egterg:
     cdiaghg      :      0.03s CPU      0.10s WALL (     889 calls)
     h_psi        :      6.23s CPU     10.71s WALL (     936 calls)
     g_psi        :      0.00s CPU      0.00s WALL (     513 calls)

     Called by h_psi:
     h_psi:calbec :      0.01s CPU      0.02s WALL (     936 calls)
     vloc_psi     :      1.54s CPU      2.61s WALL (     936 calls)
     add_vuspsi   :      0.01s CPU      0.03s WALL (     936 calls)
     h_psi_meta   :      4.66s CPU      8.03s WALL (     936 calls)

     General routines
     calbec       :      0.01s CPU      0.02s WALL (     936 calls)
     fft          :      0.02s CPU      0.05s WALL (     105 calls)
     ffts         :      0.02s CPU      0.04s WALL (     137 calls)
     fftw         :      6.38s CPU     10.81s WALL (   36200 calls)
     interpolate  :      0.00s CPU      0.00s WALL (       9 calls)
 
     Parallel routines
 
     PWSCF        :      7.95s CPU     13.55s WALL

 
   This run was terminated on:  14:25:36   7Jul2023            

=------------------------------------------------------------------------------=
   JOB DONE.
=------------------------------------------------------------------------------=
