
     Program PWSCF v.7.0 starts on 14Mar2023 at 11:48:16 

     This program is part of the open-source Quantum ESPRESSO suite
     for quantum simulation of materials; please cite
         "P. Giannozzi et al., J. Phys.:Condens. Matter 21 395502 (2009);
         "P. Giannozzi et al., J. Phys.:Condens. Matter 29 465901 (2017);
         "P. Giannozzi et al., J. Chem. Phys. 152 154105 (2020);
          URL http://www.quantum-espresso.org", 
     in publications or presentations arising from this work. More details at
     http://www.quantum-espresso.org/quote

     Parallel version (MPI), running on     1 processors

     MPI processes distributed on     1 nodes
     27002 MiB available memory on the printing compute node when the environment starts
 
     Waiting for input...
     Reading input from standard input
Warning: card &CELL ignored
Warning: card / ignored

     Current dimensions of program PWSCF are:
     Max number of different atomic species (ntypx) = 10
     Max number of k-points (npk) =  40000
     Max angular momentum in pseudopotentials (lmaxx) =  4

     WARNING: the MGGA functional with ID    5 has been 
     read together with other dft terms, but it should 
     stand alone in order to work properly. The other 
     terms will be ignored.

     Subspace diagonalization in iterative solution of the eigenvalue problem:
     a serial algorithm will be used

 
     G-vector sticks info
     --------------------
     sticks:   dense  smooth     PW     G-vecs:    dense   smooth      PW
     Sum         421     421    139                 5601     5601    1067
 
     Using Slab Decomposition
 


     bravais-lattice index     =            2
     lattice parameter (alat)  =       7.7585  a.u.
     unit-cell volume          =     116.7550 (a.u.)^3
     number of atoms/cell      =            2
     number of atomic types    =            1
     number of electrons       =         8.00
     number of Kohn-Sham states=            4
     kinetic-energy cutoff     =      50.0000  Ry
     charge density cutoff     =     200.0000  Ry
     scf convergence threshold =      1.0E-06
     mixing beta               =       0.0100
     number of iterations used =            8  local-TF  mixing
     Exchange-correlation= SLA  PW   SCAN SCAN
                           (   0   0   0   0   0 263 267)

     celldm(1)=   7.758514  celldm(2)=   0.000000  celldm(3)=   0.000000
     celldm(4)=   0.000000  celldm(5)=   0.000000  celldm(6)=   0.000000

     crystal axes: (cart. coord. in units of alat)
               a(1) = (  -0.500000   0.000000   0.500000 )  
               a(2) = (   0.000000   0.500000   0.500000 )  
               a(3) = (  -0.500000   0.500000   0.000000 )  

     reciprocal axes: (cart. coord. in units 2 pi/alat)
               b(1) = ( -1.000000 -1.000000  1.000000 )  
               b(2) = (  1.000000  1.000000  1.000000 )  
               b(3) = ( -1.000000  1.000000 -1.000000 )  


     PseudoPot. # 1 for C  read from file:
     ~/Documents/TA/PWDFT.jl/pseudopotentials/scan_upf/C.SCAN.UPF2
     MD5 check sum: Not computed, couldn't open file
     Pseudo is Norm-conserving, Zval =  4.0
     Generated by new atomic code, or converted to UPF format
     Using radial grid of 1389 points,  1 beta functions with: 
                l(1) =   0

     atomic species   valence    mass     pseudopotential
        C              4.00    12.01100     C ( 1.00)

     48 Sym. Ops., with inversion, found (24 have fractional translation)



   Cartesian axes

     site n.     atom                  positions (alat units)
         1           C   tau(   1) = (   0.0000000   0.0000000   0.0000000  )
         2           C   tau(   2) = (   0.2500000   0.2500000   0.2500000  )

     number of k points=    47
                       cart. coord. in units 2pi/alat
        k(    1) = (   0.0000000   0.0000000   0.0000000), wk =   0.0020000
        k(    2) = (  -0.1000000   0.1000000  -0.1000000), wk =   0.0160000
        k(    3) = (  -0.2000000   0.2000000  -0.2000000), wk =   0.0160000
        k(    4) = (  -0.3000000   0.3000000  -0.3000000), wk =   0.0160000
        k(    5) = (  -0.4000000   0.4000000  -0.4000000), wk =   0.0160000
        k(    6) = (   0.5000000  -0.5000000   0.5000000), wk =   0.0080000
        k(    7) = (   0.0000000   0.2000000   0.0000000), wk =   0.0120000
        k(    8) = (  -0.1000000   0.3000000  -0.1000000), wk =   0.0480000
        k(    9) = (  -0.2000000   0.4000000  -0.2000000), wk =   0.0480000
        k(   10) = (  -0.3000000   0.5000000  -0.3000000), wk =   0.0480000
        k(   11) = (   0.6000000  -0.4000000   0.6000000), wk =   0.0480000
        k(   12) = (   0.5000000  -0.3000000   0.5000000), wk =   0.0480000
        k(   13) = (   0.4000000  -0.2000000   0.4000000), wk =   0.0480000
        k(   14) = (   0.3000000  -0.1000000   0.3000000), wk =   0.0480000
        k(   15) = (   0.2000000   0.0000000   0.2000000), wk =   0.0240000
        k(   16) = (   0.0000000   0.4000000   0.0000000), wk =   0.0120000
        k(   17) = (  -0.1000000   0.5000000  -0.1000000), wk =   0.0480000
        k(   18) = (  -0.2000000   0.6000000  -0.2000000), wk =   0.0480000
        k(   19) = (   0.7000000  -0.3000000   0.7000000), wk =   0.0480000
        k(   20) = (   0.6000000  -0.2000000   0.6000000), wk =   0.0480000
        k(   21) = (   0.5000000  -0.1000000   0.5000000), wk =   0.0480000
        k(   22) = (   0.4000000   0.0000000   0.4000000), wk =   0.0240000
        k(   23) = (   0.0000000   0.6000000   0.0000000), wk =   0.0120000
        k(   24) = (  -0.1000000   0.7000000  -0.1000000), wk =   0.0480000
        k(   25) = (   0.8000000  -0.2000000   0.8000000), wk =   0.0480000
        k(   26) = (   0.7000000  -0.1000000   0.7000000), wk =   0.0480000
        k(   27) = (   0.6000000  -0.0000000   0.6000000), wk =   0.0240000
        k(   28) = (   0.0000000   0.8000000   0.0000000), wk =   0.0120000
        k(   29) = (   0.9000000  -0.1000000   0.9000000), wk =   0.0480000
        k(   30) = (   0.8000000   0.0000000   0.8000000), wk =   0.0240000
        k(   31) = (   0.0000000  -1.0000000   0.0000000), wk =   0.0060000
        k(   32) = (  -0.2000000   0.4000000   0.0000000), wk =   0.0480000
        k(   33) = (  -0.3000000   0.5000000  -0.1000000), wk =   0.0960000
        k(   34) = (   0.6000000  -0.4000000   0.8000000), wk =   0.0960000
        k(   35) = (   0.5000000  -0.3000000   0.7000000), wk =   0.0480000
        k(   36) = (  -0.2000000   0.6000000   0.0000000), wk =   0.0480000
        k(   37) = (   0.7000000  -0.3000000   0.9000000), wk =   0.0960000
        k(   38) = (   0.6000000  -0.2000000   0.8000000), wk =   0.0960000
        k(   39) = (   0.5000000  -0.1000000   0.7000000), wk =   0.0960000
        k(   40) = (   0.4000000   0.0000000   0.6000000), wk =   0.0480000
        k(   41) = (   0.8000000  -0.2000000   1.0000000), wk =   0.0480000
        k(   42) = (   0.7000000  -0.1000000   0.9000000), wk =   0.0960000
        k(   43) = (   0.6000000   0.0000000   0.8000000), wk =   0.0480000
        k(   44) = (  -0.2000000  -1.0000000   0.0000000), wk =   0.0240000
        k(   45) = (   0.6000000  -0.2000000   1.0000000), wk =   0.0480000
        k(   46) = (   0.5000000  -0.1000000   0.9000000), wk =   0.0480000
        k(   47) = (  -0.4000000  -1.0000000   0.0000000), wk =   0.0240000

     Dense  grid:     5601 G-vectors     FFT dimensions: (  32,  32,  32)

     Estimated max dynamical RAM per process >      12.17 MB

     WARNING: libxc functional with ID  263 depends
      on external parameters: check the user_guide of
      QE if you need to modify them or to check their
      default values.

     Initial potential from superposition of free atoms

     starting charge       7.9999, renormalised to       8.0000
     Starting wfcs are    8 randomized atomic wfcs

     total cpu time spent up to now is        1.4 secs

     Self-consistent Calculation

     iteration #  1     ecut=    50.00 Ry     beta= 0.01
     Davidson diagonalization with overlap
     ethr =  1.00E-02,  avg # of iterations =  2.0

     total cpu time spent up to now is        3.2 secs

     total energy              =     -22.49865658 Ry
     estimated scf accuracy    <       1.20338770 Ry

     iteration #  2     ecut=    50.00 Ry     beta= 0.01
     Davidson diagonalization with overlap
     ethr =  1.00E-02,  avg # of iterations =  1.0

     total cpu time spent up to now is        4.6 secs

     total energy              =     -22.31237679 Ry
     estimated scf accuracy    <       1.22300728 Ry

     iteration #  3     ecut=    50.00 Ry     beta= 0.01
     Davidson diagonalization with overlap
     ethr =  1.00E-02,  avg # of iterations =  1.0

     total cpu time spent up to now is        6.4 secs

     total energy              =     -22.54831411 Ry
     estimated scf accuracy    <       2.94144411 Ry

     iteration #  4     ecut=    50.00 Ry     beta= 0.01
     Davidson diagonalization with overlap
     ethr =  1.00E-02,  avg # of iterations =  1.0

     total cpu time spent up to now is        8.4 secs

     total energy              =     -22.57106668 Ry
     estimated scf accuracy    <       0.00522710 Ry

     iteration #  5     ecut=    50.00 Ry     beta= 0.01
     Davidson diagonalization with overlap
     ethr =  6.53E-05,  avg # of iterations =  1.3

     total cpu time spent up to now is       10.3 secs

     total energy              =     -22.57147904 Ry
     estimated scf accuracy    <       0.00570144 Ry

     iteration #  6     ecut=    50.00 Ry     beta= 0.01
     Davidson diagonalization with overlap
     ethr =  6.53E-05,  avg # of iterations =  1.0

     total cpu time spent up to now is       12.3 secs

     total energy              =     -22.57122058 Ry
     estimated scf accuracy    <       0.00504244 Ry

     iteration #  7     ecut=    50.00 Ry     beta= 0.01
     Davidson diagonalization with overlap
     ethr =  6.30E-05,  avg # of iterations =  1.0

     total cpu time spent up to now is       13.8 secs

     total energy              =     -22.57030759 Ry
     estimated scf accuracy    <       0.00322270 Ry

     iteration #  8     ecut=    50.00 Ry     beta= 0.01
     Davidson diagonalization with overlap
     ethr =  4.03E-05,  avg # of iterations =  1.5

     total cpu time spent up to now is       15.4 secs

     total energy              =     -22.57058426 Ry
     estimated scf accuracy    <       0.00132408 Ry

     iteration #  9     ecut=    50.00 Ry     beta= 0.01
     Davidson diagonalization with overlap
     ethr =  1.66E-05,  avg # of iterations =  1.0

     total cpu time spent up to now is       17.2 secs

     total energy              =     -22.57059473 Ry
     estimated scf accuracy    <       0.00143161 Ry

     iteration # 10     ecut=    50.00 Ry     beta= 0.01
     Davidson diagonalization with overlap
     ethr =  1.66E-05,  avg # of iterations =  1.0

     total cpu time spent up to now is       18.2 secs

     total energy              =     -22.57060437 Ry
     estimated scf accuracy    <       0.00129684 Ry

     iteration # 11     ecut=    50.00 Ry     beta= 0.01
     Davidson diagonalization with overlap
     ethr =  1.62E-05,  avg # of iterations =  1.0

     total cpu time spent up to now is       19.0 secs

     total energy              =     -22.57063740 Ry
     estimated scf accuracy    <       0.00137421 Ry

     iteration # 12     ecut=    50.00 Ry     beta= 0.01
     Davidson diagonalization with overlap
     ethr =  1.62E-05,  avg # of iterations =  1.0

     total cpu time spent up to now is       19.6 secs

     total energy              =     -22.57065077 Ry
     estimated scf accuracy    <       0.00220045 Ry

     iteration # 13     ecut=    50.00 Ry     beta= 0.01
     Davidson diagonalization with overlap
     ethr =  1.62E-05,  avg # of iterations =  1.0

     total cpu time spent up to now is       20.2 secs

     total energy              =     -22.57066579 Ry
     estimated scf accuracy    <       0.00250379 Ry

     iteration # 14     ecut=    50.00 Ry     beta= 0.01
     Davidson diagonalization with overlap
     ethr =  1.62E-05,  avg # of iterations =  1.0

     total cpu time spent up to now is       20.8 secs

     total energy              =     -22.57068506 Ry
     estimated scf accuracy    <       0.00136947 Ry

     iteration # 15     ecut=    50.00 Ry     beta= 0.01
     Davidson diagonalization with overlap
     ethr =  1.62E-05,  avg # of iterations =  1.0

     total cpu time spent up to now is       21.4 secs

     total energy              =     -22.57069139 Ry
     estimated scf accuracy    <       0.00019555 Ry

     iteration # 16     ecut=    50.00 Ry     beta= 0.01
     Davidson diagonalization with overlap
     ethr =  2.44E-06,  avg # of iterations =  1.0

     total cpu time spent up to now is       21.9 secs

     total energy              =     -22.57069215 Ry
     estimated scf accuracy    <       0.00013356 Ry

     iteration # 17     ecut=    50.00 Ry     beta= 0.01
     Davidson diagonalization with overlap
     ethr =  1.67E-06,  avg # of iterations =  1.0

     total cpu time spent up to now is       22.5 secs

     total energy              =     -22.57070011 Ry
     estimated scf accuracy    <       0.00014291 Ry

     iteration # 18     ecut=    50.00 Ry     beta= 0.01
     Davidson diagonalization with overlap
     ethr =  1.67E-06,  avg # of iterations =  1.0

     total cpu time spent up to now is       23.1 secs

     total energy              =     -22.57070327 Ry
     estimated scf accuracy    <       0.00001913 Ry

     iteration # 19     ecut=    50.00 Ry     beta= 0.01
     Davidson diagonalization with overlap
     ethr =  2.39E-07,  avg # of iterations =  1.0

     total cpu time spent up to now is       23.7 secs

     total energy              =     -22.57070404 Ry
     estimated scf accuracy    <       0.00000290 Ry

     iteration # 20     ecut=    50.00 Ry     beta= 0.01
     Davidson diagonalization with overlap
     ethr =  3.63E-08,  avg # of iterations =  1.0

     total cpu time spent up to now is       24.2 secs

     total energy              =     -22.57070412 Ry
     estimated scf accuracy    <       0.00000399 Ry

     iteration # 21     ecut=    50.00 Ry     beta= 0.01
     Davidson diagonalization with overlap
     ethr =  3.63E-08,  avg # of iterations =  1.0

     total cpu time spent up to now is       24.8 secs

     total energy              =     -22.57070414 Ry
     estimated scf accuracy    <       0.00000401 Ry

     iteration # 22     ecut=    50.00 Ry     beta= 0.01
     Davidson diagonalization with overlap
     ethr =  3.63E-08,  avg # of iterations =  1.0

     total cpu time spent up to now is       25.3 secs

     End of self-consistent calculation

          k = 0.0000 0.0000 0.0000 (   725 PWs)   bands (ev):

   -10.7383   6.8052   6.8052   6.8052

          k =-0.1000 0.1000-0.1000 (   700 PWs)   bands (ev):

   -10.5264   5.4303   6.5275   6.5275

          k =-0.2000 0.2000-0.2000 (   691 PWs)   bands (ev):

    -9.8997   2.8592   5.9330   5.9330

          k =-0.3000 0.3000-0.3000 (   694 PWs)   bands (ev):

    -8.8955   0.2087   5.3653   5.3653

          k =-0.4000 0.4000-0.4000 (   685 PWs)   bands (ev):

    -7.6502  -2.0860   4.9918   4.9918

          k = 0.5000-0.5000 0.5000 (   700 PWs)   bands (ev):

    -6.8550  -3.2408   4.8513   4.8513

          k = 0.0000 0.2000 0.0000 (   693 PWs)   bands (ev):

   -10.4555   5.7368   6.0429   6.0429

          k =-0.1000 0.3000-0.1000 (   691 PWs)   bands (ev):

    -9.9662   3.6585   5.3802   5.6998

          k =-0.2000 0.4000-0.2000 (   697 PWs)   bands (ev):

    -9.0832   1.0966   4.8433   5.0755

          k =-0.3000 0.5000-0.3000 (   698 PWs)   bands (ev):

    -7.8916  -1.2997   4.4571   4.5468

          k = 0.6000-0.4000 0.6000 (   701 PWs)   bands (ev):

    -6.7905  -2.9750   4.0242   4.5399

          k = 0.5000-0.3000 0.5000 (   701 PWs)   bands (ev):

    -7.0859  -2.5611   3.8466   4.8137

          k = 0.4000-0.2000 0.4000 (   694 PWs)   bands (ev):

    -8.3143  -0.5344   3.9698   5.3209

          k = 0.3000-0.1000 0.3000 (   696 PWs)   bands (ev):

    -9.4201   1.9438   4.4169   5.9501

          k = 0.2000 0.0000 0.2000 (   694 PWs)   bands (ev):

   -10.1760   4.2432   5.2961   6.4690

          k = 0.0000 0.4000 0.0000 (   693 PWs)   bands (ev):

    -9.6159   3.5114   4.6765   4.6765

          k =-0.1000 0.5000-0.1000 (   693 PWs)   bands (ev):

    -8.8647   1.6779   4.0403   4.1130

          k =-0.2000 0.6000-0.2000 (   698 PWs)   bands (ev):

    -7.7675  -0.4911   3.2137   3.8171

          k = 0.7000-0.3000 0.7000 (   697 PWs)   bands (ev):

    -6.5486  -2.3510   2.4873   3.8424

          k = 0.6000-0.2000 0.6000 (   699 PWs)   bands (ev):

    -6.2773  -2.6976   2.0421   4.1736

          k = 0.5000-0.1000 0.5000 (   693 PWs)   bands (ev):

    -7.3794  -1.1157   2.0047   4.7518

          k = 0.4000 0.0000 0.4000 (   688 PWs)   bands (ev):

    -8.5524   0.7628   2.6685   5.4412

          k = 0.0000 0.6000 0.0000 (   701 PWs)   bands (ev):

    -8.2471   0.9571   3.4989   3.4989

          k =-0.1000 0.7000-0.1000 (   693 PWs)   bands (ev):

    -7.2648  -0.5393   2.6922   3.1563

          k = 0.8000-0.2000 0.8000 (   698 PWs)   bands (ev):

    -6.0477  -2.0800   1.5799   3.1388

          k = 0.7000-0.1000 0.7000 (   701 PWs)   bands (ev):

    -5.3294  -2.8516   0.7704   3.4530

          k = 0.6000-0.0000 0.6000 (   696 PWs)   bands (ev):

    -6.2048  -1.9355   0.7382   4.0377

          k = 0.0000 0.8000 0.0000 (   700 PWs)   bands (ev):

    -6.3999  -1.6545   2.7365   2.7365

          k = 0.9000-0.1000 0.9000 (   702 PWs)   bands (ev):

    -5.2460  -2.9287   2.0116   2.6503

          k = 0.8000 0.0000 0.8000 (   696 PWs)   bands (ev):

    -4.4440  -3.6005   0.9664   2.9034

          k = 0.0000-1.0000 0.0000 (   692 PWs)   bands (ev):

    -4.1611  -4.1611   2.4812   2.4812

          k =-0.2000 0.4000 0.0000 (   687 PWs)   bands (ev):

    -9.3463   2.3676   3.9610   5.3917

          k =-0.3000 0.5000-0.1000 (   697 PWs)   bands (ev):

    -8.3536   0.2824   3.1237   4.8213

          k = 0.6000-0.4000 0.8000 (   697 PWs)   bands (ev):

    -7.1208  -1.8240   2.7991   4.2830

          k = 0.5000-0.3000 0.7000 (   694 PWs)   bands (ev):

    -6.3267  -2.9317   2.7201   4.0668

          k =-0.2000 0.6000 0.0000 (   694 PWs)   bands (ev):

    -7.9996   0.3884   2.8254   3.7894

          k = 0.7000-0.3000 0.9000 (   699 PWs)   bands (ev):

    -6.8324  -1.2753   1.9851   3.3044

          k = 0.6000-0.2000 0.8000 (   701 PWs)   bands (ev):

    -5.7461  -2.6475   1.4173   3.2097

          k = 0.5000-0.1000 0.7000 (   699 PWs)   bands (ev):

    -6.0796  -2.2285   1.1834   3.5635

          k = 0.4000 0.0000 0.6000 (   692 PWs)   bands (ev):

    -7.2852  -0.7633   1.6218   4.1999

          k = 0.8000-0.2000 1.0000 (   695 PWs)   bands (ev):

    -6.1997  -1.7860   2.1493   2.5784

          k = 0.7000-0.1000 0.9000 (   700 PWs)   bands (ev):

    -5.0097  -2.9628   1.1934   2.4611

          k = 0.6000 0.0000 0.8000 (   701 PWs)   bands (ev):

    -4.9790  -2.9510   0.5910   2.8669

          k =-0.2000-1.0000 0.0000 (   704 PWs)   bands (ev):

    -4.0645  -4.0645   2.0390   2.0390

          k = 0.6000-0.2000 1.0000 (   700 PWs)   bands (ev):

    -5.6585  -2.2504   1.1310   2.5418

          k = 0.5000-0.1000 0.9000 (   700 PWs)   bands (ev):

    -4.8299  -3.0299   0.8993   2.1792

          k =-0.4000-1.0000 0.0000 (   700 PWs)   bands (ev):

    -3.8904  -3.8904   1.4037   1.4037

     highest occupied level (ev):     6.8052

!    total energy              =     -22.57070412 Ry
     estimated scf accuracy    <       0.00000056 Ry

     The total energy is the sum of the following terms:
     one-electron contribution =       3.69713296 Ry
     hartree contribution      =       2.40701900 Ry
     xc contribution           =      -6.45700126 Ry
     ewald contribution        =     -22.21785481 Ry

     convergence has been achieved in  22 iterations
     Writing meta-gga kinetic term

     Writing all to output data dir ./input_pw/C/10/pwscf.save/
     Writing meta-gga kinetic term
 
     init_run     :      0.77s CPU      1.31s WALL (       1 calls)
     electrons    :     16.82s CPU     23.98s WALL (       1 calls)

     Called by init_run:
     wfcinit      :      0.72s CPU      1.16s WALL (       1 calls)
     potinit      :      0.02s CPU      0.05s WALL (       1 calls)
     hinit0       :      0.03s CPU      0.09s WALL (       1 calls)

     Called by electrons:
     c_bands      :     13.00s CPU     18.59s WALL (      22 calls)
     sum_band     :      3.34s CPU      4.75s WALL (      22 calls)
     v_of_rho     :      0.35s CPU      0.50s WALL (      23 calls)
     mix_rho      :      0.13s CPU      0.19s WALL (      22 calls)

     Called by c_bands:
     init_us_2    :      0.05s CPU      0.07s WALL (    2115 calls)
     init_us_2:cp :      0.04s CPU      0.06s WALL (    2115 calls)
     cegterg      :     12.94s CPU     18.51s WALL (    1034 calls)

     Called by *egterg:
     cdiaghg      :      0.08s CPU      0.12s WALL (    2152 calls)
     h_psi        :     13.40s CPU     19.30s WALL (    2199 calls)
     g_psi        :      0.01s CPU      0.02s WALL (    1118 calls)

     Called by h_psi:
     h_psi:calbec :      0.02s CPU      0.02s WALL (    2199 calls)
     vloc_psi     :      3.32s CPU      4.71s WALL (    2199 calls)
     add_vuspsi   :      0.03s CPU      0.05s WALL (    2199 calls)
     h_psi_meta   :     10.01s CPU     14.49s WALL (    2199 calls)

     General routines
     calbec       :      0.02s CPU      0.02s WALL (    2199 calls)
     fft          :      0.04s CPU      0.07s WALL (     273 calls)
     ffts         :      0.07s CPU      0.08s WALL (     405 calls)
     fftw         :     14.16s CPU     20.46s WALL (   87032 calls)
     interpolate  :      0.00s CPU      0.00s WALL (      23 calls)
 
     Parallel routines
 
     PWSCF        :     17.62s CPU     25.35s WALL

 
   This run was terminated on:  11:48:41  14Mar2023            

=------------------------------------------------------------------------------=
   JOB DONE.
=------------------------------------------------------------------------------=
