
     Program PWSCF v.7.0 starts on 29Mar2023 at 12:34:19 

     This program is part of the open-source Quantum ESPRESSO suite
     for quantum simulation of materials; please cite
         "P. Giannozzi et al., J. Phys.:Condens. Matter 21 395502 (2009);
         "P. Giannozzi et al., J. Phys.:Condens. Matter 29 465901 (2017);
         "P. Giannozzi et al., J. Chem. Phys. 152 154105 (2020);
          URL http://www.quantum-espresso.org", 
     in publications or presentations arising from this work. More details at
     http://www.quantum-espresso.org/quote

     Parallel version (MPI), running on     1 processors

     MPI processes distributed on     1 nodes
     23101 MiB available memory on the printing compute node when the environment starts
 
     Waiting for input...
     Reading input from standard input
Warning: card &CELL ignored
Warning: card / ignored

     Current dimensions of program PWSCF are:
     Max number of different atomic species (ntypx) = 10
     Max number of k-points (npk) =  40000
     Max angular momentum in pseudopotentials (lmaxx) =  4

     WARNING: the MGGA functional with ID    5 has been 
     read together with other dft terms, but it should 
     stand alone in order to work properly. The other 
     terms will be ignored.

     Subspace diagonalization in iterative solution of the eigenvalue problem:
     a serial algorithm will be used

 
     G-vector sticks info
     --------------------
     sticks:   dense  smooth     PW     G-vecs:    dense   smooth      PW
     Sum         397     397    127                 5209     5209     965
 
     Using Slab Decomposition
 


     bravais-lattice index     =            2
     lattice parameter (alat)  =       7.6224  a.u.
     unit-cell volume          =     110.7172 (a.u.)^3
     number of atoms/cell      =            2
     number of atomic types    =            1
     number of electrons       =         8.00
     number of Kohn-Sham states=            4
     kinetic-energy cutoff     =      50.0000  Ry
     charge density cutoff     =     200.0000  Ry
     scf convergence threshold =      1.0E-06
     mixing beta               =       0.0100
     number of iterations used =            8  local-TF  mixing
     Exchange-correlation= SLA  PW   SCAN SCAN
                           (   0   0   0   0   0 263 267)

     celldm(1)=   7.622399  celldm(2)=   0.000000  celldm(3)=   0.000000
     celldm(4)=   0.000000  celldm(5)=   0.000000  celldm(6)=   0.000000

     crystal axes: (cart. coord. in units of alat)
               a(1) = (  -0.500000   0.000000   0.500000 )  
               a(2) = (   0.000000   0.500000   0.500000 )  
               a(3) = (  -0.500000   0.500000   0.000000 )  

     reciprocal axes: (cart. coord. in units 2 pi/alat)
               b(1) = ( -1.000000 -1.000000  1.000000 )  
               b(2) = (  1.000000  1.000000  1.000000 )  
               b(3) = ( -1.000000  1.000000 -1.000000 )  


     PseudoPot. # 1 for C  read from file:
     ~/Documents/TA/PWDFT.jl/pseudopotentials/scan_upf/C.SCAN.UPF2
     MD5 check sum: Not computed, couldn't open file
     Pseudo is Norm-conserving, Zval =  4.0
     Generated by new atomic code, or converted to UPF format
     Using radial grid of 1389 points,  1 beta functions with: 
                l(1) =   0

     atomic species   valence    mass     pseudopotential
        C              4.00    12.01100     C ( 1.00)

     48 Sym. Ops., with inversion, found (24 have fractional translation)



   Cartesian axes

     site n.     atom                  positions (alat units)
         1           C   tau(   1) = (   0.0000000   0.0000000   0.0000000  )
         2           C   tau(   2) = (   0.2500000   0.2500000   0.2500000  )

     number of k points=    47
                       cart. coord. in units 2pi/alat
        k(    1) = (   0.0000000   0.0000000   0.0000000), wk =   0.0020000
        k(    2) = (  -0.1000000   0.1000000  -0.1000000), wk =   0.0160000
        k(    3) = (  -0.2000000   0.2000000  -0.2000000), wk =   0.0160000
        k(    4) = (  -0.3000000   0.3000000  -0.3000000), wk =   0.0160000
        k(    5) = (  -0.4000000   0.4000000  -0.4000000), wk =   0.0160000
        k(    6) = (   0.5000000  -0.5000000   0.5000000), wk =   0.0080000
        k(    7) = (   0.0000000   0.2000000   0.0000000), wk =   0.0120000
        k(    8) = (  -0.1000000   0.3000000  -0.1000000), wk =   0.0480000
        k(    9) = (  -0.2000000   0.4000000  -0.2000000), wk =   0.0480000
        k(   10) = (  -0.3000000   0.5000000  -0.3000000), wk =   0.0480000
        k(   11) = (   0.6000000  -0.4000000   0.6000000), wk =   0.0480000
        k(   12) = (   0.5000000  -0.3000000   0.5000000), wk =   0.0480000
        k(   13) = (   0.4000000  -0.2000000   0.4000000), wk =   0.0480000
        k(   14) = (   0.3000000  -0.1000000   0.3000000), wk =   0.0480000
        k(   15) = (   0.2000000   0.0000000   0.2000000), wk =   0.0240000
        k(   16) = (   0.0000000   0.4000000   0.0000000), wk =   0.0120000
        k(   17) = (  -0.1000000   0.5000000  -0.1000000), wk =   0.0480000
        k(   18) = (  -0.2000000   0.6000000  -0.2000000), wk =   0.0480000
        k(   19) = (   0.7000000  -0.3000000   0.7000000), wk =   0.0480000
        k(   20) = (   0.6000000  -0.2000000   0.6000000), wk =   0.0480000
        k(   21) = (   0.5000000  -0.1000000   0.5000000), wk =   0.0480000
        k(   22) = (   0.4000000   0.0000000   0.4000000), wk =   0.0240000
        k(   23) = (   0.0000000   0.6000000   0.0000000), wk =   0.0120000
        k(   24) = (  -0.1000000   0.7000000  -0.1000000), wk =   0.0480000
        k(   25) = (   0.8000000  -0.2000000   0.8000000), wk =   0.0480000
        k(   26) = (   0.7000000  -0.1000000   0.7000000), wk =   0.0480000
        k(   27) = (   0.6000000  -0.0000000   0.6000000), wk =   0.0240000
        k(   28) = (   0.0000000   0.8000000   0.0000000), wk =   0.0120000
        k(   29) = (   0.9000000  -0.1000000   0.9000000), wk =   0.0480000
        k(   30) = (   0.8000000   0.0000000   0.8000000), wk =   0.0240000
        k(   31) = (   0.0000000  -1.0000000   0.0000000), wk =   0.0060000
        k(   32) = (  -0.2000000   0.4000000   0.0000000), wk =   0.0480000
        k(   33) = (  -0.3000000   0.5000000  -0.1000000), wk =   0.0960000
        k(   34) = (   0.6000000  -0.4000000   0.8000000), wk =   0.0960000
        k(   35) = (   0.5000000  -0.3000000   0.7000000), wk =   0.0480000
        k(   36) = (  -0.2000000   0.6000000   0.0000000), wk =   0.0480000
        k(   37) = (   0.7000000  -0.3000000   0.9000000), wk =   0.0960000
        k(   38) = (   0.6000000  -0.2000000   0.8000000), wk =   0.0960000
        k(   39) = (   0.5000000  -0.1000000   0.7000000), wk =   0.0960000
        k(   40) = (   0.4000000   0.0000000   0.6000000), wk =   0.0480000
        k(   41) = (   0.8000000  -0.2000000   1.0000000), wk =   0.0480000
        k(   42) = (   0.7000000  -0.1000000   0.9000000), wk =   0.0960000
        k(   43) = (   0.6000000   0.0000000   0.8000000), wk =   0.0480000
        k(   44) = (  -0.2000000  -1.0000000   0.0000000), wk =   0.0240000
        k(   45) = (   0.6000000  -0.2000000   1.0000000), wk =   0.0480000
        k(   46) = (   0.5000000  -0.1000000   0.9000000), wk =   0.0480000
        k(   47) = (  -0.4000000  -1.0000000   0.0000000), wk =   0.0240000

     Dense  grid:     5209 G-vectors     FFT dimensions: (  32,  32,  32)

     Estimated max dynamical RAM per process >      11.62 MB

     WARNING: libxc functional with ID  263 depends
      on external parameters: check the user_guide of
      QE if you need to modify them or to check their
      default values.

     Initial potential from superposition of free atoms

     starting charge       7.9999, renormalised to       8.0000
     Starting wfcs are    8 randomized atomic wfcs

     total cpu time spent up to now is        1.6 secs

     Self-consistent Calculation

     iteration #  1     ecut=    50.00 Ry     beta= 0.01
     Davidson diagonalization with overlap
     ethr =  1.00E-02,  avg # of iterations =  2.0

     total cpu time spent up to now is        4.0 secs

     total energy              =     -22.52258491 Ry
     estimated scf accuracy    <       1.28547031 Ry

     iteration #  2     ecut=    50.00 Ry     beta= 0.01
     Davidson diagonalization with overlap
     ethr =  1.00E-02,  avg # of iterations =  1.0

     total cpu time spent up to now is        5.9 secs

     total energy              =     -22.25578168 Ry
     estimated scf accuracy    <       1.30365572 Ry

     iteration #  3     ecut=    50.00 Ry     beta= 0.01
     Davidson diagonalization with overlap
     ethr =  1.00E-02,  avg # of iterations =  1.0

     total cpu time spent up to now is        7.9 secs

     total energy              =     -22.57105141 Ry
     estimated scf accuracy    <       3.43870610 Ry

     iteration #  4     ecut=    50.00 Ry     beta= 0.01
     Davidson diagonalization with overlap
     ethr =  1.00E-02,  avg # of iterations =  1.0

     total cpu time spent up to now is        9.8 secs

     total energy              =     -22.60489793 Ry
     estimated scf accuracy    <       0.00624173 Ry

     iteration #  5     ecut=    50.00 Ry     beta= 0.01
     Davidson diagonalization with overlap
     ethr =  7.80E-05,  avg # of iterations =  2.0

     total cpu time spent up to now is       12.2 secs

     total energy              =     -22.60552287 Ry
     estimated scf accuracy    <       0.00638787 Ry

     iteration #  6     ecut=    50.00 Ry     beta= 0.01
     Davidson diagonalization with overlap
     ethr =  7.80E-05,  avg # of iterations =  1.0

     total cpu time spent up to now is       14.1 secs

     total energy              =     -22.60459533 Ry
     estimated scf accuracy    <       0.00546697 Ry

     iteration #  7     ecut=    50.00 Ry     beta= 0.01
     Davidson diagonalization with overlap
     ethr =  6.83E-05,  avg # of iterations =  1.0

     total cpu time spent up to now is       15.6 secs

     total energy              =     -22.60426536 Ry
     estimated scf accuracy    <       0.00160144 Ry

     iteration #  8     ecut=    50.00 Ry     beta= 0.01
     Davidson diagonalization with overlap
     ethr =  2.00E-05,  avg # of iterations =  1.8

     total cpu time spent up to now is       17.7 secs

     total energy              =     -22.60441568 Ry
     estimated scf accuracy    <       0.00235185 Ry

     iteration #  9     ecut=    50.00 Ry     beta= 0.01
     Davidson diagonalization with overlap
     ethr =  2.00E-05,  avg # of iterations =  1.0

     total cpu time spent up to now is       18.9 secs

     total energy              =     -22.60441923 Ry
     estimated scf accuracy    <       0.00240717 Ry

     iteration # 10     ecut=    50.00 Ry     beta= 0.01
     Davidson diagonalization with overlap
     ethr =  2.00E-05,  avg # of iterations =  1.0

     total cpu time spent up to now is       20.1 secs

     total energy              =     -22.60446547 Ry
     estimated scf accuracy    <       0.00195207 Ry

     iteration # 11     ecut=    50.00 Ry     beta= 0.01
     Davidson diagonalization with overlap
     ethr =  2.00E-05,  avg # of iterations =  1.0

     total cpu time spent up to now is       21.6 secs

     total energy              =     -22.60453261 Ry
     estimated scf accuracy    <       0.00126196 Ry

     iteration # 12     ecut=    50.00 Ry     beta= 0.01
     Davidson diagonalization with overlap
     ethr =  1.58E-05,  avg # of iterations =  1.0

     total cpu time spent up to now is       22.5 secs

     total energy              =     -22.60453969 Ry
     estimated scf accuracy    <       0.00003753 Ry

     iteration # 13     ecut=    50.00 Ry     beta= 0.01
     Davidson diagonalization with overlap
     ethr =  4.69E-07,  avg # of iterations =  1.0

     total cpu time spent up to now is       23.5 secs

     total energy              =     -22.60454090 Ry
     estimated scf accuracy    <       0.00002615 Ry

     iteration # 14     ecut=    50.00 Ry     beta= 0.01
     Davidson diagonalization with overlap
     ethr =  3.27E-07,  avg # of iterations =  1.0

     total cpu time spent up to now is       24.1 secs

     total energy              =     -22.60454357 Ry
     estimated scf accuracy    <       0.00001313 Ry

     iteration # 15     ecut=    50.00 Ry     beta= 0.01
     Davidson diagonalization with overlap
     ethr =  1.64E-07,  avg # of iterations =  1.0

     total cpu time spent up to now is       24.7 secs

     total energy              =     -22.60454457 Ry
     estimated scf accuracy    <       0.00000580 Ry

     iteration # 16     ecut=    50.00 Ry     beta= 0.01
     Davidson diagonalization with overlap
     ethr =  7.26E-08,  avg # of iterations =  1.0

     total cpu time spent up to now is       25.3 secs

     total energy              =     -22.60454469 Ry
     estimated scf accuracy    <       0.00001268 Ry

     iteration # 17     ecut=    50.00 Ry     beta= 0.01
     Davidson diagonalization with overlap
     ethr =  7.26E-08,  avg # of iterations =  1.0

     total cpu time spent up to now is       25.8 secs

     total energy              =     -22.60454621 Ry
     estimated scf accuracy    <       0.00001133 Ry

     iteration # 18     ecut=    50.00 Ry     beta= 0.01
     Davidson diagonalization with overlap
     ethr =  7.26E-08,  avg # of iterations =  1.0

     total cpu time spent up to now is       26.4 secs

     total energy              =     -22.60454648 Ry
     estimated scf accuracy    <       0.00000240 Ry

     iteration # 19     ecut=    50.00 Ry     beta= 0.01
     Davidson diagonalization with overlap
     ethr =  3.00E-08,  avg # of iterations =  1.0

     total cpu time spent up to now is       26.9 secs

     End of self-consistent calculation

          k = 0.0000 0.0000 0.0000 (   645 PWs)   bands (ev):

   -10.5723   7.5159   7.5159   7.5159

          k =-0.1000 0.1000-0.1000 (   649 PWs)   bands (ev):

   -10.3513   6.0985   7.2077   7.2077

          k =-0.2000 0.2000-0.2000 (   649 PWs)   bands (ev):

    -9.6976   3.4550   6.5716   6.5716

          k =-0.3000 0.3000-0.3000 (   652 PWs)   bands (ev):

    -8.6466   0.7126   5.9776   5.9776

          k =-0.4000 0.4000-0.4000 (   664 PWs)   bands (ev):

    -7.3312  -1.6986   5.5817   5.5817

          k = 0.5000-0.5000 0.5000 (   652 PWs)   bands (ev):

    -6.4693  -2.9342   5.4557   5.4557

          k = 0.0000 0.2000 0.0000 (   657 PWs)   bands (ev):

   -10.2777   6.4692   6.6848   6.6848

          k =-0.1000 0.3000-0.1000 (   660 PWs)   bands (ev):

    -9.7674   4.2988   5.9835   6.3543

          k =-0.2000 0.4000-0.2000 (   649 PWs)   bands (ev):

    -8.8446   1.6514   5.4172   5.7095

          k =-0.3000 0.5000-0.3000 (   652 PWs)   bands (ev):

    -7.5914  -0.8614   5.0644   5.1190

          k = 0.6000-0.4000 0.6000 (   659 PWs)   bands (ev):

    -6.4100  -2.6390   4.6015   5.1171

          k = 0.5000-0.3000 0.5000 (   659 PWs)   bands (ev):

    -6.7312  -2.1937   4.4132   5.4036

          k = 0.4000-0.2000 0.4000 (   653 PWs)   bands (ev):

    -8.0372  -0.0554   4.5353   5.9342

          k = 0.3000-0.1000 0.3000 (   652 PWs)   bands (ev):

    -9.1966   2.5315   4.9845   6.5968

          k = 0.2000 0.0000 0.2000 (   658 PWs)   bands (ev):

    -9.9858   4.9061   5.8895   7.1499

          k = 0.0000 0.4000 0.0000 (   653 PWs)   bands (ev):

    -9.4025   4.2407   5.2402   5.2402

          k =-0.1000 0.5000-0.1000 (   655 PWs)   bands (ev):

    -8.6184   2.3195   4.6037   4.6478

          k =-0.2000 0.6000-0.2000 (   662 PWs)   bands (ev):

    -7.4681   0.0367   3.7546   4.3457

          k = 0.7000-0.3000 0.7000 (   667 PWs)   bands (ev):

    -6.1739  -1.9341   2.9951   4.3739

          k = 0.6000-0.2000 0.6000 (   660 PWs)   bands (ev):

    -5.8776  -2.3091   2.5280   4.7268

          k = 0.5000-0.1000 0.5000 (   659 PWs)   bands (ev):

    -7.0563  -0.6215   2.4654   5.3358

          k = 0.4000 0.0000 0.4000 (   648 PWs)   bands (ev):

    -8.2893   1.3565   3.1361   6.0576

          k = 0.0000 0.6000 0.0000 (   652 PWs)   bands (ev):

    -7.9745   1.6252   4.0032   4.0032

          k =-0.1000 0.7000-0.1000 (   658 PWs)   bands (ev):

    -6.9480   0.0618   3.1610   3.6431

          k = 0.8000-0.2000 0.8000 (   668 PWs)   bands (ev):

    -5.6659  -1.5570   1.9907   3.6264

          k = 0.7000-0.1000 0.7000 (   669 PWs)   bands (ev):

    -4.8868  -2.3874   1.1351   3.9539

          k = 0.6000-0.0000 0.6000 (   670 PWs)   bands (ev):

    -5.8182  -1.4201   1.0922   4.5709

          k = 0.0000 0.8000 0.0000 (   664 PWs)   bands (ev):

    -6.0472  -1.0952   3.2038   3.2038

          k = 0.9000-0.1000 0.9000 (   662 PWs)   bands (ev):

    -4.8382  -2.4181   2.4393   3.1139

          k = 0.8000 0.0000 0.8000 (   678 PWs)   bands (ev):

    -3.9707  -3.1325   1.3118   3.3758

          k = 0.0000-1.0000 0.0000 (   652 PWs)   bands (ev):

    -3.7069  -3.7069   2.9342   2.9342

          k =-0.2000 0.4000 0.0000 (   652 PWs)   bands (ev):

    -9.1205   3.0115   4.4876   6.0186

          k =-0.3000 0.5000-0.1000 (   657 PWs)   bands (ev):

    -8.0815   0.8331   3.6398   5.4124

          k = 0.6000-0.4000 0.8000 (   661 PWs)   bands (ev):

    -6.7799  -1.3883   3.3200   4.8396

          k = 0.5000-0.3000 0.7000 (   664 PWs)   bands (ev):

    -5.9225  -2.5760   3.2483   4.6042

          k =-0.2000 0.6000 0.0000 (   656 PWs)   bands (ev):

    -7.7140   1.0093   3.2986   4.3202

          k = 0.7000-0.3000 0.9000 (   663 PWs)   bands (ev):

    -6.4878  -0.7357   2.4338   3.8033

          k = 0.6000-0.2000 0.8000 (   664 PWs)   bands (ev):

    -5.3271  -2.2036   1.8509   3.7004

          k = 0.5000-0.1000 0.7000 (   671 PWs)   bands (ev):

    -5.6838  -1.7549   1.5886   4.0772

          k = 0.4000 0.0000 0.6000 (   665 PWs)   bands (ev):

    -6.9609  -0.2057   2.0311   4.7505

          k = 0.8000-0.2000 1.0000 (   664 PWs)   bands (ev):

    -5.8330  -1.2262   2.5847   3.0320

          k = 0.7000-0.1000 0.9000 (   664 PWs)   bands (ev):

    -4.5742  -2.4520   1.5645   2.9107

          k = 0.6000 0.0000 0.8000 (   666 PWs)   bands (ev):

    -4.5240  -2.4540   0.9216   3.3407

          k =-0.2000-1.0000 0.0000 (   662 PWs)   bands (ev):

    -3.5986  -3.5986   2.4665   2.4665

          k = 0.6000-0.2000 1.0000 (   666 PWs)   bands (ev):

    -5.2527  -1.7121   1.5059   2.9905

          k = 0.5000-0.1000 0.9000 (   674 PWs)   bands (ev):

    -4.3701  -2.5317   1.2569   2.6016

          k =-0.4000-1.0000 0.0000 (   670 PWs)   bands (ev):

    -3.4009  -3.4009   1.7810   1.7810

     highest occupied level (ev):     7.5159

!    total energy              =     -22.60454657 Ry
     estimated scf accuracy    <       0.00000026 Ry

     The total energy is the sum of the following terms:
     one-electron contribution =       4.19693523 Ry
     hartree contribution      =       2.34062244 Ry
     xc contribution           =      -6.52750075 Ry
     ewald contribution        =     -22.61460349 Ry

     convergence has been achieved in  19 iterations
     Writing meta-gga kinetic term

     Writing all to output data dir ./input_pw/C/10/pwscf.save/
     Writing meta-gga kinetic term
 
     init_run     :      0.75s CPU      1.54s WALL (       1 calls)
     electrons    :     16.35s CPU     25.37s WALL (       1 calls)

     Called by init_run:
     wfcinit      :      0.71s CPU      1.38s WALL (       1 calls)
     potinit      :      0.01s CPU      0.10s WALL (       1 calls)
     hinit0       :      0.03s CPU      0.06s WALL (       1 calls)

     Called by electrons:
     c_bands      :     12.66s CPU     19.77s WALL (      19 calls)
     sum_band     :      3.24s CPU      4.94s WALL (      19 calls)
     v_of_rho     :      0.33s CPU      0.57s WALL (      20 calls)
     mix_rho      :      0.12s CPU      0.18s WALL (      19 calls)

     Called by c_bands:
     init_us_2    :      0.04s CPU      0.08s WALL (    1833 calls)
     init_us_2:cp :      0.04s CPU      0.05s WALL (    1833 calls)
     cegterg      :     12.61s CPU     19.68s WALL (     893 calls)

     Called by *egterg:
     cdiaghg      :      0.07s CPU      0.07s WALL (    1916 calls)
     h_psi        :     13.08s CPU     20.69s WALL (    1963 calls)
     g_psi        :      0.01s CPU      0.02s WALL (    1023 calls)

     Called by h_psi:
     h_psi:calbec :      0.02s CPU      0.03s WALL (    1963 calls)
     vloc_psi     :      3.24s CPU      5.26s WALL (    1963 calls)
     add_vuspsi   :      0.03s CPU      0.04s WALL (    1963 calls)
     h_psi_meta   :      9.76s CPU     15.32s WALL (    1963 calls)

     General routines
     calbec       :      0.02s CPU      0.02s WALL (    1963 calls)
     fft          :      0.04s CPU      0.08s WALL (     237 calls)
     ffts         :      0.06s CPU      0.08s WALL (     346 calls)
     fftw         :     13.82s CPU     21.64s WALL (   76864 calls)
     interpolate  :      0.00s CPU      0.00s WALL (      20 calls)
 
     Parallel routines
 
     PWSCF        :     17.13s CPU     26.94s WALL

 
   This run was terminated on:  12:34:46  29Mar2023            

=------------------------------------------------------------------------------=
   JOB DONE.
=------------------------------------------------------------------------------=
