
     Program PWSCF v.7.0 starts on  7Jul2023 at 14:25:23 

     This program is part of the open-source Quantum ESPRESSO suite
     for quantum simulation of materials; please cite
         "P. Giannozzi et al., J. Phys.:Condens. Matter 21 395502 (2009);
         "P. Giannozzi et al., J. Phys.:Condens. Matter 29 465901 (2017);
         "P. Giannozzi et al., J. Chem. Phys. 152 154105 (2020);
          URL http://www.quantum-espresso.org", 
     in publications or presentations arising from this work. More details at
     http://www.quantum-espresso.org/quote

     Parallel version (MPI), running on     1 processors

     MPI processes distributed on     1 nodes
     27271 MiB available memory on the printing compute node when the environment starts
 
     Waiting for input...
     Reading input from standard input
Warning: card &CELL ignored
Warning: card / ignored

     Current dimensions of program PWSCF are:
     Max number of different atomic species (ntypx) = 10
     Max number of k-points (npk) =  40000
     Max angular momentum in pseudopotentials (lmaxx) =  4

     WARNING: the MGGA functional with ID    5 has been 
     read together with other dft terms, but it should 
     stand alone in order to work properly. The other 
     terms will be ignored.

     Subspace diagonalization in iterative solution of the eigenvalue problem:
     a serial algorithm will be used

 
     G-vector sticks info
     --------------------
     sticks:   dense  smooth     PW     G-vecs:    dense   smooth      PW
     Sum         499     499    163                 7119     7119    1291
 
     Using Slab Decomposition
 


     bravais-lattice index     =            2
     lattice parameter (alat)  =       8.3846  a.u.
     unit-cell volume          =     147.3646 (a.u.)^3
     number of atoms/cell      =            2
     number of atomic types    =            1
     number of electrons       =         8.00
     number of Kohn-Sham states=            4
     kinetic-energy cutoff     =      50.0000  Ry
     charge density cutoff     =     200.0000  Ry
     scf convergence threshold =      2.0E-05
     mixing beta               =       0.2000
     number of iterations used =            8  local-TF  mixing
     Exchange-correlation= SLA  PW   SCAN SCAN
                           (   0   0   0   0   0 263 267)

     celldm(1)=   8.384639  celldm(2)=   0.000000  celldm(3)=   0.000000
     celldm(4)=   0.000000  celldm(5)=   0.000000  celldm(6)=   0.000000

     crystal axes: (cart. coord. in units of alat)
               a(1) = (  -0.500000   0.000000   0.500000 )  
               a(2) = (   0.000000   0.500000   0.500000 )  
               a(3) = (  -0.500000   0.500000   0.000000 )  

     reciprocal axes: (cart. coord. in units 2 pi/alat)
               b(1) = ( -1.000000 -1.000000  1.000000 )  
               b(2) = (  1.000000  1.000000  1.000000 )  
               b(3) = ( -1.000000  1.000000 -1.000000 )  


     PseudoPot. # 1 for C  read from file:
     ~/Documents/TA/PWDFT.jl/pseudopotentials/scan_upf/C.SCAN.UPF2
     MD5 check sum: Not computed, couldn't open file
     Pseudo is Norm-conserving, Zval =  4.0
     Generated by new atomic code, or converted to UPF format
     Using radial grid of 1389 points,  1 beta functions with: 
                l(1) =   0

     atomic species   valence    mass     pseudopotential
        C              4.00    12.01100     C ( 1.00)

     48 Sym. Ops., with inversion, found (24 have fractional translation)



   Cartesian axes

     site n.     atom                  positions (alat units)
         1           C   tau(   1) = (   0.0000000   0.0000000   0.0000000  )
         2           C   tau(   2) = (   0.2500000   0.2500000   0.2500000  )

     number of k points=    47
                       cart. coord. in units 2pi/alat
        k(    1) = (   0.0000000   0.0000000   0.0000000), wk =   0.0020000
        k(    2) = (  -0.1000000   0.1000000  -0.1000000), wk =   0.0160000
        k(    3) = (  -0.2000000   0.2000000  -0.2000000), wk =   0.0160000
        k(    4) = (  -0.3000000   0.3000000  -0.3000000), wk =   0.0160000
        k(    5) = (  -0.4000000   0.4000000  -0.4000000), wk =   0.0160000
        k(    6) = (   0.5000000  -0.5000000   0.5000000), wk =   0.0080000
        k(    7) = (   0.0000000   0.2000000   0.0000000), wk =   0.0120000
        k(    8) = (  -0.1000000   0.3000000  -0.1000000), wk =   0.0480000
        k(    9) = (  -0.2000000   0.4000000  -0.2000000), wk =   0.0480000
        k(   10) = (  -0.3000000   0.5000000  -0.3000000), wk =   0.0480000
        k(   11) = (   0.6000000  -0.4000000   0.6000000), wk =   0.0480000
        k(   12) = (   0.5000000  -0.3000000   0.5000000), wk =   0.0480000
        k(   13) = (   0.4000000  -0.2000000   0.4000000), wk =   0.0480000
        k(   14) = (   0.3000000  -0.1000000   0.3000000), wk =   0.0480000
        k(   15) = (   0.2000000   0.0000000   0.2000000), wk =   0.0240000
        k(   16) = (   0.0000000   0.4000000   0.0000000), wk =   0.0120000
        k(   17) = (  -0.1000000   0.5000000  -0.1000000), wk =   0.0480000
        k(   18) = (  -0.2000000   0.6000000  -0.2000000), wk =   0.0480000
        k(   19) = (   0.7000000  -0.3000000   0.7000000), wk =   0.0480000
        k(   20) = (   0.6000000  -0.2000000   0.6000000), wk =   0.0480000
        k(   21) = (   0.5000000  -0.1000000   0.5000000), wk =   0.0480000
        k(   22) = (   0.4000000   0.0000000   0.4000000), wk =   0.0240000
        k(   23) = (   0.0000000   0.6000000   0.0000000), wk =   0.0120000
        k(   24) = (  -0.1000000   0.7000000  -0.1000000), wk =   0.0480000
        k(   25) = (   0.8000000  -0.2000000   0.8000000), wk =   0.0480000
        k(   26) = (   0.7000000  -0.1000000   0.7000000), wk =   0.0480000
        k(   27) = (   0.6000000  -0.0000000   0.6000000), wk =   0.0240000
        k(   28) = (   0.0000000   0.8000000   0.0000000), wk =   0.0120000
        k(   29) = (   0.9000000  -0.1000000   0.9000000), wk =   0.0480000
        k(   30) = (   0.8000000   0.0000000   0.8000000), wk =   0.0240000
        k(   31) = (   0.0000000  -1.0000000   0.0000000), wk =   0.0060000
        k(   32) = (  -0.2000000   0.4000000   0.0000000), wk =   0.0480000
        k(   33) = (  -0.3000000   0.5000000  -0.1000000), wk =   0.0960000
        k(   34) = (   0.6000000  -0.4000000   0.8000000), wk =   0.0960000
        k(   35) = (   0.5000000  -0.3000000   0.7000000), wk =   0.0480000
        k(   36) = (  -0.2000000   0.6000000   0.0000000), wk =   0.0480000
        k(   37) = (   0.7000000  -0.3000000   0.9000000), wk =   0.0960000
        k(   38) = (   0.6000000  -0.2000000   0.8000000), wk =   0.0960000
        k(   39) = (   0.5000000  -0.1000000   0.7000000), wk =   0.0960000
        k(   40) = (   0.4000000   0.0000000   0.6000000), wk =   0.0480000
        k(   41) = (   0.8000000  -0.2000000   1.0000000), wk =   0.0480000
        k(   42) = (   0.7000000  -0.1000000   0.9000000), wk =   0.0960000
        k(   43) = (   0.6000000   0.0000000   0.8000000), wk =   0.0480000
        k(   44) = (  -0.2000000  -1.0000000   0.0000000), wk =   0.0240000
        k(   45) = (   0.6000000  -0.2000000   1.0000000), wk =   0.0480000
        k(   46) = (   0.5000000  -0.1000000   0.9000000), wk =   0.0480000
        k(   47) = (  -0.4000000  -1.0000000   0.0000000), wk =   0.0240000

     Dense  grid:     7119 G-vectors     FFT dimensions: (  32,  32,  32)

     Estimated max dynamical RAM per process >      14.43 MB

     WARNING: libxc functional with ID  263 depends
      on external parameters: check the user_guide of
      QE if you need to modify them or to check their
      default values.

     Initial potential from superposition of free atoms

     starting charge       7.9999, renormalised to       8.0000
     Starting wfcs are    8 randomized atomic wfcs

     total cpu time spent up to now is        1.7 secs

     Self-consistent Calculation

     iteration #  1     ecut=    50.00 Ry     beta= 0.20
     Davidson diagonalization with overlap
     ethr =  1.00E-02,  avg # of iterations =  1.7

     total cpu time spent up to now is        3.8 secs

     total energy              =     -22.34717779 Ry
     estimated scf accuracy    <       0.90150184 Ry

     iteration #  2     ecut=    50.00 Ry     beta= 0.20
     Davidson diagonalization with overlap
     ethr =  1.00E-02,  avg # of iterations =  1.0

     total cpu time spent up to now is        5.7 secs

     total energy              =     -22.39888254 Ry
     estimated scf accuracy    <       0.61083925 Ry

     iteration #  3     ecut=    50.00 Ry     beta= 0.20
     Davidson diagonalization with overlap
     ethr =  7.64E-03,  avg # of iterations =  1.0

     total cpu time spent up to now is        7.5 secs

     total energy              =     -22.40079760 Ry
     estimated scf accuracy    <       0.00550304 Ry

     iteration #  4     ecut=    50.00 Ry     beta= 0.20
     Davidson diagonalization with overlap
     ethr =  6.88E-05,  avg # of iterations =  1.0

     total cpu time spent up to now is        8.7 secs

     total energy              =     -22.40080384 Ry
     estimated scf accuracy    <       0.00186981 Ry

     iteration #  5     ecut=    50.00 Ry     beta= 0.20
     Davidson diagonalization with overlap
     ethr =  2.34E-05,  avg # of iterations =  1.2

     total cpu time spent up to now is       10.5 secs

     total energy              =     -22.40092330 Ry
     estimated scf accuracy    <       0.00018439 Ry

     iteration #  6     ecut=    50.00 Ry     beta= 0.20
     Davidson diagonalization with overlap
     ethr =  2.30E-06,  avg # of iterations =  2.3

     total cpu time spent up to now is       12.0 secs

     End of self-consistent calculation

          k = 0.0000 0.0000 0.0000 (   893 PWs)   bands (ev):

   -11.3716   4.1476   4.1476   4.1477

          k =-0.1000 0.1000-0.1000 (   899 PWs)   bands (ev):

   -11.1968   2.6297   3.9243   3.9243

          k =-0.2000 0.2000-0.2000 (   887 PWs)   bands (ev):

   -10.6826   0.3681   3.4543   3.4543

          k =-0.3000 0.3000-0.3000 (   887 PWs)   bands (ev):

    -9.8710  -1.8383   2.9991   2.9991

          k =-0.4000 0.4000-0.4000 (   869 PWs)   bands (ev):

    -8.9045  -3.6859   2.6981   2.6981

          k = 0.5000-0.5000 0.5000 (   886 PWs)   bands (ev):

    -8.3426  -4.5506   2.5884   2.5884

          k = 0.0000 0.2000 0.0000 (   889 PWs)   bands (ev):

   -11.1381   2.6599   3.5618   3.5618

          k =-0.1000 0.3000-0.1000 (   892 PWs)   bands (ev):

   -10.7358   0.9289   3.0417   3.1696

          k =-0.2000 0.4000-0.2000 (   878 PWs)   bands (ev):

   -10.0170  -1.1776   2.6082   2.6429

          k =-0.3000 0.5000-0.3000 (   882 PWs)   bands (ev):

    -9.0740  -3.1181   2.1383   2.3634

          k = 0.6000-0.4000 0.6000 (   881 PWs)   bands (ev):

    -8.2676  -4.3973   1.7928   2.3481

          k = 0.5000-0.3000 0.5000 (   876 PWs)   bands (ev):

    -8.4741  -4.0925   1.6718   2.5619

          k = 0.4000-0.2000 0.4000 (   879 PWs)   bands (ev):

    -9.4045  -2.5055   1.8048   2.9575

          k = 0.3000-0.1000 0.3000 (   887 PWs)   bands (ev):

   -10.2906  -0.4922   2.2165   3.4510

          k = 0.2000 0.0000 0.2000 (   903 PWs)   bands (ev):

   -10.9084   1.4387   2.9771   3.8633

          k = 0.0000 0.4000 0.0000 (   885 PWs)   bands (ev):

   -10.4461   0.5008   2.4915   2.4915

          k =-0.1000 0.5000-0.1000 (   870 PWs)   bands (ev):

    -9.8306  -0.9672   1.8984   2.0410

          k =-0.2000 0.6000-0.2000 (   886 PWs)   bands (ev):

    -8.9495  -2.6785   1.1706   1.7987

          k = 0.7000-0.3000 0.7000 (   875 PWs)   bands (ev):

    -8.0211  -4.1031   0.5650   1.8112

          k = 0.6000-0.2000 0.6000 (   880 PWs)   bands (ev):

    -7.8358  -4.3475   0.2286   2.0655

          k = 0.5000-0.1000 0.5000 (   881 PWs)   bands (ev):

    -8.6563  -3.1630   0.2709   2.5165

          k = 0.4000 0.0000 0.4000 (   871 PWs)   bands (ev):

    -9.5862  -1.6564   0.8855   3.0531

          k = 0.0000 0.6000 0.0000 (   866 PWs)   bands (ev):

    -9.3194  -1.7224   1.5532   1.5532

          k =-0.1000 0.7000-0.1000 (   879 PWs)   bands (ev):

    -8.5206  -2.9633   0.9043   1.2725

          k = 0.8000-0.2000 0.8000 (   879 PWs)   bands (ev):

    -7.5634  -4.1959   0.0252   1.2558

          k = 0.7000-0.1000 0.7000 (   881 PWs)   bands (ev):

    -7.0572  -4.7556  -0.5971   1.4997

          k = 0.6000-0.0000 0.6000 (   877 PWs)   bands (ev):

    -7.7300  -4.0219  -0.6085   1.9588

          k = 0.0000 0.8000 0.0000 (   886 PWs)   bands (ev):

    -7.8054  -3.9107   0.9392   0.9392

          k = 0.9000-0.1000 0.9000 (   883 PWs)   bands (ev):

    -6.8729  -4.9688   0.3880   0.8664

          k = 0.8000 0.0000 0.8000 (   870 PWs)   bands (ev):

    -6.3060  -5.4796  -0.3886   1.0662

          k = 0.0000-1.0000 0.0000 (   894 PWs)   bands (ev):

    -5.9717  -5.9717   0.7261   0.7261

          k =-0.2000 0.4000 0.0000 (   883 PWs)   bands (ev):

   -10.2277  -0.2999   1.9166   2.9727

          k =-0.3000 0.5000-0.1000 (   876 PWs)   bands (ev):

    -9.4245  -1.9960   1.1693   2.5458

          k = 0.6000-0.4000 0.8000 (   877 PWs)   bands (ev):

    -8.4637  -3.6423   0.8185   2.1464

          k = 0.5000-0.3000 0.7000 (   876 PWs)   bands (ev):

    -7.8948  -4.4584   0.7196   1.9869

          k =-0.2000 0.6000 0.0000 (   880 PWs)   bands (ev):

    -9.1257  -2.1311   1.0111   1.7549

          k = 0.7000-0.3000 0.9000 (   877 PWs)   bands (ev):

    -8.1960  -3.4776   0.2992   1.4015

          k = 0.6000-0.2000 0.8000 (   872 PWs)   bands (ev):

    -7.3860  -4.5030  -0.1856   1.3332

          k = 0.5000-0.1000 0.7000 (   876 PWs)   bands (ev):

    -7.6370  -4.1922  -0.3350   1.5985

          k = 0.4000 0.0000 0.6000 (   882 PWs)   bands (ev):

    -8.5684  -3.0333   0.0596   2.0799

          k = 0.8000-0.2000 1.0000 (   884 PWs)   bands (ev):

    -7.6589  -4.0288   0.4806   0.8402

          k = 0.7000-0.1000 0.9000 (   883 PWs)   bands (ev):

    -6.7325  -4.9992  -0.2308   0.7434

          k = 0.6000 0.0000 0.8000 (   885 PWs)   bands (ev):

    -6.7614  -4.9433  -0.6826   1.0559

          k =-0.2000-1.0000 0.0000 (   880 PWs)   bands (ev):

    -5.9169  -5.9169   0.4108   0.4109

          k = 0.6000-0.2000 1.0000 (   882 PWs)   bands (ev):

    -7.2655  -4.3998  -0.2962   0.8262

          k = 0.5000-0.1000 0.9000 (   880 PWs)   bands (ev):

    -6.6325  -5.0335  -0.4656   0.5506

          k =-0.4000-1.0000 0.0000 (   880 PWs)   bands (ev):

    -5.8238  -5.8238  -0.0482  -0.0482

     highest occupied level (ev):     4.1477

!    total energy              =     -22.40096343 Ry
     estimated scf accuracy    <       0.00001952 Ry

     The total energy is the sum of the following terms:
     one-electron contribution =       1.60758447 Ry
     hartree contribution      =       2.73281648 Ry
     xc contribution           =      -6.18263394 Ry
     ewald contribution        =     -20.55873044 Ry

     convergence has been achieved in   6 iterations
     Writing meta-gga kinetic term

     Writing all to output data dir ./input_pw/C/14/pwscf.save/
     Writing meta-gga kinetic term
 
     init_run     :      0.79s CPU      1.63s WALL (       1 calls)
     electrons    :      5.99s CPU     10.27s WALL (       1 calls)

     Called by init_run:
     wfcinit      :      0.73s CPU      1.50s WALL (       1 calls)
     potinit      :      0.02s CPU      0.05s WALL (       1 calls)
     hinit0       :      0.03s CPU      0.07s WALL (       1 calls)

     Called by electrons:
     c_bands      :      4.73s CPU      8.25s WALL (       6 calls)
     sum_band     :      1.12s CPU      1.80s WALL (       6 calls)
     v_of_rho     :      0.12s CPU      0.22s WALL (       7 calls)
     mix_rho      :      0.04s CPU      0.04s WALL (       6 calls)

     Called by c_bands:
     init_us_2    :      0.02s CPU      0.05s WALL (     611 calls)
     init_us_2:cp :      0.02s CPU      0.05s WALL (     611 calls)
     cegterg      :      4.71s CPU      8.20s WALL (     282 calls)

     Called by *egterg:
     cdiaghg      :      0.03s CPU      0.08s WALL (     670 calls)
     h_psi        :      5.31s CPU      9.46s WALL (     717 calls)
     g_psi        :      0.00s CPU      0.00s WALL (     388 calls)

     Called by h_psi:
     h_psi:calbec :      0.01s CPU      0.01s WALL (     717 calls)
     vloc_psi     :      1.31s CPU      2.35s WALL (     717 calls)
     add_vuspsi   :      0.01s CPU      0.03s WALL (     717 calls)
     h_psi_meta   :      3.96s CPU      7.04s WALL (     717 calls)

     General routines
     calbec       :      0.01s CPU      0.01s WALL (     717 calls)
     fft          :      0.01s CPU      0.06s WALL (      81 calls)
     ffts         :      0.02s CPU      0.04s WALL (     105 calls)
     fftw         :      5.45s CPU      9.49s WALL (   27056 calls)
     interpolate  :      0.00s CPU      0.00s WALL (       7 calls)
 
     Parallel routines
 
     PWSCF        :      6.81s CPU     11.98s WALL

 
   This run was terminated on:  14:25:35   7Jul2023            

=------------------------------------------------------------------------------=
   JOB DONE.
=------------------------------------------------------------------------------=
