
     Program PWSCF v.7.0 starts on 29Mar2023 at 12:34:19 

     This program is part of the open-source Quantum ESPRESSO suite
     for quantum simulation of materials; please cite
         "P. Giannozzi et al., J. Phys.:Condens. Matter 21 395502 (2009);
         "P. Giannozzi et al., J. Phys.:Condens. Matter 29 465901 (2017);
         "P. Giannozzi et al., J. Chem. Phys. 152 154105 (2020);
          URL http://www.quantum-espresso.org", 
     in publications or presentations arising from this work. More details at
     http://www.quantum-espresso.org/quote

     Parallel version (MPI), running on     1 processors

     MPI processes distributed on     1 nodes
     22941 MiB available memory on the printing compute node when the environment starts
 
     Waiting for input...
     Reading input from standard input
Warning: card &CELL ignored
Warning: card / ignored

     Current dimensions of program PWSCF are:
     Max number of different atomic species (ntypx) = 10
     Max number of k-points (npk) =  40000
     Max angular momentum in pseudopotentials (lmaxx) =  4

     WARNING: the MGGA functional with ID    5 has been 
     read together with other dft terms, but it should 
     stand alone in order to work properly. The other 
     terms will be ignored.

     Subspace diagonalization in iterative solution of the eigenvalue problem:
     a serial algorithm will be used

 
     G-vector sticks info
     --------------------
     sticks:   dense  smooth     PW     G-vecs:    dense   smooth      PW
     Sum         499     499    163                 7119     7119    1291
 
     Using Slab Decomposition
 


     bravais-lattice index     =            2
     lattice parameter (alat)  =       8.3846  a.u.
     unit-cell volume          =     147.3646 (a.u.)^3
     number of atoms/cell      =            2
     number of atomic types    =            1
     number of electrons       =         8.00
     number of Kohn-Sham states=            4
     kinetic-energy cutoff     =      50.0000  Ry
     charge density cutoff     =     200.0000  Ry
     scf convergence threshold =      1.0E-06
     mixing beta               =       0.0100
     number of iterations used =            8  local-TF  mixing
     Exchange-correlation= SLA  PW   SCAN SCAN
                           (   0   0   0   0   0 263 267)

     celldm(1)=   8.384639  celldm(2)=   0.000000  celldm(3)=   0.000000
     celldm(4)=   0.000000  celldm(5)=   0.000000  celldm(6)=   0.000000

     crystal axes: (cart. coord. in units of alat)
               a(1) = (  -0.500000   0.000000   0.500000 )  
               a(2) = (   0.000000   0.500000   0.500000 )  
               a(3) = (  -0.500000   0.500000   0.000000 )  

     reciprocal axes: (cart. coord. in units 2 pi/alat)
               b(1) = ( -1.000000 -1.000000  1.000000 )  
               b(2) = (  1.000000  1.000000  1.000000 )  
               b(3) = ( -1.000000  1.000000 -1.000000 )  


     PseudoPot. # 1 for C  read from file:
     ~/Documents/TA/PWDFT.jl/pseudopotentials/scan_upf/C.SCAN.UPF2
     MD5 check sum: Not computed, couldn't open file
     Pseudo is Norm-conserving, Zval =  4.0
     Generated by new atomic code, or converted to UPF format
     Using radial grid of 1389 points,  1 beta functions with: 
                l(1) =   0

     atomic species   valence    mass     pseudopotential
        C              4.00    12.01100     C ( 1.00)

     48 Sym. Ops., with inversion, found (24 have fractional translation)



   Cartesian axes

     site n.     atom                  positions (alat units)
         1           C   tau(   1) = (   0.0000000   0.0000000   0.0000000  )
         2           C   tau(   2) = (   0.2500000   0.2500000   0.2500000  )

     number of k points=    47
                       cart. coord. in units 2pi/alat
        k(    1) = (   0.0000000   0.0000000   0.0000000), wk =   0.0020000
        k(    2) = (  -0.1000000   0.1000000  -0.1000000), wk =   0.0160000
        k(    3) = (  -0.2000000   0.2000000  -0.2000000), wk =   0.0160000
        k(    4) = (  -0.3000000   0.3000000  -0.3000000), wk =   0.0160000
        k(    5) = (  -0.4000000   0.4000000  -0.4000000), wk =   0.0160000
        k(    6) = (   0.5000000  -0.5000000   0.5000000), wk =   0.0080000
        k(    7) = (   0.0000000   0.2000000   0.0000000), wk =   0.0120000
        k(    8) = (  -0.1000000   0.3000000  -0.1000000), wk =   0.0480000
        k(    9) = (  -0.2000000   0.4000000  -0.2000000), wk =   0.0480000
        k(   10) = (  -0.3000000   0.5000000  -0.3000000), wk =   0.0480000
        k(   11) = (   0.6000000  -0.4000000   0.6000000), wk =   0.0480000
        k(   12) = (   0.5000000  -0.3000000   0.5000000), wk =   0.0480000
        k(   13) = (   0.4000000  -0.2000000   0.4000000), wk =   0.0480000
        k(   14) = (   0.3000000  -0.1000000   0.3000000), wk =   0.0480000
        k(   15) = (   0.2000000   0.0000000   0.2000000), wk =   0.0240000
        k(   16) = (   0.0000000   0.4000000   0.0000000), wk =   0.0120000
        k(   17) = (  -0.1000000   0.5000000  -0.1000000), wk =   0.0480000
        k(   18) = (  -0.2000000   0.6000000  -0.2000000), wk =   0.0480000
        k(   19) = (   0.7000000  -0.3000000   0.7000000), wk =   0.0480000
        k(   20) = (   0.6000000  -0.2000000   0.6000000), wk =   0.0480000
        k(   21) = (   0.5000000  -0.1000000   0.5000000), wk =   0.0480000
        k(   22) = (   0.4000000   0.0000000   0.4000000), wk =   0.0240000
        k(   23) = (   0.0000000   0.6000000   0.0000000), wk =   0.0120000
        k(   24) = (  -0.1000000   0.7000000  -0.1000000), wk =   0.0480000
        k(   25) = (   0.8000000  -0.2000000   0.8000000), wk =   0.0480000
        k(   26) = (   0.7000000  -0.1000000   0.7000000), wk =   0.0480000
        k(   27) = (   0.6000000  -0.0000000   0.6000000), wk =   0.0240000
        k(   28) = (   0.0000000   0.8000000   0.0000000), wk =   0.0120000
        k(   29) = (   0.9000000  -0.1000000   0.9000000), wk =   0.0480000
        k(   30) = (   0.8000000   0.0000000   0.8000000), wk =   0.0240000
        k(   31) = (   0.0000000  -1.0000000   0.0000000), wk =   0.0060000
        k(   32) = (  -0.2000000   0.4000000   0.0000000), wk =   0.0480000
        k(   33) = (  -0.3000000   0.5000000  -0.1000000), wk =   0.0960000
        k(   34) = (   0.6000000  -0.4000000   0.8000000), wk =   0.0960000
        k(   35) = (   0.5000000  -0.3000000   0.7000000), wk =   0.0480000
        k(   36) = (  -0.2000000   0.6000000   0.0000000), wk =   0.0480000
        k(   37) = (   0.7000000  -0.3000000   0.9000000), wk =   0.0960000
        k(   38) = (   0.6000000  -0.2000000   0.8000000), wk =   0.0960000
        k(   39) = (   0.5000000  -0.1000000   0.7000000), wk =   0.0960000
        k(   40) = (   0.4000000   0.0000000   0.6000000), wk =   0.0480000
        k(   41) = (   0.8000000  -0.2000000   1.0000000), wk =   0.0480000
        k(   42) = (   0.7000000  -0.1000000   0.9000000), wk =   0.0960000
        k(   43) = (   0.6000000   0.0000000   0.8000000), wk =   0.0480000
        k(   44) = (  -0.2000000  -1.0000000   0.0000000), wk =   0.0240000
        k(   45) = (   0.6000000  -0.2000000   1.0000000), wk =   0.0480000
        k(   46) = (   0.5000000  -0.1000000   0.9000000), wk =   0.0480000
        k(   47) = (  -0.4000000  -1.0000000   0.0000000), wk =   0.0240000

     Dense  grid:     7119 G-vectors     FFT dimensions: (  32,  32,  32)

     Estimated max dynamical RAM per process >      14.43 MB

     WARNING: libxc functional with ID  263 depends
      on external parameters: check the user_guide of
      QE if you need to modify them or to check their
      default values.

     Initial potential from superposition of free atoms

     starting charge       7.9999, renormalised to       8.0000
     Starting wfcs are    8 randomized atomic wfcs

     total cpu time spent up to now is        1.7 secs

     Self-consistent Calculation

     iteration #  1     ecut=    50.00 Ry     beta= 0.01
     Davidson diagonalization with overlap
     ethr =  1.00E-02,  avg # of iterations =  1.7

     total cpu time spent up to now is        3.8 secs

     total energy              =     -22.36656434 Ry
     estimated scf accuracy    <       0.90150184 Ry

     iteration #  2     ecut=    50.00 Ry     beta= 0.01
     Davidson diagonalization with overlap
     ethr =  1.00E-02,  avg # of iterations =  1.0

     total cpu time spent up to now is        5.8 secs

     total energy              =     -22.31803405 Ry
     estimated scf accuracy    <       0.92580375 Ry

     iteration #  3     ecut=    50.00 Ry     beta= 0.01
     Davidson diagonalization with overlap
     ethr =  1.00E-02,  avg # of iterations =  1.0

     total cpu time spent up to now is        7.7 secs

     total energy              =     -22.39705225 Ry
     estimated scf accuracy    <       1.56820700 Ry

     iteration #  4     ecut=    50.00 Ry     beta= 0.01
     Davidson diagonalization with overlap
     ethr =  1.00E-02,  avg # of iterations =  1.0

     total cpu time spent up to now is        9.7 secs

     total energy              =     -22.40087168 Ry
     estimated scf accuracy    <       0.00426588 Ry

     iteration #  5     ecut=    50.00 Ry     beta= 0.01
     Davidson diagonalization with overlap
     ethr =  5.33E-05,  avg # of iterations =  1.1

     total cpu time spent up to now is       11.6 secs

     total energy              =     -22.40112283 Ry
     estimated scf accuracy    <       0.00361647 Ry

     iteration #  6     ecut=    50.00 Ry     beta= 0.01
     Davidson diagonalization with overlap
     ethr =  4.52E-05,  avg # of iterations =  1.0

     total cpu time spent up to now is       13.6 secs

     total energy              =     -22.40075494 Ry
     estimated scf accuracy    <       0.00455241 Ry

     iteration #  7     ecut=    50.00 Ry     beta= 0.01
     Davidson diagonalization with overlap
     ethr =  4.52E-05,  avg # of iterations =  1.0

     total cpu time spent up to now is       15.5 secs

     total energy              =     -22.40090360 Ry
     estimated scf accuracy    <       0.00012248 Ry

     iteration #  8     ecut=    50.00 Ry     beta= 0.01
     Davidson diagonalization with overlap
     ethr =  1.53E-06,  avg # of iterations =  2.1

     total cpu time spent up to now is       17.8 secs

     total energy              =     -22.40094322 Ry
     estimated scf accuracy    <       0.00032399 Ry

     iteration #  9     ecut=    50.00 Ry     beta= 0.01
     Davidson diagonalization with overlap
     ethr =  1.53E-06,  avg # of iterations =  1.0

     total cpu time spent up to now is       19.2 secs

     total energy              =     -22.40096331 Ry
     estimated scf accuracy    <       0.00034979 Ry

     iteration # 10     ecut=    50.00 Ry     beta= 0.01
     Davidson diagonalization with overlap
     ethr =  1.53E-06,  avg # of iterations =  1.0

     total cpu time spent up to now is       20.5 secs

     total energy              =     -22.40096863 Ry
     estimated scf accuracy    <       0.00000705 Ry

     iteration # 11     ecut=    50.00 Ry     beta= 0.01
     Davidson diagonalization with overlap
     ethr =  8.81E-08,  avg # of iterations =  1.7

     total cpu time spent up to now is       21.6 secs

     total energy              =     -22.40096905 Ry
     estimated scf accuracy    <       0.00000120 Ry

     iteration # 12     ecut=    50.00 Ry     beta= 0.01
     Davidson diagonalization with overlap
     ethr =  1.50E-08,  avg # of iterations =  2.2

     total cpu time spent up to now is       22.5 secs

     End of self-consistent calculation

          k = 0.0000 0.0000 0.0000 (   893 PWs)   bands (ev):

   -11.3723   4.1490   4.1490   4.1490

          k =-0.1000 0.1000-0.1000 (   899 PWs)   bands (ev):

   -11.1975   2.6300   3.9256   3.9256

          k =-0.2000 0.2000-0.2000 (   887 PWs)   bands (ev):

   -10.6833   0.3681   3.4554   3.4554

          k =-0.3000 0.3000-0.3000 (   887 PWs)   bands (ev):

    -9.8717  -1.8384   3.0000   3.0000

          k =-0.4000 0.4000-0.4000 (   869 PWs)   bands (ev):

    -8.9054  -3.6861   2.6989   2.6989

          k = 0.5000-0.5000 0.5000 (   886 PWs)   bands (ev):

    -8.3435  -4.5507   2.5892   2.5892

          k = 0.0000 0.2000 0.0000 (   889 PWs)   bands (ev):

   -11.1388   2.6601   3.5629   3.5629

          k =-0.1000 0.3000-0.1000 (   892 PWs)   bands (ev):

   -10.7365   0.9289   3.0425   3.1705

          k =-0.2000 0.4000-0.2000 (   878 PWs)   bands (ev):

   -10.0177  -1.1778   2.6090   2.6437

          k =-0.3000 0.5000-0.3000 (   882 PWs)   bands (ev):

    -9.0748  -3.1183   2.1389   2.3641

          k = 0.6000-0.4000 0.6000 (   881 PWs)   bands (ev):

    -8.2685  -4.3974   1.7934   2.3489

          k = 0.5000-0.3000 0.5000 (   876 PWs)   bands (ev):

    -8.4750  -4.0927   1.6724   2.5628

          k = 0.4000-0.2000 0.4000 (   879 PWs)   bands (ev):

    -9.4053  -2.5057   1.8054   2.9584

          k = 0.3000-0.1000 0.3000 (   887 PWs)   bands (ev):

   -10.2913  -0.4923   2.2172   3.4521

          k = 0.2000 0.0000 0.2000 (   903 PWs)   bands (ev):

   -10.9091   1.4388   2.9779   3.8646

          k = 0.0000 0.4000 0.0000 (   885 PWs)   bands (ev):

   -10.4468   0.5006   2.4922   2.4922

          k =-0.1000 0.5000-0.1000 (   870 PWs)   bands (ev):

    -9.8314  -0.9675   1.8990   2.0417

          k =-0.2000 0.6000-0.2000 (   886 PWs)   bands (ev):

    -8.9503  -2.6789   1.1711   1.7993

          k = 0.7000-0.3000 0.7000 (   875 PWs)   bands (ev):

    -8.0220  -4.1035   0.5655   1.8118

          k = 0.6000-0.2000 0.6000 (   880 PWs)   bands (ev):

    -7.8367  -4.3478   0.2291   2.0662

          k = 0.5000-0.1000 0.5000 (   881 PWs)   bands (ev):

    -8.6571  -3.1634   0.2715   2.5174

          k = 0.4000 0.0000 0.4000 (   871 PWs)   bands (ev):

    -9.5870  -1.6568   0.8861   3.0540

          k = 0.0000 0.6000 0.0000 (   866 PWs)   bands (ev):

    -9.3202  -1.7229   1.5538   1.5538

          k =-0.1000 0.7000-0.1000 (   879 PWs)   bands (ev):

    -8.5214  -2.9638   0.9048   1.2730

          k = 0.8000-0.2000 0.8000 (   879 PWs)   bands (ev):

    -7.5642  -4.1965   0.0258   1.2564

          k = 0.7000-0.1000 0.7000 (   881 PWs)   bands (ev):

    -7.0581  -4.7562  -0.5965   1.5003

          k = 0.6000-0.0000 0.6000 (   877 PWs)   bands (ev):

    -7.7308  -4.0225  -0.6079   1.9595

          k = 0.0000 0.8000 0.0000 (   886 PWs)   bands (ev):

    -7.8062  -3.9114   0.9397   0.9397

          k = 0.9000-0.1000 0.9000 (   883 PWs)   bands (ev):

    -6.8737  -4.9695   0.3886   0.8669

          k = 0.8000 0.0000 0.8000 (   870 PWs)   bands (ev):

    -6.3069  -5.4803  -0.3879   1.0668

          k = 0.0000-1.0000 0.0000 (   894 PWs)   bands (ev):

    -5.9724  -5.9724   0.7266   0.7266

          k =-0.2000 0.4000 0.0000 (   883 PWs)   bands (ev):

   -10.2284  -0.3001   1.9173   2.9735

          k =-0.3000 0.5000-0.1000 (   876 PWs)   bands (ev):

    -9.4253  -1.9963   1.1699   2.5466

          k = 0.6000-0.4000 0.8000 (   877 PWs)   bands (ev):

    -8.4645  -3.6427   0.8190   2.1471

          k = 0.5000-0.3000 0.7000 (   876 PWs)   bands (ev):

    -7.8958  -4.4587   0.7201   1.9876

          k =-0.2000 0.6000 0.0000 (   880 PWs)   bands (ev):

    -9.1265  -2.1316   1.0117   1.7556

          k = 0.7000-0.3000 0.9000 (   877 PWs)   bands (ev):

    -8.1969  -3.4781   0.2998   1.4021

          k = 0.6000-0.2000 0.8000 (   872 PWs)   bands (ev):

    -7.3869  -4.5035  -0.1850   1.3338

          k = 0.5000-0.1000 0.7000 (   876 PWs)   bands (ev):

    -7.6379  -4.1927  -0.3344   1.5992

          k = 0.4000 0.0000 0.6000 (   882 PWs)   bands (ev):

    -8.5692  -3.0338   0.0602   2.0806

          k = 0.8000-0.2000 1.0000 (   884 PWs)   bands (ev):

    -7.6597  -4.0295   0.4811   0.8408

          k = 0.7000-0.1000 0.9000 (   883 PWs)   bands (ev):

    -6.7333  -4.9999  -0.2302   0.7440

          k = 0.6000 0.0000 0.8000 (   885 PWs)   bands (ev):

    -6.7623  -4.9440  -0.6820   1.0565

          k =-0.2000-1.0000 0.0000 (   880 PWs)   bands (ev):

    -5.9177  -5.9177   0.4114   0.4114

          k = 0.6000-0.2000 1.0000 (   882 PWs)   bands (ev):

    -7.2663  -4.4005  -0.2956   0.8268

          k = 0.5000-0.1000 0.9000 (   880 PWs)   bands (ev):

    -6.6334  -5.0343  -0.4650   0.5512

          k =-0.4000-1.0000 0.0000 (   880 PWs)   bands (ev):

    -5.8246  -5.8246  -0.0476  -0.0476

     highest occupied level (ev):     4.1490

!    total energy              =     -22.40096963 Ry
     estimated scf accuracy    <       0.00000050 Ry

     The total energy is the sum of the following terms:
     one-electron contribution =       1.60778328 Ry
     hartree contribution      =       2.73243325 Ry
     xc contribution           =      -6.18245572 Ry
     ewald contribution        =     -20.55873044 Ry

     convergence has been achieved in  12 iterations
     Writing meta-gga kinetic term

     Writing all to output data dir ./input_pw/C/14/pwscf.save/
     Writing meta-gga kinetic term
 
     init_run     :      0.79s CPU      1.67s WALL (       1 calls)
     electrons    :     11.96s CPU     20.81s WALL (       1 calls)

     Called by init_run:
     wfcinit      :      0.73s CPU      1.54s WALL (       1 calls)
     potinit      :      0.02s CPU      0.06s WALL (       1 calls)
     hinit0       :      0.03s CPU      0.05s WALL (       1 calls)

     Called by electrons:
     c_bands      :      9.37s CPU     16.45s WALL (      12 calls)
     sum_band     :      2.26s CPU      3.78s WALL (      12 calls)
     v_of_rho     :      0.23s CPU      0.43s WALL (      13 calls)
     mix_rho      :      0.10s CPU      0.20s WALL (      12 calls)

     Called by c_bands:
     init_us_2    :      0.04s CPU      0.07s WALL (    1175 calls)
     init_us_2:cp :      0.04s CPU      0.06s WALL (    1175 calls)
     cegterg      :      9.33s CPU     16.32s WALL (     564 calls)

     Called by *egterg:
     cdiaghg      :      0.06s CPU      0.14s WALL (    1314 calls)
     h_psi        :      9.84s CPU     17.48s WALL (    1361 calls)
     g_psi        :      0.01s CPU      0.01s WALL (     750 calls)

     Called by h_psi:
     h_psi:calbec :      0.02s CPU      0.02s WALL (    1361 calls)
     vloc_psi     :      2.42s CPU      4.08s WALL (    1361 calls)
     add_vuspsi   :      0.03s CPU      0.03s WALL (    1361 calls)
     h_psi_meta   :      7.35s CPU     13.29s WALL (    1361 calls)

     General routines
     calbec       :      0.01s CPU      0.02s WALL (    1361 calls)
     fft          :      0.03s CPU      0.07s WALL (     153 calls)
     ffts         :      0.05s CPU      0.08s WALL (     229 calls)
     fftw         :     10.20s CPU     17.93s WALL (   51184 calls)
     interpolate  :      0.00s CPU      0.00s WALL (      13 calls)
 
     Parallel routines
 
     PWSCF        :     12.78s CPU     22.52s WALL

 
   This run was terminated on:  12:34:42  29Mar2023            

=------------------------------------------------------------------------------=
   JOB DONE.
=------------------------------------------------------------------------------=
