
     Program PWSCF v.7.0 starts on 14Mar2023 at 11:48:15 

     This program is part of the open-source Quantum ESPRESSO suite
     for quantum simulation of materials; please cite
         "P. Giannozzi et al., J. Phys.:Condens. Matter 21 395502 (2009);
         "P. Giannozzi et al., J. Phys.:Condens. Matter 29 465901 (2017);
         "P. Giannozzi et al., J. Chem. Phys. 152 154105 (2020);
          URL http://www.quantum-espresso.org", 
     in publications or presentations arising from this work. More details at
     http://www.quantum-espresso.org/quote

     Parallel version (MPI), running on     1 processors

     MPI processes distributed on     1 nodes
     27344 MiB available memory on the printing compute node when the environment starts
 
     Waiting for input...
     Reading input from standard input
Warning: card &CELL ignored
Warning: card / ignored

     Current dimensions of program PWSCF are:
     Max number of different atomic species (ntypx) = 10
     Max number of k-points (npk) =  40000
     Max angular momentum in pseudopotentials (lmaxx) =  4

     WARNING: the MGGA functional with ID    5 has been 
     read together with other dft terms, but it should 
     stand alone in order to work properly. The other 
     terms will be ignored.

     Subspace diagonalization in iterative solution of the eigenvalue problem:
     a serial algorithm will be used

 
     G-vector sticks info
     --------------------
     sticks:   dense  smooth     PW     G-vecs:    dense   smooth      PW
     Sum         511     511    163                 7631     7631    1363
 
     Using Slab Decomposition
 


     bravais-lattice index     =            2
     lattice parameter (alat)  =       8.5752  a.u.
     unit-cell volume          =     157.6423 (a.u.)^3
     number of atoms/cell      =            2
     number of atomic types    =            1
     number of electrons       =         8.00
     number of Kohn-Sham states=            4
     kinetic-energy cutoff     =      50.0000  Ry
     charge density cutoff     =     200.0000  Ry
     scf convergence threshold =      1.0E-06
     mixing beta               =       0.0100
     number of iterations used =            8  local-TF  mixing
     Exchange-correlation= SLA  PW   SCAN SCAN
                           (   0   0   0   0   0 263 267)

     celldm(1)=   8.575200  celldm(2)=   0.000000  celldm(3)=   0.000000
     celldm(4)=   0.000000  celldm(5)=   0.000000  celldm(6)=   0.000000

     crystal axes: (cart. coord. in units of alat)
               a(1) = (  -0.500000   0.000000   0.500000 )  
               a(2) = (   0.000000   0.500000   0.500000 )  
               a(3) = (  -0.500000   0.500000   0.000000 )  

     reciprocal axes: (cart. coord. in units 2 pi/alat)
               b(1) = ( -1.000000 -1.000000  1.000000 )  
               b(2) = (  1.000000  1.000000  1.000000 )  
               b(3) = ( -1.000000  1.000000 -1.000000 )  


     PseudoPot. # 1 for C  read from file:
     ~/Documents/TA/PWDFT.jl/pseudopotentials/scan_upf/C.SCAN.UPF2
     MD5 check sum: Not computed, couldn't open file
     Pseudo is Norm-conserving, Zval =  4.0
     Generated by new atomic code, or converted to UPF format
     Using radial grid of 1389 points,  1 beta functions with: 
                l(1) =   0

     atomic species   valence    mass     pseudopotential
        C              4.00    12.01100     C ( 1.00)

     48 Sym. Ops., with inversion, found (24 have fractional translation)



   Cartesian axes

     site n.     atom                  positions (alat units)
         1           C   tau(   1) = (   0.0000000   0.0000000   0.0000000  )
         2           C   tau(   2) = (   0.2500000   0.2500000   0.2500000  )

     number of k points=    47
                       cart. coord. in units 2pi/alat
        k(    1) = (   0.0000000   0.0000000   0.0000000), wk =   0.0020000
        k(    2) = (  -0.1000000   0.1000000  -0.1000000), wk =   0.0160000
        k(    3) = (  -0.2000000   0.2000000  -0.2000000), wk =   0.0160000
        k(    4) = (  -0.3000000   0.3000000  -0.3000000), wk =   0.0160000
        k(    5) = (  -0.4000000   0.4000000  -0.4000000), wk =   0.0160000
        k(    6) = (   0.5000000  -0.5000000   0.5000000), wk =   0.0080000
        k(    7) = (   0.0000000   0.2000000   0.0000000), wk =   0.0120000
        k(    8) = (  -0.1000000   0.3000000  -0.1000000), wk =   0.0480000
        k(    9) = (  -0.2000000   0.4000000  -0.2000000), wk =   0.0480000
        k(   10) = (  -0.3000000   0.5000000  -0.3000000), wk =   0.0480000
        k(   11) = (   0.6000000  -0.4000000   0.6000000), wk =   0.0480000
        k(   12) = (   0.5000000  -0.3000000   0.5000000), wk =   0.0480000
        k(   13) = (   0.4000000  -0.2000000   0.4000000), wk =   0.0480000
        k(   14) = (   0.3000000  -0.1000000   0.3000000), wk =   0.0480000
        k(   15) = (   0.2000000   0.0000000   0.2000000), wk =   0.0240000
        k(   16) = (   0.0000000   0.4000000   0.0000000), wk =   0.0120000
        k(   17) = (  -0.1000000   0.5000000  -0.1000000), wk =   0.0480000
        k(   18) = (  -0.2000000   0.6000000  -0.2000000), wk =   0.0480000
        k(   19) = (   0.7000000  -0.3000000   0.7000000), wk =   0.0480000
        k(   20) = (   0.6000000  -0.2000000   0.6000000), wk =   0.0480000
        k(   21) = (   0.5000000  -0.1000000   0.5000000), wk =   0.0480000
        k(   22) = (   0.4000000   0.0000000   0.4000000), wk =   0.0240000
        k(   23) = (   0.0000000   0.6000000   0.0000000), wk =   0.0120000
        k(   24) = (  -0.1000000   0.7000000  -0.1000000), wk =   0.0480000
        k(   25) = (   0.8000000  -0.2000000   0.8000000), wk =   0.0480000
        k(   26) = (   0.7000000  -0.1000000   0.7000000), wk =   0.0480000
        k(   27) = (   0.6000000  -0.0000000   0.6000000), wk =   0.0240000
        k(   28) = (   0.0000000   0.8000000   0.0000000), wk =   0.0120000
        k(   29) = (   0.9000000  -0.1000000   0.9000000), wk =   0.0480000
        k(   30) = (   0.8000000   0.0000000   0.8000000), wk =   0.0240000
        k(   31) = (   0.0000000  -1.0000000   0.0000000), wk =   0.0060000
        k(   32) = (  -0.2000000   0.4000000   0.0000000), wk =   0.0480000
        k(   33) = (  -0.3000000   0.5000000  -0.1000000), wk =   0.0960000
        k(   34) = (   0.6000000  -0.4000000   0.8000000), wk =   0.0960000
        k(   35) = (   0.5000000  -0.3000000   0.7000000), wk =   0.0480000
        k(   36) = (  -0.2000000   0.6000000   0.0000000), wk =   0.0480000
        k(   37) = (   0.7000000  -0.3000000   0.9000000), wk =   0.0960000
        k(   38) = (   0.6000000  -0.2000000   0.8000000), wk =   0.0960000
        k(   39) = (   0.5000000  -0.1000000   0.7000000), wk =   0.0960000
        k(   40) = (   0.4000000   0.0000000   0.6000000), wk =   0.0480000
        k(   41) = (   0.8000000  -0.2000000   1.0000000), wk =   0.0480000
        k(   42) = (   0.7000000  -0.1000000   0.9000000), wk =   0.0960000
        k(   43) = (   0.6000000   0.0000000   0.8000000), wk =   0.0480000
        k(   44) = (  -0.2000000  -1.0000000   0.0000000), wk =   0.0240000
        k(   45) = (   0.6000000  -0.2000000   1.0000000), wk =   0.0480000
        k(   46) = (   0.5000000  -0.1000000   0.9000000), wk =   0.0480000
        k(   47) = (  -0.4000000  -1.0000000   0.0000000), wk =   0.0240000

     Dense  grid:     7631 G-vectors     FFT dimensions: (  32,  32,  32)

     Estimated max dynamical RAM per process >      15.19 MB

     WARNING: libxc functional with ID  263 depends
      on external parameters: check the user_guide of
      QE if you need to modify them or to check their
      default values.

     Initial potential from superposition of free atoms

     starting charge       7.9999, renormalised to       8.0000
     Starting wfcs are    8 randomized atomic wfcs

     total cpu time spent up to now is        1.7 secs

     Self-consistent Calculation

     iteration #  1     ecut=    50.00 Ry     beta= 0.01
     Davidson diagonalization with overlap
     ethr =  1.00E-02,  avg # of iterations =  1.5

     total cpu time spent up to now is        3.7 secs

     total energy              =     -22.32052353 Ry
     estimated scf accuracy    <       0.82458372 Ry

     iteration #  2     ecut=    50.00 Ry     beta= 0.01
     Davidson diagonalization with overlap
     ethr =  1.00E-02,  avg # of iterations =  1.0

     total cpu time spent up to now is        5.6 secs

     total energy              =     -22.28735553 Ry
     estimated scf accuracy    <       0.84920087 Ry

     iteration #  3     ecut=    50.00 Ry     beta= 0.01
     Davidson diagonalization with overlap
     ethr =  1.00E-02,  avg # of iterations =  1.0

     total cpu time spent up to now is        7.5 secs

     total energy              =     -22.34428994 Ry
     estimated scf accuracy    <       1.31645419 Ry

     iteration #  4     ecut=    50.00 Ry     beta= 0.01
     Davidson diagonalization with overlap
     ethr =  1.00E-02,  avg # of iterations =  1.0

     total cpu time spent up to now is        9.4 secs

     total energy              =     -22.34801483 Ry
     estimated scf accuracy    <       0.00492706 Ry

     iteration #  5     ecut=    50.00 Ry     beta= 0.01
     Davidson diagonalization with overlap
     ethr =  6.16E-05,  avg # of iterations =  1.1

     total cpu time spent up to now is       10.8 secs

     total energy              =     -22.34828570 Ry
     estimated scf accuracy    <       0.00238581 Ry

     iteration #  6     ecut=    50.00 Ry     beta= 0.01
     Davidson diagonalization with overlap
     ethr =  2.98E-05,  avg # of iterations =  1.0

     total cpu time spent up to now is       12.2 secs

     total energy              =     -22.34817883 Ry
     estimated scf accuracy    <       0.00283782 Ry

     iteration #  7     ecut=    50.00 Ry     beta= 0.01
     Davidson diagonalization with overlap
     ethr =  2.98E-05,  avg # of iterations =  1.0

     total cpu time spent up to now is       13.9 secs

     total energy              =     -22.34816128 Ry
     estimated scf accuracy    <       0.00077585 Ry

     iteration #  8     ecut=    50.00 Ry     beta= 0.01
     Davidson diagonalization with overlap
     ethr =  9.70E-06,  avg # of iterations =  1.0

     total cpu time spent up to now is       15.7 secs

     total energy              =     -22.34820240 Ry
     estimated scf accuracy    <       0.00009239 Ry

     iteration #  9     ecut=    50.00 Ry     beta= 0.01
     Davidson diagonalization with overlap
     ethr =  1.15E-06,  avg # of iterations =  1.9

     total cpu time spent up to now is       17.4 secs

     total energy              =     -22.34820992 Ry
     estimated scf accuracy    <       0.00009281 Ry

     iteration # 10     ecut=    50.00 Ry     beta= 0.01
     Davidson diagonalization with overlap
     ethr =  1.15E-06,  avg # of iterations =  1.0

     total cpu time spent up to now is       18.5 secs

     total energy              =     -22.34821527 Ry
     estimated scf accuracy    <       0.00008347 Ry

     iteration # 11     ecut=    50.00 Ry     beta= 0.01
     Davidson diagonalization with overlap
     ethr =  1.04E-06,  avg # of iterations =  1.0

     total cpu time spent up to now is       19.3 secs

     total energy              =     -22.34821835 Ry
     estimated scf accuracy    <       0.00005004 Ry

     iteration # 12     ecut=    50.00 Ry     beta= 0.01
     Davidson diagonalization with overlap
     ethr =  6.25E-07,  avg # of iterations =  1.0

     total cpu time spent up to now is       19.9 secs

     total energy              =     -22.34822108 Ry
     estimated scf accuracy    <       0.00001659 Ry

     iteration # 13     ecut=    50.00 Ry     beta= 0.01
     Davidson diagonalization with overlap
     ethr =  2.07E-07,  avg # of iterations =  1.1

     total cpu time spent up to now is       20.4 secs

     total energy              =     -22.34821991 Ry
     estimated scf accuracy    <       0.00001785 Ry

     iteration # 14     ecut=    50.00 Ry     beta= 0.01
     Davidson diagonalization with overlap
     ethr =  2.07E-07,  avg # of iterations =  1.0

     total cpu time spent up to now is       21.0 secs

     total energy              =     -22.34820373 Ry
     estimated scf accuracy    <       0.00001740 Ry

     iteration # 15     ecut=    50.00 Ry     beta= 0.01
     Davidson diagonalization with overlap
     ethr =  2.07E-07,  avg # of iterations =  1.0

     total cpu time spent up to now is       21.6 secs

     total energy              =     -22.34820171 Ry
     estimated scf accuracy    <       0.00003636 Ry

     iteration # 16     ecut=    50.00 Ry     beta= 0.01
     Davidson diagonalization with overlap
     ethr =  2.07E-07,  avg # of iterations =  1.0

     total cpu time spent up to now is       22.1 secs

     total energy              =     -22.34819655 Ry
     estimated scf accuracy    <       0.00004052 Ry

     iteration # 17     ecut=    50.00 Ry     beta= 0.01
     Davidson diagonalization with overlap
     ethr =  2.07E-07,  avg # of iterations =  1.0

     total cpu time spent up to now is       22.7 secs

     total energy              =     -22.34822154 Ry
     estimated scf accuracy    <       0.00004884 Ry

     iteration # 18     ecut=    50.00 Ry     beta= 0.01
     Davidson diagonalization with overlap
     ethr =  2.07E-07,  avg # of iterations =  2.0

     total cpu time spent up to now is       23.4 secs

     End of self-consistent calculation

          k = 0.0000 0.0000 0.0000 (   941 PWs)   bands (ev):

   -11.5207   3.4789   3.4789   3.4789

          k =-0.1000 0.1000-0.1000 (   932 PWs)   bands (ev):

   -11.3560   1.8277   3.2765   3.2765

          k =-0.2000 0.2000-0.2000 (   938 PWs)   bands (ev):

   -10.8722  -0.3303   2.8404   2.8404

          k =-0.3000 0.3000-0.3000 (   941 PWs)   bands (ev):

   -10.1122  -2.4053   2.4131   2.4131

          k =-0.4000 0.4000-0.4000 (   941 PWs)   bands (ev):

    -9.2178  -4.1289   2.1225   2.1225

          k = 0.5000-0.5000 0.5000 (   960 PWs)   bands (ev):

    -8.7090  -4.9237   2.0235   2.0235

          k = 0.0000 0.2000 0.0000 (   937 PWs)   bands (ev):

   -11.3008   1.7826   2.9397   2.9397

          k =-0.1000 0.3000-0.1000 (   935 PWs)   bands (ev):

   -10.9218   0.1575   2.4580   2.5494

          k =-0.2000 0.4000-0.2000 (   944 PWs)   bands (ev):

   -10.2473  -1.8134   2.0386   2.0492

          k =-0.3000 0.5000-0.3000 (   931 PWs)   bands (ev):

    -9.3695  -3.6206   1.5606   1.8202

          k = 0.6000-0.4000 0.6000 (   940 PWs)   bands (ev):

    -8.6333  -4.7990   1.2370   1.8043

          k = 0.5000-0.3000 0.5000 (   942 PWs)   bands (ev):

    -8.8200  -4.5211   1.1289   1.9987

          k = 0.4000-0.2000 0.4000 (   936 PWs)   bands (ev):

    -9.6763  -3.0512   1.2662   2.3700

          k = 0.3000-0.1000 0.3000 (   940 PWs)   bands (ev):

   -10.5038  -1.1727   1.6705   2.8357

          k = 0.2000 0.0000 0.2000 (   931 PWs)   bands (ev):

   -11.0844   0.6518   2.3980   3.2232

          k = 0.0000 0.4000 0.0000 (   942 PWs)   bands (ev):

   -10.6489  -0.3204   1.9466   1.9466

          k =-0.1000 0.5000-0.1000 (   944 PWs)   bands (ev):

   -10.0703  -1.6938   1.3731   1.5224

          k =-0.2000 0.6000-0.2000 (   933 PWs)   bands (ev):

    -9.2460  -3.2763   0.6760   1.2982

          k = 0.7000-0.3000 0.7000 (   942 PWs)   bands (ev):

    -8.3905  -4.5893   0.0977   1.3041

          k = 0.6000-0.2000 0.6000 (   941 PWs)   bands (ev):

    -8.2244  -4.8092  -0.2121   1.5415

          k = 0.5000-0.1000 0.5000 (   939 PWs)   bands (ev):

    -8.9772  -3.7230  -0.1509   1.9601

          k = 0.4000 0.0000 0.4000 (   945 PWs)   bands (ev):

    -9.8439  -2.3155   0.4397   2.4591

          k = 0.0000 0.6000 0.0000 (   938 PWs)   bands (ev):

    -9.5882  -2.4355   1.0660   1.0660

          k =-0.1000 0.7000-0.1000 (   943 PWs)   bands (ev):

    -8.8385  -3.6023   0.4604   0.8051

          k = 0.8000-0.2000 0.8000 (   945 PWs)   bands (ev):

    -7.9482  -4.7549  -0.3602   0.7855

          k = 0.7000-0.1000 0.7000 (   953 PWs)   bands (ev):

    -7.4913  -5.2648  -0.9359   1.0101

          k = 0.6000-0.0000 0.6000 (   945 PWs)   bands (ev):

    -8.1144  -4.5753  -0.9455   1.4387

          k = 0.0000 0.8000 0.0000 (   942 PWs)   bands (ev):

    -8.1629  -4.5011   0.4942   0.4942

          k = 0.9000-0.1000 0.9000 (   950 PWs)   bands (ev):

    -7.2902  -5.4998  -0.0193   0.4229

          k = 0.8000 0.0000 0.8000 (   951 PWs)   bands (ev):

    -6.7789  -5.9702  -0.7342   0.6062

          k = 0.0000-1.0000 0.0000 (   950 PWs)   bands (ev):

    -6.4396  -6.4396   0.2948   0.2948

          k =-0.2000 0.4000 0.0000 (   934 PWs)   bands (ev):

   -10.4439  -1.0372   1.4111   2.3777

          k =-0.3000 0.5000-0.1000 (   937 PWs)   bands (ev):

    -9.6919  -2.6234   0.6898   1.9804

          k = 0.6000-0.4000 0.8000 (   936 PWs)   bands (ev):

    -8.8006  -4.1454   0.3351   1.6142

          k = 0.5000-0.3000 0.7000 (   942 PWs)   bands (ev):

    -8.2839  -4.8914   0.2314   1.4718

          k =-0.2000 0.6000 0.0000 (   937 PWs)   bands (ev):

    -9.4083  -2.8040   0.5625   1.2509

          k = 0.7000-0.3000 0.9000 (   941 PWs)   bands (ev):

    -8.5412  -4.0659  -0.1157   0.9270

          k = 0.6000-0.2000 0.8000 (   948 PWs)   bands (ev):

    -7.7982  -5.0093  -0.5754   0.8626

          k = 0.5000-0.1000 0.7000 (   939 PWs)   bands (ev):

    -8.0292  -4.7224  -0.7050   1.1080

          k = 0.4000 0.0000 0.6000 (   937 PWs)   bands (ev):

    -8.8918  -3.6382  -0.3268   1.5536

          k = 0.8000-0.2000 1.0000 (   944 PWs)   bands (ev):

    -8.0305  -4.6139   0.0646   0.4067

          k = 0.7000-0.1000 0.9000 (   943 PWs)   bands (ev):

    -7.1711  -5.5278  -0.5877   0.3164

          k = 0.6000 0.0000 0.8000 (   938 PWs)   bands (ev):

    -7.2106  -5.4636  -1.0032   0.6050

          k =-0.2000-1.0000 0.0000 (   956 PWs)   bands (ev):

    -6.3951  -6.3951   0.0012   0.0012

          k = 0.6000-0.2000 1.0000 (   940 PWs)   bands (ev):

    -7.6731  -4.9602  -0.6528   0.3977

          k = 0.5000-0.1000 0.9000 (   938 PWs)   bands (ev):

    -7.0882  -5.5563  -0.8068   0.1437

          k =-0.4000-1.0000 0.0000 (   940 PWs)   bands (ev):

    -6.3185  -6.3185  -0.4138  -0.4138

     highest occupied level (ev):     3.4789

!    total energy              =     -22.34822727 Ry
     estimated scf accuracy    <       0.00000099 Ry

     The total energy is the sum of the following terms:
     one-electron contribution =       1.02965674 Ry
     hartree contribution      =       2.83721724 Ry
     xc contribution           =      -6.11323334 Ry
     ewald contribution        =     -20.10186791 Ry

     convergence has been achieved in  18 iterations
     Writing meta-gga kinetic term

     Writing all to output data dir ./input_pw/C/14/pwscf.save/
     Writing meta-gga kinetic term
 
     init_run     :      0.77s CPU      1.71s WALL (       1 calls)
     electrons    :     14.29s CPU     21.69s WALL (       1 calls)

     Called by init_run:
     wfcinit      :      0.71s CPU      1.60s WALL (       1 calls)
     potinit      :      0.02s CPU      0.04s WALL (       1 calls)
     hinit0       :      0.03s CPU      0.05s WALL (       1 calls)

     Called by electrons:
     c_bands      :     11.06s CPU     16.89s WALL (      18 calls)
     sum_band     :      2.80s CPU      4.12s WALL (      18 calls)
     v_of_rho     :      0.30s CPU      0.46s WALL (      19 calls)
     mix_rho      :      0.14s CPU      0.24s WALL (      18 calls)

     Called by c_bands:
     init_us_2    :      0.05s CPU      0.05s WALL (    1739 calls)
     init_us_2:cp :      0.05s CPU      0.05s WALL (    1739 calls)
     cegterg      :     11.00s CPU     16.81s WALL (     846 calls)

     Called by *egterg:
     cdiaghg      :      0.07s CPU      0.08s WALL (    1810 calls)
     h_psi        :     11.45s CPU     17.99s WALL (    1857 calls)
     g_psi        :      0.01s CPU      0.01s WALL (     964 calls)

     Called by h_psi:
     h_psi:calbec :      0.02s CPU      0.02s WALL (    1857 calls)
     vloc_psi     :      2.83s CPU      4.68s WALL (    1857 calls)
     add_vuspsi   :      0.03s CPU      0.03s WALL (    1857 calls)
     h_psi_meta   :      8.54s CPU     13.23s WALL (    1857 calls)

     General routines
     calbec       :      0.02s CPU      0.02s WALL (    1857 calls)
     fft          :      0.04s CPU      0.08s WALL (     225 calls)
     ffts         :      0.06s CPU      0.11s WALL (     357 calls)
     fftw         :     11.89s CPU     18.54s WALL (   72880 calls)
     interpolate  :      0.00s CPU      0.00s WALL (      19 calls)
 
     Parallel routines
 
     PWSCF        :     15.10s CPU     23.44s WALL

 
   This run was terminated on:  11:48:39  14Mar2023            

=------------------------------------------------------------------------------=
   JOB DONE.
=------------------------------------------------------------------------------=
