
     Program PWSCF v.7.0 starts on  7Jul2023 at 14:25:23 

     This program is part of the open-source Quantum ESPRESSO suite
     for quantum simulation of materials; please cite
         "P. Giannozzi et al., J. Phys.:Condens. Matter 21 395502 (2009);
         "P. Giannozzi et al., J. Phys.:Condens. Matter 29 465901 (2017);
         "P. Giannozzi et al., J. Chem. Phys. 152 154105 (2020);
          URL http://www.quantum-espresso.org", 
     in publications or presentations arising from this work. More details at
     http://www.quantum-espresso.org/quote

     Parallel version (MPI), running on     1 processors

     MPI processes distributed on     1 nodes
     27468 MiB available memory on the printing compute node when the environment starts
 
     Waiting for input...
     Reading input from standard input
Warning: card &CELL ignored
Warning: card / ignored

     Current dimensions of program PWSCF are:
     Max number of different atomic species (ntypx) = 10
     Max number of k-points (npk) =  40000
     Max angular momentum in pseudopotentials (lmaxx) =  4

     WARNING: the MGGA functional with ID    5 has been 
     read together with other dft terms, but it should 
     stand alone in order to work properly. The other 
     terms will be ignored.

     Subspace diagonalization in iterative solution of the eigenvalue problem:
     a serial algorithm will be used

 
     G-vector sticks info
     --------------------
     sticks:   dense  smooth     PW     G-vecs:    dense   smooth      PW
     Sum         253     253     85                 2733     2733     537
 
     Using Slab Decomposition
 


     bravais-lattice index     =            2
     lattice parameter (alat)  =       6.0979  a.u.
     unit-cell volume          =      56.6872 (a.u.)^3
     number of atoms/cell      =            2
     number of atomic types    =            1
     number of electrons       =         8.00
     number of Kohn-Sham states=            4
     kinetic-energy cutoff     =      50.0000  Ry
     charge density cutoff     =     200.0000  Ry
     scf convergence threshold =      2.0E-05
     mixing beta               =       0.2000
     number of iterations used =            8  local-TF  mixing
     Exchange-correlation= SLA  PW   SCAN SCAN
                           (   0   0   0   0   0 263 267)

     celldm(1)=   6.097919  celldm(2)=   0.000000  celldm(3)=   0.000000
     celldm(4)=   0.000000  celldm(5)=   0.000000  celldm(6)=   0.000000

     crystal axes: (cart. coord. in units of alat)
               a(1) = (  -0.500000   0.000000   0.500000 )  
               a(2) = (   0.000000   0.500000   0.500000 )  
               a(3) = (  -0.500000   0.500000   0.000000 )  

     reciprocal axes: (cart. coord. in units 2 pi/alat)
               b(1) = ( -1.000000 -1.000000  1.000000 )  
               b(2) = (  1.000000  1.000000  1.000000 )  
               b(3) = ( -1.000000  1.000000 -1.000000 )  


     PseudoPot. # 1 for C  read from file:
     ~/Documents/TA/PWDFT.jl/pseudopotentials/scan_upf/C.SCAN.UPF2
     MD5 check sum: Not computed, couldn't open file
     Pseudo is Norm-conserving, Zval =  4.0
     Generated by new atomic code, or converted to UPF format
     Using radial grid of 1389 points,  1 beta functions with: 
                l(1) =   0

     atomic species   valence    mass     pseudopotential
        C              4.00    12.01100     C ( 1.00)

     48 Sym. Ops., with inversion, found (24 have fractional translation)



   Cartesian axes

     site n.     atom                  positions (alat units)
         1           C   tau(   1) = (   0.0000000   0.0000000   0.0000000  )
         2           C   tau(   2) = (   0.2500000   0.2500000   0.2500000  )

     number of k points=    47
                       cart. coord. in units 2pi/alat
        k(    1) = (   0.0000000   0.0000000   0.0000000), wk =   0.0020000
        k(    2) = (  -0.1000000   0.1000000  -0.1000000), wk =   0.0160000
        k(    3) = (  -0.2000000   0.2000000  -0.2000000), wk =   0.0160000
        k(    4) = (  -0.3000000   0.3000000  -0.3000000), wk =   0.0160000
        k(    5) = (  -0.4000000   0.4000000  -0.4000000), wk =   0.0160000
        k(    6) = (   0.5000000  -0.5000000   0.5000000), wk =   0.0080000
        k(    7) = (   0.0000000   0.2000000   0.0000000), wk =   0.0120000
        k(    8) = (  -0.1000000   0.3000000  -0.1000000), wk =   0.0480000
        k(    9) = (  -0.2000000   0.4000000  -0.2000000), wk =   0.0480000
        k(   10) = (  -0.3000000   0.5000000  -0.3000000), wk =   0.0480000
        k(   11) = (   0.6000000  -0.4000000   0.6000000), wk =   0.0480000
        k(   12) = (   0.5000000  -0.3000000   0.5000000), wk =   0.0480000
        k(   13) = (   0.4000000  -0.2000000   0.4000000), wk =   0.0480000
        k(   14) = (   0.3000000  -0.1000000   0.3000000), wk =   0.0480000
        k(   15) = (   0.2000000   0.0000000   0.2000000), wk =   0.0240000
        k(   16) = (   0.0000000   0.4000000   0.0000000), wk =   0.0120000
        k(   17) = (  -0.1000000   0.5000000  -0.1000000), wk =   0.0480000
        k(   18) = (  -0.2000000   0.6000000  -0.2000000), wk =   0.0480000
        k(   19) = (   0.7000000  -0.3000000   0.7000000), wk =   0.0480000
        k(   20) = (   0.6000000  -0.2000000   0.6000000), wk =   0.0480000
        k(   21) = (   0.5000000  -0.1000000   0.5000000), wk =   0.0480000
        k(   22) = (   0.4000000   0.0000000   0.4000000), wk =   0.0240000
        k(   23) = (   0.0000000   0.6000000   0.0000000), wk =   0.0120000
        k(   24) = (  -0.1000000   0.7000000  -0.1000000), wk =   0.0480000
        k(   25) = (   0.8000000  -0.2000000   0.8000000), wk =   0.0480000
        k(   26) = (   0.7000000  -0.1000000   0.7000000), wk =   0.0480000
        k(   27) = (   0.6000000  -0.0000000   0.6000000), wk =   0.0240000
        k(   28) = (   0.0000000   0.8000000   0.0000000), wk =   0.0120000
        k(   29) = (   0.9000000  -0.1000000   0.9000000), wk =   0.0480000
        k(   30) = (   0.8000000   0.0000000   0.8000000), wk =   0.0240000
        k(   31) = (   0.0000000  -1.0000000   0.0000000), wk =   0.0060000
        k(   32) = (  -0.2000000   0.4000000   0.0000000), wk =   0.0480000
        k(   33) = (  -0.3000000   0.5000000  -0.1000000), wk =   0.0960000
        k(   34) = (   0.6000000  -0.4000000   0.8000000), wk =   0.0960000
        k(   35) = (   0.5000000  -0.3000000   0.7000000), wk =   0.0480000
        k(   36) = (  -0.2000000   0.6000000   0.0000000), wk =   0.0480000
        k(   37) = (   0.7000000  -0.3000000   0.9000000), wk =   0.0960000
        k(   38) = (   0.6000000  -0.2000000   0.8000000), wk =   0.0960000
        k(   39) = (   0.5000000  -0.1000000   0.7000000), wk =   0.0960000
        k(   40) = (   0.4000000   0.0000000   0.6000000), wk =   0.0480000
        k(   41) = (   0.8000000  -0.2000000   1.0000000), wk =   0.0480000
        k(   42) = (   0.7000000  -0.1000000   0.9000000), wk =   0.0960000
        k(   43) = (   0.6000000   0.0000000   0.8000000), wk =   0.0480000
        k(   44) = (  -0.2000000  -1.0000000   0.0000000), wk =   0.0240000
        k(   45) = (   0.6000000  -0.2000000   1.0000000), wk =   0.0480000
        k(   46) = (   0.5000000  -0.1000000   0.9000000), wk =   0.0480000
        k(   47) = (  -0.4000000  -1.0000000   0.0000000), wk =   0.0240000

     Dense  grid:     2733 G-vectors     FFT dimensions: (  20,  20,  20)

     Estimated max dynamical RAM per process >       5.02 MB

     WARNING: libxc functional with ID  263 depends
      on external parameters: check the user_guide of
      QE if you need to modify them or to check their
      default values.

     Initial potential from superposition of free atoms

     starting charge       7.9999, renormalised to       8.0000
     Starting wfcs are    8 randomized atomic wfcs

     total cpu time spent up to now is        1.1 secs

     Self-consistent Calculation

     iteration #  1     ecut=    50.00 Ry     beta= 0.20
     Davidson diagonalization with overlap
     ethr =  1.00E-02,  avg # of iterations =  2.0

     total cpu time spent up to now is        2.2 secs

     total energy              =     -22.62292992 Ry
     estimated scf accuracy    <       3.18211165 Ry

     iteration #  2     ecut=    50.00 Ry     beta= 0.20
     Davidson diagonalization with overlap
     ethr =  1.00E-02,  avg # of iterations =  1.0

     total cpu time spent up to now is        2.9 secs

     total energy              =     -22.61274083 Ry
     estimated scf accuracy    <       2.12686366 Ry

     iteration #  3     ecut=    50.00 Ry     beta= 0.20
     Davidson diagonalization with overlap
     ethr =  1.00E-02,  avg # of iterations =  1.0

     total cpu time spent up to now is        3.7 secs

     total energy              =     -22.62155840 Ry
     estimated scf accuracy    <       0.03135791 Ry

     iteration #  4     ecut=    50.00 Ry     beta= 0.20
     Davidson diagonalization with overlap
     ethr =  3.92E-04,  avg # of iterations =  1.0

     total cpu time spent up to now is        4.5 secs

     total energy              =     -22.62177767 Ry
     estimated scf accuracy    <       0.01487384 Ry

     iteration #  5     ecut=    50.00 Ry     beta= 0.20
     Davidson diagonalization with overlap
     ethr =  1.86E-04,  avg # of iterations =  1.0

     total cpu time spent up to now is        5.3 secs

     total energy              =     -22.62258605 Ry
     estimated scf accuracy    <       0.00210032 Ry

     iteration #  6     ecut=    50.00 Ry     beta= 0.20
     Davidson diagonalization with overlap
     ethr =  2.63E-05,  avg # of iterations =  1.0

     total cpu time spent up to now is        6.0 secs

     total energy              =     -22.62264808 Ry
     estimated scf accuracy    <       0.00009592 Ry

     iteration #  7     ecut=    50.00 Ry     beta= 0.20
     Davidson diagonalization with overlap
     ethr =  1.20E-06,  avg # of iterations =  1.3

     total cpu time spent up to now is        6.9 secs

     total energy              =     -22.62268185 Ry
     estimated scf accuracy    <       0.00008974 Ry

     iteration #  8     ecut=    50.00 Ry     beta= 0.20
     Davidson diagonalization with overlap
     ethr =  1.12E-06,  avg # of iterations =  1.0

     total cpu time spent up to now is        7.6 secs

     total energy              =     -22.62268781 Ry
     estimated scf accuracy    <       0.00002903 Ry

     iteration #  9     ecut=    50.00 Ry     beta= 0.20
     Davidson diagonalization with overlap
     ethr =  3.63E-07,  avg # of iterations =  2.0

     total cpu time spent up to now is        8.3 secs

     End of self-consistent calculation

          k = 0.0000 0.0000 0.0000 (   331 PWs)   bands (ev):

    -7.6635  19.2666  19.2666  19.2666

          k =-0.1000 0.1000-0.1000 (   332 PWs)   bands (ev):

    -7.3132  17.0872  18.6493  18.6493

          k =-0.2000 0.2000-0.2000 (   332 PWs)   bands (ev):

    -6.2657  12.9932  17.4641  17.4641

          k =-0.3000 0.3000-0.3000 (   344 PWs)   bands (ev):

    -4.5363   8.6690  16.4034  16.4034

          k =-0.4000 0.4000-0.4000 (   344 PWs)   bands (ev):

    -2.1628   4.6298  15.7308  15.7308

          k = 0.5000-0.5000 0.5000 (   344 PWs)   bands (ev):

     0.2594   1.6437  15.4971  15.4971

          k = 0.0000 0.2000 0.0000 (   335 PWs)   bands (ev):

    -7.1965  17.5411  17.5411  18.3509

          k =-0.1000 0.3000-0.1000 (   335 PWs)   bands (ev):

    -6.3819  14.4029  16.2263  17.6693

          k =-0.2000 0.4000-0.2000 (   334 PWs)   bands (ev):

    -4.8801  10.2611  15.2338  16.4936

          k =-0.3000 0.5000-0.3000 (   337 PWs)   bands (ev):

    -2.7188   6.1751  14.7493  15.3145

          k = 0.6000-0.4000 0.6000 (   342 PWs)   bands (ev):

    -0.0461   2.5818  14.4423  14.8121

          k = 0.5000-0.3000 0.5000 (   340 PWs)   bands (ev):

    -0.9599   3.6860  14.0219  15.3872

          k = 0.4000-0.2000 0.4000 (   344 PWs)   bands (ev):

    -3.5109   7.5167  14.1152  16.3771

          k = 0.3000-0.1000 0.3000 (   333 PWs)   bands (ev):

    -5.4559  11.6892  14.7609  17.6265

          k = 0.2000 0.0000 0.2000 (   331 PWs)   bands (ev):

    -6.7307  15.5652  16.0659  18.6593

          k = 0.0000 0.4000 0.0000 (   331 PWs)   bands (ev):

    -5.8016  14.8152  14.8152  15.8481

          k =-0.1000 0.5000-0.1000 (   340 PWs)   bands (ev):

    -4.5345  11.8589  13.7453  14.7435

          k =-0.2000 0.6000-0.2000 (   339 PWs)   bands (ev):

    -2.6028   8.0970  13.2437  13.3099

          k = 0.7000-0.3000 0.7000 (   345 PWs)   bands (ev):

    -0.0886   4.4712  11.9596  13.3468

          k = 0.6000-0.2000 0.6000 (   336 PWs)   bands (ev):

     0.7768   3.4682  11.0485  14.0446

          k = 0.5000-0.1000 0.5000 (   339 PWs)   bands (ev):

    -1.8308   6.9436  10.6987  15.2078

          k = 0.4000 0.0000 0.4000 (   333 PWs)   bands (ev):

    -3.9661  10.5597  11.2534  16.6044

          k = 0.0000 0.6000 0.0000 (   339 PWs)   bands (ev):

    -3.5021  12.1445  12.5724  12.5724

          k =-0.1000 0.7000-0.1000 (   333 PWs)   bands (ev):

    -1.8087   9.5150  11.2345  11.9498

          k = 0.8000-0.2000 0.8000 (   340 PWs)   bands (ev):

     0.4843   6.5648   9.3172  11.9513

          k = 0.7000-0.1000 0.7000 (   343 PWs)   bands (ev):

     2.6086   4.2586   7.8801  12.5808

          k = 0.6000-0.0000 0.6000 (   339 PWs)   bands (ev):

     0.4307   6.6984   7.4367  13.7434

          k = 0.0000 0.8000 0.0000 (   335 PWs)   bands (ev):

    -0.3589   7.8327  11.1679  11.1679

          k = 0.9000-0.1000 0.9000 (   338 PWs)   bands (ev):

     1.6945   5.7534   9.6779  11.0148

          k = 0.8000 0.0000 0.8000 (   341 PWs)   bands (ev):

     3.9116   4.3120   7.2309  11.5076

          k = 0.0000-1.0000 0.0000 (   342 PWs)   bands (ev):

     3.5012   3.5012  10.6880  10.6880

          k =-0.2000 0.4000 0.0000 (   335 PWs)   bands (ev):

    -5.3404  12.9460  13.5473  16.8546

          k =-0.3000 0.5000-0.1000 (   334 PWs)   bands (ev):

    -3.6228   9.2651  12.5778  15.5845

          k = 0.6000-0.4000 0.8000 (   341 PWs)   bands (ev):

    -1.2769   5.4167  12.3595  14.3348

          k = 0.5000-0.3000 0.7000 (   342 PWs)   bands (ev):

     1.0540   2.5594  12.4350  13.7391

          k =-0.2000 0.6000 0.0000 (   331 PWs)   bands (ev):

    -3.0510  10.6005  11.4371  13.5131

          k = 0.7000-0.3000 0.9000 (   337 PWs)   bands (ev):

    -0.9344   7.4570  10.5936  12.2142

          k = 0.6000-0.2000 0.8000 (   340 PWs)   bands (ev):

     1.6171   4.2448   9.8440  11.9548

          k = 0.5000-0.1000 0.7000 (   338 PWs)   bands (ev):

     0.7427   5.3137   9.1504  12.7891

          k = 0.4000 0.0000 0.6000 (   337 PWs)   bands (ev):

    -1.7153   8.5280   9.2802  14.1691

          k = 0.8000-0.2000 1.0000 (   336 PWs)   bands (ev):

     0.0672   7.8048  10.1091  10.6114

          k = 0.7000-0.1000 0.9000 (   343 PWs)   bands (ev):

     2.4554   5.8263   7.9130  10.5200

          k = 0.6000 0.0000 0.8000 (   342 PWs)   bands (ev):

     3.0646   5.4329   6.5624  11.3768

          k =-0.2000-1.0000 0.0000 (   340 PWs)   bands (ev):

     3.8530   3.8530   9.7414   9.7414

          k = 0.6000-0.2000 1.0000 (   343 PWs)   bands (ev):

     1.2997   6.9328   8.0938  10.5231

          k = 0.5000-0.1000 0.9000 (   344 PWs)   bands (ev):

     3.3717   4.9732   7.8782   9.6776

          k =-0.4000-1.0000 0.0000 (   344 PWs)   bands (ev):

     4.6722   4.6722   8.1107   8.1107

     highest occupied level (ev):    19.2666

!    total energy              =     -22.62269112 Ry
     estimated scf accuracy    <       0.00000912 Ry

     The total energy is the sum of the following terms:
     one-electron contribution =      11.59397563 Ry
     hartree contribution      =       1.68072904 Ry
     xc contribution           =      -7.62914138 Ry
     ewald contribution        =     -28.26825442 Ry

     convergence has been achieved in   9 iterations
     Writing meta-gga kinetic term

     Writing all to output data dir ./input_pw/C/2/pwscf.save/
     Writing meta-gga kinetic term
 
     init_run     :      0.32s CPU      1.03s WALL (       1 calls)
     electrons    :      3.60s CPU      7.22s WALL (       1 calls)

     Called by init_run:
     wfcinit      :      0.28s CPU      0.92s WALL (       1 calls)
     potinit      :      0.01s CPU      0.01s WALL (       1 calls)
     hinit0       :      0.03s CPU      0.10s WALL (       1 calls)

     Called by electrons:
     c_bands      :      2.84s CPU      5.69s WALL (       9 calls)
     sum_band     :      0.70s CPU      1.39s WALL (       9 calls)
     v_of_rho     :      0.05s CPU      0.11s WALL (      10 calls)
     mix_rho      :      0.02s CPU      0.02s WALL (       9 calls)

     Called by c_bands:
     init_us_2    :      0.02s CPU      0.06s WALL (     893 calls)
     init_us_2:cp :      0.01s CPU      0.04s WALL (     893 calls)
     cegterg      :      2.82s CPU      5.65s WALL (     423 calls)

     Called by *egterg:
     cdiaghg      :      0.04s CPU      0.07s WALL (     952 calls)
     h_psi        :      3.00s CPU      6.39s WALL (     999 calls)
     g_psi        :      0.00s CPU      0.00s WALL (     529 calls)

     Called by h_psi:
     h_psi:calbec :      0.01s CPU      0.01s WALL (     999 calls)
     vloc_psi     :      0.74s CPU      1.44s WALL (     999 calls)
     add_vuspsi   :      0.01s CPU      0.03s WALL (     999 calls)
     h_psi_meta   :      2.23s CPU      4.89s WALL (     999 calls)

     General routines
     calbec       :      0.01s CPU      0.01s WALL (     999 calls)
     fft          :      0.01s CPU      0.05s WALL (     117 calls)
     ffts         :      0.01s CPU      0.01s WALL (     138 calls)
     fftw         :      3.27s CPU      6.81s WALL (   38928 calls)
     interpolate  :      0.00s CPU      0.00s WALL (      10 calls)
 
     Parallel routines
 
     PWSCF        :      3.96s CPU      8.36s WALL

 
   This run was terminated on:  14:25:31   7Jul2023            

=------------------------------------------------------------------------------=
   JOB DONE.
=------------------------------------------------------------------------------=
