
     Program PWSCF v.7.0 starts on 29Mar2023 at 12:34:18 

     This program is part of the open-source Quantum ESPRESSO suite
     for quantum simulation of materials; please cite
         "P. Giannozzi et al., J. Phys.:Condens. Matter 21 395502 (2009);
         "P. Giannozzi et al., J. Phys.:Condens. Matter 29 465901 (2017);
         "P. Giannozzi et al., J. Chem. Phys. 152 154105 (2020);
          URL http://www.quantum-espresso.org", 
     in publications or presentations arising from this work. More details at
     http://www.quantum-espresso.org/quote

     Parallel version (MPI), running on     1 processors

     MPI processes distributed on     1 nodes
     23435 MiB available memory on the printing compute node when the environment starts
 
     Waiting for input...
     Reading input from standard input
Warning: card &CELL ignored
Warning: card / ignored

     Current dimensions of program PWSCF are:
     Max number of different atomic species (ntypx) = 10
     Max number of k-points (npk) =  40000
     Max angular momentum in pseudopotentials (lmaxx) =  4

     WARNING: the MGGA functional with ID    5 has been 
     read together with other dft terms, but it should 
     stand alone in order to work properly. The other 
     terms will be ignored.

     Subspace diagonalization in iterative solution of the eigenvalue problem:
     a serial algorithm will be used

 
     G-vector sticks info
     --------------------
     sticks:   dense  smooth     PW     G-vecs:    dense   smooth      PW
     Sum         253     253     85                 2733     2733     537
 
     Using Slab Decomposition
 


     bravais-lattice index     =            2
     lattice parameter (alat)  =       6.0979  a.u.
     unit-cell volume          =      56.6872 (a.u.)^3
     number of atoms/cell      =            2
     number of atomic types    =            1
     number of electrons       =         8.00
     number of Kohn-Sham states=            4
     kinetic-energy cutoff     =      50.0000  Ry
     charge density cutoff     =     200.0000  Ry
     scf convergence threshold =      1.0E-06
     mixing beta               =       0.0100
     number of iterations used =            8  local-TF  mixing
     Exchange-correlation= SLA  PW   SCAN SCAN
                           (   0   0   0   0   0 263 267)

     celldm(1)=   6.097919  celldm(2)=   0.000000  celldm(3)=   0.000000
     celldm(4)=   0.000000  celldm(5)=   0.000000  celldm(6)=   0.000000

     crystal axes: (cart. coord. in units of alat)
               a(1) = (  -0.500000   0.000000   0.500000 )  
               a(2) = (   0.000000   0.500000   0.500000 )  
               a(3) = (  -0.500000   0.500000   0.000000 )  

     reciprocal axes: (cart. coord. in units 2 pi/alat)
               b(1) = ( -1.000000 -1.000000  1.000000 )  
               b(2) = (  1.000000  1.000000  1.000000 )  
               b(3) = ( -1.000000  1.000000 -1.000000 )  


     PseudoPot. # 1 for C  read from file:
     ~/Documents/TA/PWDFT.jl/pseudopotentials/scan_upf/C.SCAN.UPF2
     MD5 check sum: Not computed, couldn't open file
     Pseudo is Norm-conserving, Zval =  4.0
     Generated by new atomic code, or converted to UPF format
     Using radial grid of 1389 points,  1 beta functions with: 
                l(1) =   0

     atomic species   valence    mass     pseudopotential
        C              4.00    12.01100     C ( 1.00)

     48 Sym. Ops., with inversion, found (24 have fractional translation)



   Cartesian axes

     site n.     atom                  positions (alat units)
         1           C   tau(   1) = (   0.0000000   0.0000000   0.0000000  )
         2           C   tau(   2) = (   0.2500000   0.2500000   0.2500000  )

     number of k points=    47
                       cart. coord. in units 2pi/alat
        k(    1) = (   0.0000000   0.0000000   0.0000000), wk =   0.0020000
        k(    2) = (  -0.1000000   0.1000000  -0.1000000), wk =   0.0160000
        k(    3) = (  -0.2000000   0.2000000  -0.2000000), wk =   0.0160000
        k(    4) = (  -0.3000000   0.3000000  -0.3000000), wk =   0.0160000
        k(    5) = (  -0.4000000   0.4000000  -0.4000000), wk =   0.0160000
        k(    6) = (   0.5000000  -0.5000000   0.5000000), wk =   0.0080000
        k(    7) = (   0.0000000   0.2000000   0.0000000), wk =   0.0120000
        k(    8) = (  -0.1000000   0.3000000  -0.1000000), wk =   0.0480000
        k(    9) = (  -0.2000000   0.4000000  -0.2000000), wk =   0.0480000
        k(   10) = (  -0.3000000   0.5000000  -0.3000000), wk =   0.0480000
        k(   11) = (   0.6000000  -0.4000000   0.6000000), wk =   0.0480000
        k(   12) = (   0.5000000  -0.3000000   0.5000000), wk =   0.0480000
        k(   13) = (   0.4000000  -0.2000000   0.4000000), wk =   0.0480000
        k(   14) = (   0.3000000  -0.1000000   0.3000000), wk =   0.0480000
        k(   15) = (   0.2000000   0.0000000   0.2000000), wk =   0.0240000
        k(   16) = (   0.0000000   0.4000000   0.0000000), wk =   0.0120000
        k(   17) = (  -0.1000000   0.5000000  -0.1000000), wk =   0.0480000
        k(   18) = (  -0.2000000   0.6000000  -0.2000000), wk =   0.0480000
        k(   19) = (   0.7000000  -0.3000000   0.7000000), wk =   0.0480000
        k(   20) = (   0.6000000  -0.2000000   0.6000000), wk =   0.0480000
        k(   21) = (   0.5000000  -0.1000000   0.5000000), wk =   0.0480000
        k(   22) = (   0.4000000   0.0000000   0.4000000), wk =   0.0240000
        k(   23) = (   0.0000000   0.6000000   0.0000000), wk =   0.0120000
        k(   24) = (  -0.1000000   0.7000000  -0.1000000), wk =   0.0480000
        k(   25) = (   0.8000000  -0.2000000   0.8000000), wk =   0.0480000
        k(   26) = (   0.7000000  -0.1000000   0.7000000), wk =   0.0480000
        k(   27) = (   0.6000000  -0.0000000   0.6000000), wk =   0.0240000
        k(   28) = (   0.0000000   0.8000000   0.0000000), wk =   0.0120000
        k(   29) = (   0.9000000  -0.1000000   0.9000000), wk =   0.0480000
        k(   30) = (   0.8000000   0.0000000   0.8000000), wk =   0.0240000
        k(   31) = (   0.0000000  -1.0000000   0.0000000), wk =   0.0060000
        k(   32) = (  -0.2000000   0.4000000   0.0000000), wk =   0.0480000
        k(   33) = (  -0.3000000   0.5000000  -0.1000000), wk =   0.0960000
        k(   34) = (   0.6000000  -0.4000000   0.8000000), wk =   0.0960000
        k(   35) = (   0.5000000  -0.3000000   0.7000000), wk =   0.0480000
        k(   36) = (  -0.2000000   0.6000000   0.0000000), wk =   0.0480000
        k(   37) = (   0.7000000  -0.3000000   0.9000000), wk =   0.0960000
        k(   38) = (   0.6000000  -0.2000000   0.8000000), wk =   0.0960000
        k(   39) = (   0.5000000  -0.1000000   0.7000000), wk =   0.0960000
        k(   40) = (   0.4000000   0.0000000   0.6000000), wk =   0.0480000
        k(   41) = (   0.8000000  -0.2000000   1.0000000), wk =   0.0480000
        k(   42) = (   0.7000000  -0.1000000   0.9000000), wk =   0.0960000
        k(   43) = (   0.6000000   0.0000000   0.8000000), wk =   0.0480000
        k(   44) = (  -0.2000000  -1.0000000   0.0000000), wk =   0.0240000
        k(   45) = (   0.6000000  -0.2000000   1.0000000), wk =   0.0480000
        k(   46) = (   0.5000000  -0.1000000   0.9000000), wk =   0.0480000
        k(   47) = (  -0.4000000  -1.0000000   0.0000000), wk =   0.0240000

     Dense  grid:     2733 G-vectors     FFT dimensions: (  20,  20,  20)

     Estimated max dynamical RAM per process >       5.02 MB

     WARNING: libxc functional with ID  263 depends
      on external parameters: check the user_guide of
      QE if you need to modify them or to check their
      default values.

     Initial potential from superposition of free atoms

     starting charge       7.9999, renormalised to       8.0000
     Starting wfcs are    8 randomized atomic wfcs

     total cpu time spent up to now is        0.8 secs

     Self-consistent Calculation

     iteration #  1     ecut=    50.00 Ry     beta= 0.01
     Davidson diagonalization with overlap
     ethr =  1.00E-02,  avg # of iterations =  2.0

     total cpu time spent up to now is        1.7 secs

     total energy              =     -22.54361414 Ry
     estimated scf accuracy    <       3.18211165 Ry

     iteration #  2     ecut=    50.00 Ry     beta= 0.01
     Davidson diagonalization with overlap
     ethr =  1.00E-02,  avg # of iterations =  1.0

     total cpu time spent up to now is        2.5 secs

     total energy              =     -22.63308094 Ry
     estimated scf accuracy    <       3.17988933 Ry

     iteration #  3     ecut=    50.00 Ry     beta= 0.01
     Davidson diagonalization with overlap
     ethr =  1.00E-02,  avg # of iterations =  1.0

     total cpu time spent up to now is        3.3 secs

     total energy              =     -22.61814752 Ry
     estimated scf accuracy    <       1.98227173 Ry

     iteration #  4     ecut=    50.00 Ry     beta= 0.01
     Davidson diagonalization with overlap
     ethr =  1.00E-02,  avg # of iterations =  1.0

     total cpu time spent up to now is        4.1 secs

     total energy              =     -22.62269269 Ry
     estimated scf accuracy    <       0.05626314 Ry

     iteration #  5     ecut=    50.00 Ry     beta= 0.01
     Davidson diagonalization with overlap
     ethr =  7.03E-04,  avg # of iterations =  1.0

     total cpu time spent up to now is        4.9 secs

     total energy              =     -22.62282072 Ry
     estimated scf accuracy    <       0.03577959 Ry

     iteration #  6     ecut=    50.00 Ry     beta= 0.01
     Davidson diagonalization with overlap
     ethr =  4.47E-04,  avg # of iterations =  1.0

     total cpu time spent up to now is        5.6 secs

     total energy              =     -22.62060474 Ry
     estimated scf accuracy    <       0.04357869 Ry

     iteration #  7     ecut=    50.00 Ry     beta= 0.01
     Davidson diagonalization with overlap
     ethr =  4.47E-04,  avg # of iterations =  1.0

     total cpu time spent up to now is        6.4 secs

     total energy              =     -22.62294500 Ry
     estimated scf accuracy    <       0.00290334 Ry

     iteration #  8     ecut=    50.00 Ry     beta= 0.01
     Davidson diagonalization with overlap
     ethr =  3.63E-05,  avg # of iterations =  1.0

     total cpu time spent up to now is        7.1 secs

     total energy              =     -22.62304174 Ry
     estimated scf accuracy    <       0.00455958 Ry

     iteration #  9     ecut=    50.00 Ry     beta= 0.01
     Davidson diagonalization with overlap
     ethr =  3.63E-05,  avg # of iterations =  1.0

     total cpu time spent up to now is        7.9 secs

     total energy              =     -22.62303713 Ry
     estimated scf accuracy    <       0.00458001 Ry

     iteration # 10     ecut=    50.00 Ry     beta= 0.01
     Davidson diagonalization with overlap
     ethr =  3.63E-05,  avg # of iterations =  1.0

     total cpu time spent up to now is        8.6 secs

     total energy              =     -22.62286820 Ry
     estimated scf accuracy    <       0.00433498 Ry

     iteration # 11     ecut=    50.00 Ry     beta= 0.01
     Davidson diagonalization with overlap
     ethr =  3.63E-05,  avg # of iterations =  1.0

     total cpu time spent up to now is        9.4 secs

     total energy              =     -22.62258627 Ry
     estimated scf accuracy    <       0.00261733 Ry

     iteration # 12     ecut=    50.00 Ry     beta= 0.01
     Davidson diagonalization with overlap
     ethr =  3.27E-05,  avg # of iterations =  1.0

     total cpu time spent up to now is       10.2 secs

     total energy              =     -22.62269993 Ry
     estimated scf accuracy    <       0.00026720 Ry

     iteration # 13     ecut=    50.00 Ry     beta= 0.01
     Davidson diagonalization with overlap
     ethr =  3.34E-06,  avg # of iterations =  1.0

     total cpu time spent up to now is       11.0 secs

     total energy              =     -22.62269221 Ry
     estimated scf accuracy    <       0.00036513 Ry

     iteration # 14     ecut=    50.00 Ry     beta= 0.01
     Davidson diagonalization with overlap
     ethr =  3.34E-06,  avg # of iterations =  1.0

     total cpu time spent up to now is       11.7 secs

     total energy              =     -22.62268963 Ry
     estimated scf accuracy    <       0.00015296 Ry

     iteration # 15     ecut=    50.00 Ry     beta= 0.01
     Davidson diagonalization with overlap
     ethr =  1.91E-06,  avg # of iterations =  1.0

     total cpu time spent up to now is       12.5 secs

     total energy              =     -22.62269083 Ry
     estimated scf accuracy    <       0.00003301 Ry

     iteration # 16     ecut=    50.00 Ry     beta= 0.01
     Davidson diagonalization with overlap
     ethr =  4.13E-07,  avg # of iterations =  1.0

     total cpu time spent up to now is       13.2 secs

     total energy              =     -22.62269074 Ry
     estimated scf accuracy    <       0.00003071 Ry

     iteration # 17     ecut=    50.00 Ry     beta= 0.01
     Davidson diagonalization with overlap
     ethr =  3.84E-07,  avg # of iterations =  1.0

     total cpu time spent up to now is       14.0 secs

     total energy              =     -22.62269178 Ry
     estimated scf accuracy    <       0.00001290 Ry

     iteration # 18     ecut=    50.00 Ry     beta= 0.01
     Davidson diagonalization with overlap
     ethr =  1.61E-07,  avg # of iterations =  1.0

     total cpu time spent up to now is       14.8 secs

     total energy              =     -22.62269102 Ry
     estimated scf accuracy    <       0.00001370 Ry

     iteration # 19     ecut=    50.00 Ry     beta= 0.01
     Davidson diagonalization with overlap
     ethr =  1.61E-07,  avg # of iterations =  1.0

     total cpu time spent up to now is       15.5 secs

     total energy              =     -22.62269140 Ry
     estimated scf accuracy    <       0.00000163 Ry

     iteration # 20     ecut=    50.00 Ry     beta= 0.01
     Davidson diagonalization with overlap
     ethr =  2.04E-08,  avg # of iterations =  1.0

     total cpu time spent up to now is       16.1 secs

     total energy              =     -22.62269136 Ry
     estimated scf accuracy    <       0.00000421 Ry

     iteration # 21     ecut=    50.00 Ry     beta= 0.01
     Davidson diagonalization with overlap
     ethr =  2.04E-08,  avg # of iterations =  1.0

     total cpu time spent up to now is       16.7 secs

     total energy              =     -22.62269132 Ry
     estimated scf accuracy    <       0.00000281 Ry

     iteration # 22     ecut=    50.00 Ry     beta= 0.01
     Davidson diagonalization with overlap
     ethr =  2.04E-08,  avg # of iterations =  1.0

     total cpu time spent up to now is       17.4 secs

     End of self-consistent calculation

          k = 0.0000 0.0000 0.0000 (   331 PWs)   bands (ev):

    -7.6611  19.2688  19.2688  19.2688

          k =-0.1000 0.1000-0.1000 (   332 PWs)   bands (ev):

    -7.3107  17.0892  18.6514  18.6514

          k =-0.2000 0.2000-0.2000 (   332 PWs)   bands (ev):

    -6.2633  12.9951  17.4662  17.4662

          k =-0.3000 0.3000-0.3000 (   344 PWs)   bands (ev):

    -4.5340   8.6710  16.4055  16.4055

          k =-0.4000 0.4000-0.4000 (   344 PWs)   bands (ev):

    -2.1605   4.6318  15.7329  15.7329

          k = 0.5000-0.5000 0.5000 (   344 PWs)   bands (ev):

     0.2615   1.6458  15.4991  15.4991

          k = 0.0000 0.2000 0.0000 (   335 PWs)   bands (ev):

    -7.1940  17.5431  17.5431  18.3531

          k =-0.1000 0.3000-0.1000 (   335 PWs)   bands (ev):

    -6.3795  14.4049  16.2283  17.6715

          k =-0.2000 0.4000-0.2000 (   334 PWs)   bands (ev):

    -4.8777  10.2630  15.2358  16.4957

          k =-0.3000 0.5000-0.3000 (   337 PWs)   bands (ev):

    -2.7165   6.1772  14.7513  15.3166

          k = 0.6000-0.4000 0.6000 (   342 PWs)   bands (ev):

    -0.0439   2.5839  14.4443  14.8141

          k = 0.5000-0.3000 0.5000 (   340 PWs)   bands (ev):

    -0.9577   3.6881  14.0239  15.3892

          k = 0.4000-0.2000 0.4000 (   344 PWs)   bands (ev):

    -3.5085   7.5187  14.1172  16.3792

          k = 0.3000-0.1000 0.3000 (   333 PWs)   bands (ev):

    -5.4535  11.6912  14.7629  17.6287

          k = 0.2000 0.0000 0.2000 (   331 PWs)   bands (ev):

    -6.7282  15.5672  16.0679  18.6615

          k = 0.0000 0.4000 0.0000 (   331 PWs)   bands (ev):

    -5.7992  14.8171  14.8171  15.8503

          k =-0.1000 0.5000-0.1000 (   340 PWs)   bands (ev):

    -4.5322  11.8609  13.7473  14.7456

          k =-0.2000 0.6000-0.2000 (   339 PWs)   bands (ev):

    -2.6005   8.0990  13.2456  13.3120

          k = 0.7000-0.3000 0.7000 (   345 PWs)   bands (ev):

    -0.0864   4.4733  11.9616  13.3488

          k = 0.6000-0.2000 0.6000 (   336 PWs)   bands (ev):

     0.7790   3.4703  11.0505  14.0466

          k = 0.5000-0.1000 0.5000 (   339 PWs)   bands (ev):

    -1.8286   6.9456  10.7007  15.2099

          k = 0.4000 0.0000 0.4000 (   333 PWs)   bands (ev):

    -3.9638  10.5617  11.2553  16.6065

          k = 0.0000 0.6000 0.0000 (   339 PWs)   bands (ev):

    -3.4998  12.1466  12.5744  12.5744

          k =-0.1000 0.7000-0.1000 (   333 PWs)   bands (ev):

    -1.8064   9.5171  11.2364  11.9518

          k = 0.8000-0.2000 0.8000 (   340 PWs)   bands (ev):

     0.4865   6.5669   9.3192  11.9532

          k = 0.7000-0.1000 0.7000 (   343 PWs)   bands (ev):

     2.6108   4.2607   7.8821  12.5828

          k = 0.6000-0.0000 0.6000 (   339 PWs)   bands (ev):

     0.4329   6.7004   7.4388  13.7454

          k = 0.0000 0.8000 0.0000 (   335 PWs)   bands (ev):

    -0.3567   7.8349  11.1698  11.1698

          k = 0.9000-0.1000 0.9000 (   338 PWs)   bands (ev):

     1.6967   5.7555   9.6798  11.0167

          k = 0.8000 0.0000 0.8000 (   341 PWs)   bands (ev):

     3.9138   4.3141   7.2329  11.5096

          k = 0.0000-1.0000 0.0000 (   342 PWs)   bands (ev):

     3.5033   3.5033  10.6899  10.6899

          k =-0.2000 0.4000 0.0000 (   335 PWs)   bands (ev):

    -5.3380  12.9480  13.5493  16.8568

          k =-0.3000 0.5000-0.1000 (   334 PWs)   bands (ev):

    -3.6205   9.2671  12.5798  15.5866

          k = 0.6000-0.4000 0.8000 (   341 PWs)   bands (ev):

    -1.2747   5.4188  12.3615  14.3368

          k = 0.5000-0.3000 0.7000 (   342 PWs)   bands (ev):

     1.0561   2.5616  12.4371  13.7411

          k =-0.2000 0.6000 0.0000 (   331 PWs)   bands (ev):

    -3.0487  10.6025  11.4390  13.5152

          k = 0.7000-0.3000 0.9000 (   337 PWs)   bands (ev):

    -0.9321   7.4591  10.5957  12.2162

          k = 0.6000-0.2000 0.8000 (   340 PWs)   bands (ev):

     1.6193   4.2469   9.8460  11.9568

          k = 0.5000-0.1000 0.7000 (   338 PWs)   bands (ev):

     0.7449   5.3158   9.1524  12.7910

          k = 0.4000 0.0000 0.6000 (   337 PWs)   bands (ev):

    -1.7131   8.5300   9.2822  14.1712

          k = 0.8000-0.2000 1.0000 (   336 PWs)   bands (ev):

     0.0694   7.8069  10.1111  10.6133

          k = 0.7000-0.1000 0.9000 (   343 PWs)   bands (ev):

     2.4576   5.8284   7.9150  10.5220

          k = 0.6000 0.0000 0.8000 (   342 PWs)   bands (ev):

     3.0667   5.4351   6.5645  11.3788

          k =-0.2000-1.0000 0.0000 (   340 PWs)   bands (ev):

     3.8551   3.8551   9.7433   9.7433

          k = 0.6000-0.2000 1.0000 (   343 PWs)   bands (ev):

     1.3019   6.9349   8.0958  10.5250

          k = 0.5000-0.1000 0.9000 (   344 PWs)   bands (ev):

     3.3738   4.9753   7.8803   9.6796

          k =-0.4000-1.0000 0.0000 (   344 PWs)   bands (ev):

     4.6743   4.6743   8.1127   8.1127

     highest occupied level (ev):    19.2688

!    total energy              =     -22.62269137 Ry
     estimated scf accuracy    <       0.00000087 Ry

     The total energy is the sum of the following terms:
     one-electron contribution =      11.59405663 Ry
     hartree contribution      =       1.68058566 Ry
     xc contribution           =      -7.62907924 Ry
     ewald contribution        =     -28.26825442 Ry

     convergence has been achieved in  22 iterations
     Writing meta-gga kinetic term

     Writing all to output data dir ./input_pw/C/2/pwscf.save/
     Writing meta-gga kinetic term
 
     init_run     :      0.34s CPU      0.74s WALL (       1 calls)
     electrons    :      8.38s CPU     16.62s WALL (       1 calls)

     Called by init_run:
     wfcinit      :      0.30s CPU      0.62s WALL (       1 calls)
     potinit      :      0.00s CPU      0.01s WALL (       1 calls)
     hinit0       :      0.03s CPU      0.10s WALL (       1 calls)

     Called by electrons:
     c_bands      :      6.52s CPU     13.00s WALL (      22 calls)
     sum_band     :      1.69s CPU      3.33s WALL (      22 calls)
     v_of_rho     :      0.11s CPU      0.17s WALL (      23 calls)
     mix_rho      :      0.06s CPU      0.12s WALL (      22 calls)

     Called by c_bands:
     init_us_2    :      0.04s CPU      0.11s WALL (    2115 calls)
     init_us_2:cp :      0.03s CPU      0.09s WALL (    2115 calls)
     cegterg      :      6.47s CPU     12.91s WALL (    1034 calls)

     Called by *egterg:
     cdiaghg      :      0.08s CPU      0.19s WALL (    2115 calls)
     h_psi        :      6.56s CPU     13.05s WALL (    2162 calls)
     g_psi        :      0.01s CPU      0.03s WALL (    1081 calls)

     Called by h_psi:
     h_psi:calbec :      0.02s CPU      0.02s WALL (    2162 calls)
     vloc_psi     :      1.61s CPU      3.00s WALL (    2162 calls)
     add_vuspsi   :      0.02s CPU      0.02s WALL (    2162 calls)
     h_psi_meta   :      4.88s CPU      9.99s WALL (    2162 calls)

     General routines
     calbec       :      0.01s CPU      0.01s WALL (    2162 calls)
     fft          :      0.02s CPU      0.07s WALL (     273 calls)
     ffts         :      0.03s CPU      0.08s WALL (     355 calls)
     fftw         :      7.28s CPU     14.28s WALL (   87232 calls)
     interpolate  :      0.00s CPU      0.00s WALL (      23 calls)
 
     Parallel routines
 
     PWSCF        :      8.75s CPU     17.43s WALL

 
   This run was terminated on:  12:34:36  29Mar2023            

=------------------------------------------------------------------------------=
   JOB DONE.
=------------------------------------------------------------------------------=
