
     Program PWSCF v.7.0 starts on 14Mar2023 at 11:48:16 

     This program is part of the open-source Quantum ESPRESSO suite
     for quantum simulation of materials; please cite
         "P. Giannozzi et al., J. Phys.:Condens. Matter 21 395502 (2009);
         "P. Giannozzi et al., J. Phys.:Condens. Matter 29 465901 (2017);
         "P. Giannozzi et al., J. Chem. Phys. 152 154105 (2020);
          URL http://www.quantum-espresso.org", 
     in publications or presentations arising from this work. More details at
     http://www.quantum-espresso.org/quote

     Parallel version (MPI), running on     1 processors

     MPI processes distributed on     1 nodes
     27104 MiB available memory on the printing compute node when the environment starts
 
     Waiting for input...
     Reading input from standard input
Warning: card &CELL ignored
Warning: card / ignored

     Current dimensions of program PWSCF are:
     Max number of different atomic species (ntypx) = 10
     Max number of k-points (npk) =  40000
     Max angular momentum in pseudopotentials (lmaxx) =  4

     WARNING: the MGGA functional with ID    5 has been 
     read together with other dft terms, but it should 
     stand alone in order to work properly. The other 
     terms will be ignored.

     Subspace diagonalization in iterative solution of the eigenvalue problem:
     a serial algorithm will be used

 
     G-vector sticks info
     --------------------
     sticks:   dense  smooth     PW     G-vecs:    dense   smooth      PW
     Sum         253     253     91                 2733     2733     561
 
     Using Slab Decomposition
 


     bravais-lattice index     =            2
     lattice parameter (alat)  =       6.1251  a.u.
     unit-cell volume          =      57.4498 (a.u.)^3
     number of atoms/cell      =            2
     number of atomic types    =            1
     number of electrons       =         8.00
     number of Kohn-Sham states=            4
     kinetic-energy cutoff     =      50.0000  Ry
     charge density cutoff     =     200.0000  Ry
     scf convergence threshold =      1.0E-06
     mixing beta               =       0.0100
     number of iterations used =            8  local-TF  mixing
     Exchange-correlation= SLA  PW   SCAN SCAN
                           (   0   0   0   0   0 263 267)

     celldm(1)=   6.125143  celldm(2)=   0.000000  celldm(3)=   0.000000
     celldm(4)=   0.000000  celldm(5)=   0.000000  celldm(6)=   0.000000

     crystal axes: (cart. coord. in units of alat)
               a(1) = (  -0.500000   0.000000   0.500000 )  
               a(2) = (   0.000000   0.500000   0.500000 )  
               a(3) = (  -0.500000   0.500000   0.000000 )  

     reciprocal axes: (cart. coord. in units 2 pi/alat)
               b(1) = ( -1.000000 -1.000000  1.000000 )  
               b(2) = (  1.000000  1.000000  1.000000 )  
               b(3) = ( -1.000000  1.000000 -1.000000 )  


     PseudoPot. # 1 for C  read from file:
     ~/Documents/TA/PWDFT.jl/pseudopotentials/scan_upf/C.SCAN.UPF2
     MD5 check sum: Not computed, couldn't open file
     Pseudo is Norm-conserving, Zval =  4.0
     Generated by new atomic code, or converted to UPF format
     Using radial grid of 1389 points,  1 beta functions with: 
                l(1) =   0

     atomic species   valence    mass     pseudopotential
        C              4.00    12.01100     C ( 1.00)

     48 Sym. Ops., with inversion, found (24 have fractional translation)



   Cartesian axes

     site n.     atom                  positions (alat units)
         1           C   tau(   1) = (   0.0000000   0.0000000   0.0000000  )
         2           C   tau(   2) = (   0.2500000   0.2500000   0.2500000  )

     number of k points=    47
                       cart. coord. in units 2pi/alat
        k(    1) = (   0.0000000   0.0000000   0.0000000), wk =   0.0020000
        k(    2) = (  -0.1000000   0.1000000  -0.1000000), wk =   0.0160000
        k(    3) = (  -0.2000000   0.2000000  -0.2000000), wk =   0.0160000
        k(    4) = (  -0.3000000   0.3000000  -0.3000000), wk =   0.0160000
        k(    5) = (  -0.4000000   0.4000000  -0.4000000), wk =   0.0160000
        k(    6) = (   0.5000000  -0.5000000   0.5000000), wk =   0.0080000
        k(    7) = (   0.0000000   0.2000000   0.0000000), wk =   0.0120000
        k(    8) = (  -0.1000000   0.3000000  -0.1000000), wk =   0.0480000
        k(    9) = (  -0.2000000   0.4000000  -0.2000000), wk =   0.0480000
        k(   10) = (  -0.3000000   0.5000000  -0.3000000), wk =   0.0480000
        k(   11) = (   0.6000000  -0.4000000   0.6000000), wk =   0.0480000
        k(   12) = (   0.5000000  -0.3000000   0.5000000), wk =   0.0480000
        k(   13) = (   0.4000000  -0.2000000   0.4000000), wk =   0.0480000
        k(   14) = (   0.3000000  -0.1000000   0.3000000), wk =   0.0480000
        k(   15) = (   0.2000000   0.0000000   0.2000000), wk =   0.0240000
        k(   16) = (   0.0000000   0.4000000   0.0000000), wk =   0.0120000
        k(   17) = (  -0.1000000   0.5000000  -0.1000000), wk =   0.0480000
        k(   18) = (  -0.2000000   0.6000000  -0.2000000), wk =   0.0480000
        k(   19) = (   0.7000000  -0.3000000   0.7000000), wk =   0.0480000
        k(   20) = (   0.6000000  -0.2000000   0.6000000), wk =   0.0480000
        k(   21) = (   0.5000000  -0.1000000   0.5000000), wk =   0.0480000
        k(   22) = (   0.4000000   0.0000000   0.4000000), wk =   0.0240000
        k(   23) = (   0.0000000   0.6000000   0.0000000), wk =   0.0120000
        k(   24) = (  -0.1000000   0.7000000  -0.1000000), wk =   0.0480000
        k(   25) = (   0.8000000  -0.2000000   0.8000000), wk =   0.0480000
        k(   26) = (   0.7000000  -0.1000000   0.7000000), wk =   0.0480000
        k(   27) = (   0.6000000  -0.0000000   0.6000000), wk =   0.0240000
        k(   28) = (   0.0000000   0.8000000   0.0000000), wk =   0.0120000
        k(   29) = (   0.9000000  -0.1000000   0.9000000), wk =   0.0480000
        k(   30) = (   0.8000000   0.0000000   0.8000000), wk =   0.0240000
        k(   31) = (   0.0000000  -1.0000000   0.0000000), wk =   0.0060000
        k(   32) = (  -0.2000000   0.4000000   0.0000000), wk =   0.0480000
        k(   33) = (  -0.3000000   0.5000000  -0.1000000), wk =   0.0960000
        k(   34) = (   0.6000000  -0.4000000   0.8000000), wk =   0.0960000
        k(   35) = (   0.5000000  -0.3000000   0.7000000), wk =   0.0480000
        k(   36) = (  -0.2000000   0.6000000   0.0000000), wk =   0.0480000
        k(   37) = (   0.7000000  -0.3000000   0.9000000), wk =   0.0960000
        k(   38) = (   0.6000000  -0.2000000   0.8000000), wk =   0.0960000
        k(   39) = (   0.5000000  -0.1000000   0.7000000), wk =   0.0960000
        k(   40) = (   0.4000000   0.0000000   0.6000000), wk =   0.0480000
        k(   41) = (   0.8000000  -0.2000000   1.0000000), wk =   0.0480000
        k(   42) = (   0.7000000  -0.1000000   0.9000000), wk =   0.0960000
        k(   43) = (   0.6000000   0.0000000   0.8000000), wk =   0.0480000
        k(   44) = (  -0.2000000  -1.0000000   0.0000000), wk =   0.0240000
        k(   45) = (   0.6000000  -0.2000000   1.0000000), wk =   0.0480000
        k(   46) = (   0.5000000  -0.1000000   0.9000000), wk =   0.0480000
        k(   47) = (  -0.4000000  -1.0000000   0.0000000), wk =   0.0240000

     Dense  grid:     2733 G-vectors     FFT dimensions: (  20,  20,  20)

     Estimated max dynamical RAM per process >       5.04 MB

     WARNING: libxc functional with ID  263 depends
      on external parameters: check the user_guide of
      QE if you need to modify them or to check their
      default values.

     Initial potential from superposition of free atoms

     starting charge       7.9999, renormalised to       8.0000
     Starting wfcs are    8 randomized atomic wfcs

     total cpu time spent up to now is        0.8 secs

     Self-consistent Calculation

     iteration #  1     ecut=    50.00 Ry     beta= 0.01
     Davidson diagonalization with overlap
     ethr =  1.00E-02,  avg # of iterations =  2.0

     total cpu time spent up to now is        2.0 secs

     total energy              =     -22.55173585 Ry
     estimated scf accuracy    <       3.12182744 Ry

     iteration #  2     ecut=    50.00 Ry     beta= 0.01
     Davidson diagonalization with overlap
     ethr =  1.00E-02,  avg # of iterations =  1.0

     total cpu time spent up to now is        2.7 secs

     total energy              =     -22.63689820 Ry
     estimated scf accuracy    <       3.12116213 Ry

     iteration #  3     ecut=    50.00 Ry     beta= 0.01
     Davidson diagonalization with overlap
     ethr =  1.00E-02,  avg # of iterations =  1.0

     total cpu time spent up to now is        3.5 secs

     total energy              =     -22.62169308 Ry
     estimated scf accuracy    <       2.83218164 Ry

     iteration #  4     ecut=    50.00 Ry     beta= 0.01
     Davidson diagonalization with overlap
     ethr =  1.00E-02,  avg # of iterations =  1.0

     total cpu time spent up to now is        4.3 secs

     total energy              =     -22.63247652 Ry
     estimated scf accuracy    <       0.25785856 Ry

     iteration #  5     ecut=    50.00 Ry     beta= 0.01
     Davidson diagonalization with overlap
     ethr =  3.22E-03,  avg # of iterations =  1.0

     total cpu time spent up to now is        5.1 secs

     total energy              =     -22.63341974 Ry
     estimated scf accuracy    <       0.02355201 Ry

     iteration #  6     ecut=    50.00 Ry     beta= 0.01
     Davidson diagonalization with overlap
     ethr =  2.94E-04,  avg # of iterations =  1.0

     total cpu time spent up to now is        5.8 secs

     total energy              =     -22.63221473 Ry
     estimated scf accuracy    <       0.02226134 Ry

     iteration #  7     ecut=    50.00 Ry     beta= 0.01
     Davidson diagonalization with overlap
     ethr =  2.78E-04,  avg # of iterations =  1.0

     total cpu time spent up to now is        6.4 secs

     total energy              =     -22.63387800 Ry
     estimated scf accuracy    <       0.00180067 Ry

     iteration #  8     ecut=    50.00 Ry     beta= 0.01
     Davidson diagonalization with overlap
     ethr =  2.25E-05,  avg # of iterations =  2.0

     total cpu time spent up to now is        7.2 secs

     total energy              =     -22.63420214 Ry
     estimated scf accuracy    <       0.00936726 Ry

     iteration #  9     ecut=    50.00 Ry     beta= 0.01
     Davidson diagonalization with overlap
     ethr =  2.25E-05,  avg # of iterations =  1.0

     total cpu time spent up to now is        7.7 secs

     total energy              =     -22.63420983 Ry
     estimated scf accuracy    <       0.00941758 Ry

     iteration # 10     ecut=    50.00 Ry     beta= 0.01
     Davidson diagonalization with overlap
     ethr =  2.25E-05,  avg # of iterations =  1.0

     total cpu time spent up to now is        8.3 secs

     total energy              =     -22.63402690 Ry
     estimated scf accuracy    <       0.00952523 Ry

     iteration # 11     ecut=    50.00 Ry     beta= 0.01
     Davidson diagonalization with overlap
     ethr =  2.25E-05,  avg # of iterations =  1.0

     total cpu time spent up to now is        9.0 secs

     total energy              =     -22.63386276 Ry
     estimated scf accuracy    <       0.00645750 Ry

     iteration # 12     ecut=    50.00 Ry     beta= 0.01
     Davidson diagonalization with overlap
     ethr =  2.25E-05,  avg # of iterations =  1.0

     total cpu time spent up to now is        9.6 secs

     total energy              =     -22.63392220 Ry
     estimated scf accuracy    <       0.00004829 Ry

     iteration # 13     ecut=    50.00 Ry     beta= 0.01
     Davidson diagonalization with overlap
     ethr =  6.04E-07,  avg # of iterations =  1.2

     total cpu time spent up to now is       10.1 secs

     total energy              =     -22.63392816 Ry
     estimated scf accuracy    <       0.00001342 Ry

     iteration # 14     ecut=    50.00 Ry     beta= 0.01
     Davidson diagonalization with overlap
     ethr =  1.68E-07,  avg # of iterations =  1.0

     total cpu time spent up to now is       10.9 secs

     total energy              =     -22.63393146 Ry
     estimated scf accuracy    <       0.00000387 Ry

     iteration # 15     ecut=    50.00 Ry     beta= 0.01
     Davidson diagonalization with overlap
     ethr =  4.84E-08,  avg # of iterations =  2.0

     total cpu time spent up to now is       11.8 secs

     End of self-consistent calculation

          k = 0.0000 0.0000 0.0000 (   331 PWs)   bands (ev):

    -7.7435  18.9715  18.9715  18.9715

          k =-0.1000 0.1000-0.1000 (   335 PWs)   bands (ev):

    -7.3959  16.8157  18.3612  18.3612

          k =-0.2000 0.2000-0.2000 (   332 PWs)   bands (ev):

    -6.3570  12.7582  17.1917  17.1917

          k =-0.3000 0.3000-0.3000 (   344 PWs)   bands (ev):

    -4.6422   8.4698  16.1419  16.1419

          k =-0.4000 0.4000-0.4000 (   353 PWs)   bands (ev):

    -2.2920   4.4646  15.4684  15.4684

          k = 0.5000-0.5000 0.5000 (   344 PWs)   bands (ev):

     0.0790   1.5370  15.2442  15.2442

          k = 0.0000 0.2000 0.0000 (   335 PWs)   bands (ev):

    -7.2801  17.2703  17.2703  18.0562

          k =-0.1000 0.3000-0.1000 (   340 PWs)   bands (ev):

    -6.4724  14.1554  15.9660  17.3784

          k =-0.2000 0.4000-0.2000 (   341 PWs)   bands (ev):

    -4.9833  10.0469  14.9807  16.2167

          k =-0.3000 0.5000-0.3000 (   339 PWs)   bands (ev):

    -2.8411   5.9969  14.5067  15.0529

          k = 0.6000-0.4000 0.6000 (   344 PWs)   bands (ev):

    -0.2054   2.4480  14.1948  14.5689

          k = 0.5000-0.3000 0.5000 (   346 PWs)   bands (ev):

    -1.1022   3.5317  13.7788  15.1286

          k = 0.4000-0.2000 0.4000 (   344 PWs)   bands (ev):

    -3.6257   7.3272  13.8746  16.1143

          k = 0.3000-0.1000 0.3000 (   339 PWs)   bands (ev):

    -5.5543  11.4618  14.5146  17.3459

          k = 0.2000 0.0000 0.2000 (   335 PWs)   bands (ev):

    -6.8182  15.2965  15.8109  18.3658

          k = 0.0000 0.4000 0.0000 (   347 PWs)   bands (ev):

    -5.8974  14.5640  14.5640  15.5296

          k =-0.1000 0.5000-0.1000 (   342 PWs)   bands (ev):

    -4.6403  11.6320  13.5183  14.4751

          k =-0.2000 0.6000-0.2000 (   339 PWs)   bands (ev):

    -2.7256   7.9008  13.0214  13.0646

          k = 0.7000-0.3000 0.7000 (   347 PWs)   bands (ev):

    -0.2388   4.3090  11.7286  13.1222

          k = 0.6000-0.2000 0.6000 (   352 PWs)   bands (ev):

     0.6090   3.3185  10.8201  13.8010

          k = 0.5000-0.1000 0.5000 (   344 PWs)   bands (ev):

    -1.9612   6.7551  10.4801  14.9540

          k = 0.4000 0.0000 0.4000 (   333 PWs)   bands (ev):

    -4.0768  10.3350  11.0460  16.3403

          k = 0.0000 0.6000 0.0000 (   339 PWs)   bands (ev):

    -3.6167  11.8843  12.3587  12.3587

          k =-0.1000 0.7000-0.1000 (   335 PWs)   bands (ev):

    -1.9384   9.2856  11.0268  11.7426

          k = 0.8000-0.2000 0.8000 (   342 PWs)   bands (ev):

     0.3318   6.3668   9.1234  11.7426

          k = 0.7000-0.1000 0.7000 (   351 PWs)   bands (ev):

     2.4125   4.1055   7.6965  12.3599

          k = 0.6000-0.0000 0.6000 (   343 PWs)   bands (ev):

     0.2764   6.4966   7.2659  13.5137

          k = 0.0000 0.8000 0.0000 (   335 PWs)   bands (ev):

    -0.5012   7.6129  10.9693  10.9693

          k = 0.9000-0.1000 0.9000 (   340 PWs)   bands (ev):

     1.5323   5.5511   9.4949  10.8173

          k = 0.8000 0.0000 0.8000 (   353 PWs)   bands (ev):

     3.7093   4.1263   7.0786  11.2944

          k = 0.0000-1.0000 0.0000 (   342 PWs)   bands (ev):

     3.3229   3.3229  10.4943  10.4943

          k =-0.2000 0.4000 0.0000 (   337 PWs)   bands (ev):

    -5.4394  12.7034  13.3174  16.5749

          k =-0.3000 0.5000-0.1000 (   338 PWs)   bands (ev):

    -3.7368   9.0577  12.3484  15.3230

          k = 0.6000-0.4000 0.8000 (   341 PWs)   bands (ev):

    -1.4133   5.2462  12.1307  14.0959

          k = 0.5000-0.3000 0.7000 (   346 PWs)   bands (ev):

     0.8684   2.4385  12.2000  13.5101

          k =-0.2000 0.6000 0.0000 (   335 PWs)   bands (ev):

    -3.1696  10.3692  11.2297  13.2715

          k = 0.7000-0.3000 0.9000 (   340 PWs)   bands (ev):

    -1.0726   7.2607  10.3766  11.9990

          k = 0.6000-0.2000 0.8000 (   352 PWs)   bands (ev):

     1.4423   4.0875   9.6275  11.7424

          k = 0.5000-0.1000 0.7000 (   346 PWs)   bands (ev):

     0.5824   5.1418   8.9458  12.5678

          k = 0.4000 0.0000 0.6000 (   341 PWs)   bands (ev):

    -1.8466   8.3137   9.0910  13.9265

          k = 0.8000-0.2000 1.0000 (   342 PWs)   bands (ev):

    -0.0802   7.5759   9.9159  10.4227

          k = 0.7000-0.1000 0.9000 (   347 PWs)   bands (ev):

     2.2809   5.6164   7.7499  10.3274

          k = 0.6000 0.0000 0.8000 (   344 PWs)   bands (ev):

     2.8724   5.2385   6.4186  11.1744

          k =-0.2000-1.0000 0.0000 (   348 PWs)   bands (ev):

     3.6655   3.6655   9.5539   9.5539

          k = 0.6000-0.2000 1.0000 (   343 PWs)   bands (ev):

     1.1382   6.7183   7.9220  10.3345

          k = 0.5000-0.1000 0.9000 (   348 PWs)   bands (ev):

     3.1713   4.8035   7.6920   9.5022

          k =-0.4000-1.0000 0.0000 (   344 PWs)   bands (ev):

     4.4680   4.4680   7.9532   7.9532

     highest occupied level (ev):    18.9715

!    total energy              =     -22.63393217 Ry
     estimated scf accuracy    <       0.00000034 Ry

     The total energy is the sum of the following terms:
     one-electron contribution =      11.42047435 Ry
     hartree contribution      =       1.69207929 Ry
     xc contribution           =      -7.60387134 Ry
     ewald contribution        =     -28.14261447 Ry

     convergence has been achieved in  15 iterations
     Writing meta-gga kinetic term

     Writing all to output data dir ./input_pw/C/2/pwscf.save/
     Writing meta-gga kinetic term
 
     init_run     :      0.34s CPU      0.76s WALL (       1 calls)
     electrons    :      6.06s CPU     10.97s WALL (       1 calls)

     Called by init_run:
     wfcinit      :      0.30s CPU      0.66s WALL (       1 calls)
     potinit      :      0.01s CPU      0.01s WALL (       1 calls)
     hinit0       :      0.03s CPU      0.07s WALL (       1 calls)

     Called by electrons:
     c_bands      :      4.80s CPU      8.70s WALL (      15 calls)
     sum_band     :      1.16s CPU      2.06s WALL (      15 calls)
     v_of_rho     :      0.08s CPU      0.09s WALL (      16 calls)
     mix_rho      :      0.04s CPU      0.12s WALL (      15 calls)

     Called by c_bands:
     init_us_2    :      0.03s CPU      0.04s WALL (    1457 calls)
     init_us_2:cp :      0.02s CPU      0.04s WALL (    1457 calls)
     cegterg      :      4.76s CPU      8.63s WALL (     705 calls)

     Called by *egterg:
     cdiaghg      :      0.06s CPU      0.11s WALL (    1560 calls)
     h_psi        :      4.89s CPU      8.97s WALL (    1607 calls)
     g_psi        :      0.00s CPU      0.02s WALL (     855 calls)

     Called by h_psi:
     h_psi:calbec :      0.01s CPU      0.01s WALL (    1607 calls)
     vloc_psi     :      1.20s CPU      2.35s WALL (    1607 calls)
     add_vuspsi   :      0.02s CPU      0.04s WALL (    1607 calls)
     h_psi_meta   :      3.63s CPU      6.55s WALL (    1607 calls)

     General routines
     calbec       :      0.01s CPU      0.01s WALL (    1607 calls)
     fft          :      0.02s CPU      0.03s WALL (     189 calls)
     ffts         :      0.02s CPU      0.10s WALL (     236 calls)
     fftw         :      5.33s CPU      9.68s WALL (   63832 calls)
     interpolate  :      0.00s CPU      0.00s WALL (      16 calls)
 
     Parallel routines
 
     PWSCF        :      6.44s CPU     11.83s WALL

 
   This run was terminated on:  11:48:28  14Mar2023            

=------------------------------------------------------------------------------=
   JOB DONE.
=------------------------------------------------------------------------------=
