
     Program PWSCF v.7.0 starts on 21Feb2023 at 12:49:40 

     This program is part of the open-source Quantum ESPRESSO suite
     for quantum simulation of materials; please cite
         "P. Giannozzi et al., J. Phys.:Condens. Matter 21 395502 (2009);
         "P. Giannozzi et al., J. Phys.:Condens. Matter 29 465901 (2017);
         "P. Giannozzi et al., J. Chem. Phys. 152 154105 (2020);
          URL http://www.quantum-espresso.org", 
     in publications or presentations arising from this work. More details at
     http://www.quantum-espresso.org/quote

     Parallel version (MPI), running on     1 processors

     MPI processes distributed on     1 nodes
     3327 MiB available memory on the printing compute node when the environment starts
 
     Waiting for input...
     Reading input from standard input
Warning: card &CELL ignored
Warning: card / ignored

     Current dimensions of program PWSCF are:
     Max number of different atomic species (ntypx) = 10
     Max number of k-points (npk) =  40000
     Max angular momentum in pseudopotentials (lmaxx) =  4
     file Si.SCAN.UPF2: wavefunction(s)  0D renormalized

     WARNING: the MGGA functional with ID    5 has been 
     read together with other dft terms, but it should 
     stand alone in order to work properly. The other 
     terms will be ignored.

     Subspace diagonalization in iterative solution of the eigenvalue problem:
     a serial algorithm will be used

 
     G-vector sticks info
     --------------------
     sticks:   dense  smooth     PW     G-vecs:    dense   smooth      PW
     Sum         769     769    241                14331    14331    2445
 
     Using Slab Decomposition
 


     bravais-lattice index     =            2
     lattice parameter (alat)  =      10.6580  a.u.
     unit-cell volume          =     302.6685 (a.u.)^3
     number of atoms/cell      =            2
     number of atomic types    =            1
     number of electrons       =         8.00
     number of Kohn-Sham states=            4
     kinetic-energy cutoff     =      50.0000  Ry
     charge density cutoff     =     200.0000  Ry
     scf convergence threshold =      1.0E-06
     mixing beta               =       0.0100
     number of iterations used =            8  local-TF  mixing
     Exchange-correlation= SLA  PW   SCAN SCAN
                           (   0   0   0   0   0 263 267)

     celldm(1)=  10.658000  celldm(2)=   0.000000  celldm(3)=   0.000000
     celldm(4)=   0.000000  celldm(5)=   0.000000  celldm(6)=   0.000000

     crystal axes: (cart. coord. in units of alat)
               a(1) = (  -0.500000   0.000000   0.500000 )  
               a(2) = (   0.000000   0.500000   0.500000 )  
               a(3) = (  -0.500000   0.500000   0.000000 )  

     reciprocal axes: (cart. coord. in units 2 pi/alat)
               b(1) = ( -1.000000 -1.000000  1.000000 )  
               b(2) = (  1.000000  1.000000  1.000000 )  
               b(3) = ( -1.000000  1.000000 -1.000000 )  


     PseudoPot. # 1 for Si read from file:
     ~/Documents/TA/PWDFT.jl/pseudopotentials/scan_upf/Si.SCAN.UPF2
     MD5 check sum: Not computed, couldn't open file
     Pseudo is Norm-conserving, Zval =  4.0
     Generated by new atomic code, or converted to UPF format
     Using radial grid of 1475 points,  2 beta functions with: 
                l(1) =   0
                l(2) =   1

     atomic species   valence    mass     pseudopotential
        Si             4.00    28.08550     Si( 1.00)

     48 Sym. Ops., with inversion, found (24 have fractional translation)



   Cartesian axes

     site n.     atom                  positions (alat units)
         1           Si  tau(   1) = (   0.0000000   0.0000000   0.0000000  )
         2           Si  tau(   2) = (   0.2500000   0.2500000   0.2500000  )

     number of k points=    47
                       cart. coord. in units 2pi/alat
        k(    1) = (   0.0000000   0.0000000   0.0000000), wk =   0.0020000
        k(    2) = (  -0.1000000   0.1000000  -0.1000000), wk =   0.0160000
        k(    3) = (  -0.2000000   0.2000000  -0.2000000), wk =   0.0160000
        k(    4) = (  -0.3000000   0.3000000  -0.3000000), wk =   0.0160000
        k(    5) = (  -0.4000000   0.4000000  -0.4000000), wk =   0.0160000
        k(    6) = (   0.5000000  -0.5000000   0.5000000), wk =   0.0080000
        k(    7) = (   0.0000000   0.2000000   0.0000000), wk =   0.0120000
        k(    8) = (  -0.1000000   0.3000000  -0.1000000), wk =   0.0480000
        k(    9) = (  -0.2000000   0.4000000  -0.2000000), wk =   0.0480000
        k(   10) = (  -0.3000000   0.5000000  -0.3000000), wk =   0.0480000
        k(   11) = (   0.6000000  -0.4000000   0.6000000), wk =   0.0480000
        k(   12) = (   0.5000000  -0.3000000   0.5000000), wk =   0.0480000
        k(   13) = (   0.4000000  -0.2000000   0.4000000), wk =   0.0480000
        k(   14) = (   0.3000000  -0.1000000   0.3000000), wk =   0.0480000
        k(   15) = (   0.2000000   0.0000000   0.2000000), wk =   0.0240000
        k(   16) = (   0.0000000   0.4000000   0.0000000), wk =   0.0120000
        k(   17) = (  -0.1000000   0.5000000  -0.1000000), wk =   0.0480000
        k(   18) = (  -0.2000000   0.6000000  -0.2000000), wk =   0.0480000
        k(   19) = (   0.7000000  -0.3000000   0.7000000), wk =   0.0480000
        k(   20) = (   0.6000000  -0.2000000   0.6000000), wk =   0.0480000
        k(   21) = (   0.5000000  -0.1000000   0.5000000), wk =   0.0480000
        k(   22) = (   0.4000000   0.0000000   0.4000000), wk =   0.0240000
        k(   23) = (   0.0000000   0.6000000   0.0000000), wk =   0.0120000
        k(   24) = (  -0.1000000   0.7000000  -0.1000000), wk =   0.0480000
        k(   25) = (   0.8000000  -0.2000000   0.8000000), wk =   0.0480000
        k(   26) = (   0.7000000  -0.1000000   0.7000000), wk =   0.0480000
        k(   27) = (   0.6000000  -0.0000000   0.6000000), wk =   0.0240000
        k(   28) = (   0.0000000   0.8000000   0.0000000), wk =   0.0120000
        k(   29) = (   0.9000000  -0.1000000   0.9000000), wk =   0.0480000
        k(   30) = (   0.8000000   0.0000000   0.8000000), wk =   0.0240000
        k(   31) = (   0.0000000  -1.0000000   0.0000000), wk =   0.0060000
        k(   32) = (  -0.2000000   0.4000000   0.0000000), wk =   0.0480000
        k(   33) = (  -0.3000000   0.5000000  -0.1000000), wk =   0.0960000
        k(   34) = (   0.6000000  -0.4000000   0.8000000), wk =   0.0960000
        k(   35) = (   0.5000000  -0.3000000   0.7000000), wk =   0.0480000
        k(   36) = (  -0.2000000   0.6000000   0.0000000), wk =   0.0480000
        k(   37) = (   0.7000000  -0.3000000   0.9000000), wk =   0.0960000
        k(   38) = (   0.6000000  -0.2000000   0.8000000), wk =   0.0960000
        k(   39) = (   0.5000000  -0.1000000   0.7000000), wk =   0.0960000
        k(   40) = (   0.4000000   0.0000000   0.6000000), wk =   0.0480000
        k(   41) = (   0.8000000  -0.2000000   1.0000000), wk =   0.0480000
        k(   42) = (   0.7000000  -0.1000000   0.9000000), wk =   0.0960000
        k(   43) = (   0.6000000   0.0000000   0.8000000), wk =   0.0480000
        k(   44) = (  -0.2000000  -1.0000000   0.0000000), wk =   0.0240000
        k(   45) = (   0.6000000  -0.2000000   1.0000000), wk =   0.0480000
        k(   46) = (   0.5000000  -0.1000000   0.9000000), wk =   0.0480000
        k(   47) = (  -0.4000000  -1.0000000   0.0000000), wk =   0.0240000

     Dense  grid:    14331 G-vectors     FFT dimensions: (  36,  36,  36)

     Estimated max dynamical RAM per process >      27.19 MB

     WARNING: libxc functional with ID  263 depends
      on external parameters: check the user_guide of
      QE if you need to modify them or to check their
      default values.

     Initial potential from superposition of free atoms

     starting charge       7.9990, renormalised to       8.0000
     Starting wfcs are   18 randomized atomic wfcs

     total cpu time spent up to now is        8.2 secs

     Self-consistent Calculation

     iteration #  1     ecut=    50.00 Ry     beta= 0.01
     Davidson diagonalization with overlap
     ethr =  1.00E-02,  avg # of iterations =  1.8

     Threshold (ethr) on eigenvalues was too large:
     Diagonalizing with lowered threshold

     Davidson diagonalization with overlap
     ethr =  6.36E-04,  avg # of iterations =  1.8

     total cpu time spent up to now is       19.6 secs

     total energy              =     -15.65127979 Ry
     estimated scf accuracy    <       0.05400043 Ry

     iteration #  2     ecut=    50.00 Ry     beta= 0.01
     Davidson diagonalization with overlap
     ethr =  6.75E-04,  avg # of iterations =  1.0

     total cpu time spent up to now is       24.6 secs

     total energy              =     -15.71378920 Ry
     estimated scf accuracy    <       0.05377226 Ry

     iteration #  3     ecut=    50.00 Ry     beta= 0.01
     Davidson diagonalization with overlap
     ethr =  6.72E-04,  avg # of iterations =  1.8

     total cpu time spent up to now is       30.2 secs

     total energy              =     -15.73306255 Ry
     estimated scf accuracy    <       0.03809930 Ry

     iteration #  4     ecut=    50.00 Ry     beta= 0.01
     Davidson diagonalization with overlap
     ethr =  4.76E-04,  avg # of iterations =  1.0

     total cpu time spent up to now is       34.9 secs

     total energy              =     -15.73798461 Ry
     estimated scf accuracy    <       0.00439484 Ry

     iteration #  5     ecut=    50.00 Ry     beta= 0.01
     Davidson diagonalization with overlap
     ethr =  5.49E-05,  avg # of iterations =  1.1

     total cpu time spent up to now is       39.0 secs

     total energy              =     -15.73824756 Ry
     estimated scf accuracy    <       0.00618054 Ry

     iteration #  6     ecut=    50.00 Ry     beta= 0.01
     Davidson diagonalization with overlap
     ethr =  5.49E-05,  avg # of iterations =  1.0

     total cpu time spent up to now is       41.7 secs

     total energy              =     -15.73729004 Ry
     estimated scf accuracy    <       0.00604936 Ry

     iteration #  7     ecut=    50.00 Ry     beta= 0.01
     Davidson diagonalization with overlap
     ethr =  5.49E-05,  avg # of iterations =  1.7

     total cpu time spent up to now is       44.4 secs

     total energy              =     -15.73780998 Ry
     estimated scf accuracy    <       0.00039714 Ry

     iteration #  8     ecut=    50.00 Ry     beta= 0.01
     Davidson diagonalization with overlap
     ethr =  4.96E-06,  avg # of iterations =  2.0

     total cpu time spent up to now is       47.8 secs

     total energy              =     -15.73788008 Ry
     estimated scf accuracy    <       0.00008711 Ry

     iteration #  9     ecut=    50.00 Ry     beta= 0.01
     Davidson diagonalization with overlap
     ethr =  1.09E-06,  avg # of iterations =  1.1

     total cpu time spent up to now is       50.3 secs

     total energy              =     -15.73784569 Ry
     estimated scf accuracy    <       0.00004823 Ry

     iteration # 10     ecut=    50.00 Ry     beta= 0.01
     Davidson diagonalization with overlap
     ethr =  6.03E-07,  avg # of iterations =  2.0

     total cpu time spent up to now is       53.7 secs

     total energy              =     -15.73784940 Ry
     estimated scf accuracy    <       0.00001991 Ry

     iteration # 11     ecut=    50.00 Ry     beta= 0.01
     Davidson diagonalization with overlap
     ethr =  2.49E-07,  avg # of iterations =  2.1

     total cpu time spent up to now is       58.0 secs

     total energy              =     -15.73785605 Ry
     estimated scf accuracy    <       0.00000140 Ry

     iteration # 12     ecut=    50.00 Ry     beta= 0.01
     Davidson diagonalization with overlap
     ethr =  1.75E-08,  avg # of iterations =  1.6

     total cpu time spent up to now is       60.9 secs

     total energy              =     -15.73785483 Ry
     estimated scf accuracy    <       0.00000170 Ry

     iteration # 13     ecut=    50.00 Ry     beta= 0.01
     Davidson diagonalization with overlap
     ethr =  1.75E-08,  avg # of iterations =  1.6

     total cpu time spent up to now is       63.7 secs

     End of self-consistent calculation

          k = 0.0000 0.0000 0.0000 (  1807 PWs)   bands (ev):

    -6.6662   4.8944   4.8944   4.8944

          k =-0.1000 0.1000-0.1000 (  1829 PWs)   bands (ev):

    -6.5417   3.8013   4.7217   4.7217

          k =-0.2000 0.2000-0.2000 (  1811 PWs)   bands (ev):

    -6.1747   2.0226   4.3730   4.3730

          k =-0.3000 0.3000-0.3000 (  1823 PWs)   bands (ev):

    -5.5941   0.3210   4.0532   4.0532

          k =-0.4000 0.4000-0.4000 (  1832 PWs)   bands (ev):

    -4.9015  -1.0706   3.8455   3.8455

          k = 0.5000-0.5000 0.5000 (  1802 PWs)   bands (ev):

    -4.4977  -1.7108   3.7746   3.7746

          k = 0.0000 0.2000 0.0000 (  1824 PWs)   bands (ev):

    -6.4998   3.9271   4.3985   4.3985

          k =-0.1000 0.3000-0.1000 (  1815 PWs)   bands (ev):

    -6.2123   2.5143   3.9990   4.1310

          k =-0.2000 0.4000-0.2000 (  1821 PWs)   bands (ev):

    -5.6979   0.8498   3.6926   3.7270

          k =-0.3000 0.5000-0.3000 (  1815 PWs)   bands (ev):

    -5.0209  -0.6342   3.3402   3.5418

          k = 0.6000-0.4000 0.6000 (  1801 PWs)   bands (ev):

    -4.4401  -1.5927   3.0708   3.5603

          k = 0.5000-0.3000 0.5000 (  1812 PWs)   bands (ev):

    -4.5891  -1.3659   2.9603   3.7381

          k = 0.4000-0.2000 0.4000 (  1820 PWs)   bands (ev):

    -5.2587  -0.1700   3.0328   4.0455

          k = 0.3000-0.1000 0.3000 (  1822 PWs)   bands (ev):

    -5.8940   1.3866   3.3127   4.4202

          k = 0.2000 0.0000 0.2000 (  1819 PWs)   bands (ev):

    -6.3357   2.9150   3.8920   4.7219

          k = 0.0000 0.4000 0.0000 (  1808 PWs)   bands (ev):

    -6.0044   2.2601   3.5624   3.5624

          k =-0.1000 0.5000-0.1000 (  1802 PWs)   bands (ev):

    -5.5624   1.0856   3.0906   3.2320

          k =-0.2000 0.6000-0.2000 (  1810 PWs)   bands (ev):

    -4.9267  -0.2562   2.5063   3.0736

          k = 0.7000-0.3000 0.7000 (  1793 PWs)   bands (ev):

    -4.2537  -1.3497   2.0296   3.1055

          k = 0.6000-0.2000 0.6000 (  1802 PWs)   bands (ev):

    -4.1192  -1.5356   1.7593   3.3200

          k = 0.5000-0.1000 0.5000 (  1804 PWs)   bands (ev):

    -4.7160  -0.6323   1.7646   3.6822

          k = 0.4000 0.0000 0.4000 (  1809 PWs)   bands (ev):

    -5.3881   0.5305   2.2115   4.1093

          k = 0.0000 0.6000 0.0000 (  1808 PWs)   bands (ev):

    -5.1924   0.5219   2.8633   2.8633

          k =-0.1000 0.7000-0.1000 (  1799 PWs)   bands (ev):

    -4.6122  -0.4396   2.3121   2.6663

          k = 0.8000-0.2000 0.8000 (  1800 PWs)   bands (ev):

    -3.9120  -1.3878   1.5727   2.6671

          k = 0.7000-0.1000 0.7000 (  1809 PWs)   bands (ev):

    -3.5389  -1.8175   1.0732   2.8641

          k = 0.6000-0.0000 0.6000 (  1802 PWs)   bands (ev):

    -4.0373  -1.2619   1.0551   3.2283

          k = 0.0000 0.8000 0.0000 (  1780 PWs)   bands (ev):

    -4.0873  -1.1665   2.4204   2.4204

          k = 0.9000-0.1000 0.9000 (  1793 PWs)   bands (ev):

    -3.3989  -1.9709   1.9209   2.3723

          k = 0.8000 0.0000 0.8000 (  1816 PWs)   bands (ev):

    -2.9756  -2.3584   1.2414   2.5271

          k = 0.0000-1.0000 0.0000 (  1772 PWs)   bands (ev):

    -2.7267  -2.7267   2.2698   2.2698

          k =-0.2000 0.4000 0.0000 (  1810 PWs)   bands (ev):

    -5.8483   1.5867   3.0487   4.0051

          k =-0.3000 0.5000-0.1000 (  1816 PWs)   bands (ev):

    -5.2712   0.2579   2.4822   3.6672

          k = 0.6000-0.4000 0.8000 (  1808 PWs)   bands (ev):

    -4.5771  -1.0094   2.2398   3.3515

          k = 0.5000-0.3000 0.7000 (  1806 PWs)   bands (ev):

    -4.1645  -1.6263   2.1738   3.2275

          k =-0.2000 0.6000 0.0000 (  1807 PWs)   bands (ev):

    -5.0531   0.1970   2.3676   3.0062

          k = 0.7000-0.3000 0.9000 (  1812 PWs)   bands (ev):

    -4.3775  -0.8443   1.7955   2.7162

          k = 0.6000-0.2000 0.8000 (  1804 PWs)   bands (ev):

    -3.7840  -1.6332   1.4137   2.6652

          k = 0.5000-0.1000 0.7000 (  1803 PWs)   bands (ev):

    -3.9691  -1.3962   1.2870   2.8812

          k = 0.4000 0.0000 0.6000 (  1807 PWs)   bands (ev):

    -4.6504  -0.5077   1.5793   3.2766

          k = 0.8000-0.2000 1.0000 (  1792 PWs)   bands (ev):

    -3.9806  -1.2537   1.9801   2.2776

          k = 0.7000-0.1000 0.9000 (  1798 PWs)   bands (ev):

    -3.2947  -1.9920   1.3684   2.1965

          k = 0.6000 0.0000 0.8000 (  1801 PWs)   bands (ev):

    -3.3169  -1.9523   0.9988   2.4427

          k =-0.2000-1.0000 0.0000 (  1790 PWs)   bands (ev):

    -2.6848  -2.6848   1.9386   1.9386

          k = 0.6000-0.2000 1.0000 (  1807 PWs)   bands (ev):

    -3.6918  -1.5359   1.3124   2.2126

          k = 0.5000-0.1000 0.9000 (  1800 PWs)   bands (ev):

    -3.2206  -2.0181   1.1730   1.9877

          k =-0.4000-1.0000 0.0000 (  1800 PWs)   bands (ev):

    -2.6124  -2.6124   1.5066   1.5066

     highest occupied level (ev):     4.8944

!    total energy              =     -15.73785480 Ry
     estimated scf accuracy    <       0.00000090 Ry

     The total energy is the sum of the following terms:
     one-electron contribution =       3.94802142 Ry
     hartree contribution      =       1.20564369 Ry
     xc contribution           =      -4.71798474 Ry
     ewald contribution        =     -16.17353517 Ry

     convergence has been achieved in  13 iterations
     Writing meta-gga kinetic term

     Writing all to output data dir ./input_pw/Si/9/pwscf.save/
     Writing meta-gga kinetic term
 
     init_run     :      4.15s CPU      8.14s WALL (       1 calls)
     electrons    :     37.46s CPU     55.52s WALL (       1 calls)

     Called by init_run:
     wfcinit      :      4.02s CPU      7.82s WALL (       1 calls)
     potinit      :      0.03s CPU      0.09s WALL (       1 calls)
     hinit0       :      0.07s CPU      0.19s WALL (       1 calls)

     Called by electrons:
     c_bands      :     29.88s CPU     44.26s WALL (      14 calls)
     sum_band     :      6.87s CPU     10.18s WALL (      14 calls)
     v_of_rho     :      0.43s CPU      0.70s WALL (      14 calls)
     mix_rho      :      0.29s CPU      0.42s WALL (      14 calls)

     Called by c_bands:
     init_us_2    :      0.30s CPU      0.47s WALL (    1363 calls)
     init_us_2:cp :      0.30s CPU      0.45s WALL (    1363 calls)
     cegterg      :     29.52s CPU     43.75s WALL (     658 calls)

     Called by *egterg:
     cdiaghg      :      0.11s CPU      0.13s WALL (    1629 calls)
     h_psi        :     32.95s CPU     50.65s WALL (    1723 calls)
     g_psi        :      0.02s CPU      0.04s WALL (    1018 calls)

     Called by h_psi:
     h_psi:calbec :      0.12s CPU      0.23s WALL (    1723 calls)
     vloc_psi     :      8.17s CPU     12.69s WALL (    1723 calls)
     add_vuspsi   :      0.09s CPU      0.15s WALL (    1723 calls)
     h_psi_meta   :     24.51s CPU     37.52s WALL (    1723 calls)

     General routines
     calbec       :      0.12s CPU      0.21s WALL (    1723 calls)
     fft          :      0.09s CPU      0.23s WALL (     167 calls)
     ffts         :      0.12s CPU      0.16s WALL (     228 calls)
     fftw         :     34.34s CPU     53.21s WALL (   66424 calls)
     interpolate  :      0.00s CPU      0.00s WALL (      14 calls)
 
     Parallel routines
 
     PWSCF        :     41.65s CPU   1m 3.75s WALL

 
   This run was terminated on:  12:50:44  21Feb2023            

=------------------------------------------------------------------------------=
   JOB DONE.
=------------------------------------------------------------------------------=
