
     Program PWSCF v.7.0 starts on 29Mar2023 at 11:31: 6 

     This program is part of the open-source Quantum ESPRESSO suite
     for quantum simulation of materials; please cite
         "P. Giannozzi et al., J. Phys.:Condens. Matter 21 395502 (2009);
         "P. Giannozzi et al., J. Phys.:Condens. Matter 29 465901 (2017);
         "P. Giannozzi et al., J. Chem. Phys. 152 154105 (2020);
          URL http://www.quantum-espresso.org", 
     in publications or presentations arising from this work. More details at
     http://www.quantum-espresso.org/quote

     Parallel version (MPI), running on     1 processors

     MPI processes distributed on     1 nodes
     23118 MiB available memory on the printing compute node when the environment starts
 
     Waiting for input...
     Reading input from standard input
Warning: card &CELL ignored
Warning: card / ignored

     Current dimensions of program PWSCF are:
     Max number of different atomic species (ntypx) = 10
     Max number of k-points (npk) =  40000
     Max angular momentum in pseudopotentials (lmaxx) =  4
     file Si.SCAN.UPF2: wavefunction(s)  0D renormalized

     WARNING: the MGGA functional with ID    5 has been 
     read together with other dft terms, but it should 
     stand alone in order to work properly. The other 
     terms will be ignored.

     Subspace diagonalization in iterative solution of the eigenvalue problem:
     a serial algorithm will be used

 
     G-vector sticks info
     --------------------
     sticks:   dense  smooth     PW     G-vecs:    dense   smooth      PW
     Sum         805     805    253                14841    14841    2565
 
     Using Slab Decomposition
 


     bravais-lattice index     =            2
     lattice parameter (alat)  =      10.7483  a.u.
     unit-cell volume          =     310.4277 (a.u.)^3
     number of atoms/cell      =            2
     number of atomic types    =            1
     number of electrons       =         8.00
     number of Kohn-Sham states=            4
     kinetic-energy cutoff     =      50.0000  Ry
     charge density cutoff     =     200.0000  Ry
     scf convergence threshold =      1.0E-06
     mixing beta               =       0.0100
     number of iterations used =            8  local-TF  mixing
     Exchange-correlation= SLA  PW   SCAN SCAN
                           (   0   0   0   0   0 263 267)

     celldm(1)=  10.748309  celldm(2)=   0.000000  celldm(3)=   0.000000
     celldm(4)=   0.000000  celldm(5)=   0.000000  celldm(6)=   0.000000

     crystal axes: (cart. coord. in units of alat)
               a(1) = (  -0.500000   0.000000   0.500000 )  
               a(2) = (   0.000000   0.500000   0.500000 )  
               a(3) = (  -0.500000   0.500000   0.000000 )  

     reciprocal axes: (cart. coord. in units 2 pi/alat)
               b(1) = ( -1.000000 -1.000000  1.000000 )  
               b(2) = (  1.000000  1.000000  1.000000 )  
               b(3) = ( -1.000000  1.000000 -1.000000 )  


     PseudoPot. # 1 for Si read from file:
     ~/Documents/TA/PWDFT.jl/pseudopotentials/scan_upf/Si.SCAN.UPF2
     MD5 check sum: Not computed, couldn't open file
     Pseudo is Norm-conserving, Zval =  4.0
     Generated by new atomic code, or converted to UPF format
     Using radial grid of 1475 points,  2 beta functions with: 
                l(1) =   0
                l(2) =   1

     atomic species   valence    mass     pseudopotential
        Si             4.00    28.08550     Si( 1.00)

     48 Sym. Ops., with inversion, found (24 have fractional translation)



   Cartesian axes

     site n.     atom                  positions (alat units)
         1           Si  tau(   1) = (   0.0000000   0.0000000   0.0000000  )
         2           Si  tau(   2) = (   0.2500000   0.2500000   0.2500000  )

     number of k points=    47
                       cart. coord. in units 2pi/alat
        k(    1) = (   0.0000000   0.0000000   0.0000000), wk =   0.0020000
        k(    2) = (  -0.1000000   0.1000000  -0.1000000), wk =   0.0160000
        k(    3) = (  -0.2000000   0.2000000  -0.2000000), wk =   0.0160000
        k(    4) = (  -0.3000000   0.3000000  -0.3000000), wk =   0.0160000
        k(    5) = (  -0.4000000   0.4000000  -0.4000000), wk =   0.0160000
        k(    6) = (   0.5000000  -0.5000000   0.5000000), wk =   0.0080000
        k(    7) = (   0.0000000   0.2000000   0.0000000), wk =   0.0120000
        k(    8) = (  -0.1000000   0.3000000  -0.1000000), wk =   0.0480000
        k(    9) = (  -0.2000000   0.4000000  -0.2000000), wk =   0.0480000
        k(   10) = (  -0.3000000   0.5000000  -0.3000000), wk =   0.0480000
        k(   11) = (   0.6000000  -0.4000000   0.6000000), wk =   0.0480000
        k(   12) = (   0.5000000  -0.3000000   0.5000000), wk =   0.0480000
        k(   13) = (   0.4000000  -0.2000000   0.4000000), wk =   0.0480000
        k(   14) = (   0.3000000  -0.1000000   0.3000000), wk =   0.0480000
        k(   15) = (   0.2000000   0.0000000   0.2000000), wk =   0.0240000
        k(   16) = (   0.0000000   0.4000000   0.0000000), wk =   0.0120000
        k(   17) = (  -0.1000000   0.5000000  -0.1000000), wk =   0.0480000
        k(   18) = (  -0.2000000   0.6000000  -0.2000000), wk =   0.0480000
        k(   19) = (   0.7000000  -0.3000000   0.7000000), wk =   0.0480000
        k(   20) = (   0.6000000  -0.2000000   0.6000000), wk =   0.0480000
        k(   21) = (   0.5000000  -0.1000000   0.5000000), wk =   0.0480000
        k(   22) = (   0.4000000   0.0000000   0.4000000), wk =   0.0240000
        k(   23) = (   0.0000000   0.6000000   0.0000000), wk =   0.0120000
        k(   24) = (  -0.1000000   0.7000000  -0.1000000), wk =   0.0480000
        k(   25) = (   0.8000000  -0.2000000   0.8000000), wk =   0.0480000
        k(   26) = (   0.7000000  -0.1000000   0.7000000), wk =   0.0480000
        k(   27) = (   0.6000000  -0.0000000   0.6000000), wk =   0.0240000
        k(   28) = (   0.0000000   0.8000000   0.0000000), wk =   0.0120000
        k(   29) = (   0.9000000  -0.1000000   0.9000000), wk =   0.0480000
        k(   30) = (   0.8000000   0.0000000   0.8000000), wk =   0.0240000
        k(   31) = (   0.0000000  -1.0000000   0.0000000), wk =   0.0060000
        k(   32) = (  -0.2000000   0.4000000   0.0000000), wk =   0.0480000
        k(   33) = (  -0.3000000   0.5000000  -0.1000000), wk =   0.0960000
        k(   34) = (   0.6000000  -0.4000000   0.8000000), wk =   0.0960000
        k(   35) = (   0.5000000  -0.3000000   0.7000000), wk =   0.0480000
        k(   36) = (  -0.2000000   0.6000000   0.0000000), wk =   0.0480000
        k(   37) = (   0.7000000  -0.3000000   0.9000000), wk =   0.0960000
        k(   38) = (   0.6000000  -0.2000000   0.8000000), wk =   0.0960000
        k(   39) = (   0.5000000  -0.1000000   0.7000000), wk =   0.0960000
        k(   40) = (   0.4000000   0.0000000   0.6000000), wk =   0.0480000
        k(   41) = (   0.8000000  -0.2000000   1.0000000), wk =   0.0480000
        k(   42) = (   0.7000000  -0.1000000   0.9000000), wk =   0.0960000
        k(   43) = (   0.6000000   0.0000000   0.8000000), wk =   0.0480000
        k(   44) = (  -0.2000000  -1.0000000   0.0000000), wk =   0.0240000
        k(   45) = (   0.6000000  -0.2000000   1.0000000), wk =   0.0480000
        k(   46) = (   0.5000000  -0.1000000   0.9000000), wk =   0.0480000
        k(   47) = (  -0.4000000  -1.0000000   0.0000000), wk =   0.0240000

     Dense  grid:    14841 G-vectors     FFT dimensions: (  36,  36,  36)

     Estimated max dynamical RAM per process >      27.91 MB

     WARNING: libxc functional with ID  263 depends
      on external parameters: check the user_guide of
      QE if you need to modify them or to check their
      default values.

     Initial potential from superposition of free atoms

     starting charge       7.9990, renormalised to       8.0000
     Starting wfcs are   18 randomized atomic wfcs

     total cpu time spent up to now is        8.6 secs

     Self-consistent Calculation

     iteration #  1     ecut=    50.00 Ry     beta= 0.01
     Davidson diagonalization with overlap
     ethr =  1.00E-02,  avg # of iterations =  1.8

     Threshold (ethr) on eigenvalues was too large:
     Diagonalizing with lowered threshold

     Davidson diagonalization with overlap
     ethr =  6.14E-04,  avg # of iterations =  1.8

     total cpu time spent up to now is       20.6 secs

     total energy              =     -15.65008922 Ry
     estimated scf accuracy    <       0.05210536 Ry

     iteration #  2     ecut=    50.00 Ry     beta= 0.01
     Davidson diagonalization with overlap
     ethr =  6.51E-04,  avg # of iterations =  1.0

     total cpu time spent up to now is       25.7 secs

     total energy              =     -15.70464543 Ry
     estimated scf accuracy    <       0.05190893 Ry

     iteration #  3     ecut=    50.00 Ry     beta= 0.01
     Davidson diagonalization with overlap
     ethr =  6.49E-04,  avg # of iterations =  1.8

     total cpu time spent up to now is       30.7 secs

     total energy              =     -15.72843698 Ry
     estimated scf accuracy    <       0.03760597 Ry

     iteration #  4     ecut=    50.00 Ry     beta= 0.01
     Davidson diagonalization with overlap
     ethr =  4.70E-04,  avg # of iterations =  1.0

     total cpu time spent up to now is       35.9 secs

     total energy              =     -15.73267279 Ry
     estimated scf accuracy    <       0.00414418 Ry

     iteration #  5     ecut=    50.00 Ry     beta= 0.01
     Davidson diagonalization with overlap
     ethr =  5.18E-05,  avg # of iterations =  1.1

     total cpu time spent up to now is       40.3 secs

     total energy              =     -15.73290252 Ry
     estimated scf accuracy    <       0.00584524 Ry

     iteration #  6     ecut=    50.00 Ry     beta= 0.01
     Davidson diagonalization with overlap
     ethr =  5.18E-05,  avg # of iterations =  1.0

     total cpu time spent up to now is       43.5 secs

     total energy              =     -15.73185109 Ry
     estimated scf accuracy    <       0.00556888 Ry

     iteration #  7     ecut=    50.00 Ry     beta= 0.01
     Davidson diagonalization with overlap
     ethr =  5.18E-05,  avg # of iterations =  2.0

     total cpu time spent up to now is       47.8 secs

     total energy              =     -15.73246677 Ry
     estimated scf accuracy    <       0.00043749 Ry

     iteration #  8     ecut=    50.00 Ry     beta= 0.01
     Davidson diagonalization with overlap
     ethr =  5.47E-06,  avg # of iterations =  2.0

     total cpu time spent up to now is       51.7 secs

     total energy              =     -15.73252565 Ry
     estimated scf accuracy    <       0.00005104 Ry

     iteration #  9     ecut=    50.00 Ry     beta= 0.01
     Davidson diagonalization with overlap
     ethr =  6.38E-07,  avg # of iterations =  1.2

     total cpu time spent up to now is       54.9 secs

     total energy              =     -15.73249232 Ry
     estimated scf accuracy    <       0.00004154 Ry

     iteration # 10     ecut=    50.00 Ry     beta= 0.01
     Davidson diagonalization with overlap
     ethr =  5.19E-07,  avg # of iterations =  2.0

     total cpu time spent up to now is       58.8 secs

     total energy              =     -15.73250909 Ry
     estimated scf accuracy    <       0.00000765 Ry

     iteration # 11     ecut=    50.00 Ry     beta= 0.01
     Davidson diagonalization with overlap
     ethr =  9.57E-08,  avg # of iterations =  2.1

     total cpu time spent up to now is       62.5 secs

     total energy              =     -15.73251122 Ry
     estimated scf accuracy    <       0.00000182 Ry

     iteration # 12     ecut=    50.00 Ry     beta= 0.01
     Davidson diagonalization with overlap
     ethr =  2.28E-08,  avg # of iterations =  1.1

     total cpu time spent up to now is       65.6 secs

     total energy              =     -15.73251082 Ry
     estimated scf accuracy    <       0.00000174 Ry

     iteration # 13     ecut=    50.00 Ry     beta= 0.01
     Davidson diagonalization with overlap
     ethr =  2.18E-08,  avg # of iterations =  1.0

     total cpu time spent up to now is       68.8 secs

     total energy              =     -15.73250911 Ry
     estimated scf accuracy    <       0.00000113 Ry

     iteration # 14     ecut=    50.00 Ry     beta= 0.01
     Davidson diagonalization with overlap
     ethr =  1.41E-08,  avg # of iterations =  2.9

     total cpu time spent up to now is       71.1 secs

     End of self-consistent calculation

          k = 0.0000 0.0000 0.0000 (  1837 PWs)   bands (ev):

    -6.7447   4.6622   4.6622   4.6622

          k =-0.1000 0.1000-0.1000 (  1868 PWs)   bands (ev):

    -6.6228   3.5619   4.4934   4.4934

          k =-0.2000 0.2000-0.2000 (  1865 PWs)   bands (ev):

    -6.2639   1.8060   4.1515   4.1515

          k =-0.3000 0.3000-0.3000 (  1865 PWs)   bands (ev):

    -5.6970   0.1360   3.8371   3.8371

          k =-0.4000 0.4000-0.4000 (  1859 PWs)   bands (ev):

    -5.0234  -1.2244   3.6323   3.6323

          k = 0.5000-0.5000 0.5000 (  1850 PWs)   bands (ev):

    -4.6338  -1.8462   3.5623   3.5623

          k = 0.0000 0.2000 0.0000 (  1852 PWs)   bands (ev):

    -6.5818   3.6661   4.1796   4.1796

          k =-0.1000 0.3000-0.1000 (  1860 PWs)   bands (ev):

    -6.3005   2.2785   3.7889   3.9085

          k =-0.2000 0.4000-0.2000 (  1857 PWs)   bands (ev):

    -5.7979   0.6475   3.4877   3.5098

          k =-0.3000 0.5000-0.3000 (  1867 PWs)   bands (ev):

    -5.1383  -0.8036   3.1299   3.3383

          k = 0.6000-0.4000 0.6000 (  1855 PWs)   bands (ev):

    -4.5762  -1.7358   2.8667   3.3547

          k = 0.5000-0.3000 0.5000 (  1860 PWs)   bands (ev):

    -4.7199  -1.5159   2.7606   3.5276

          k = 0.4000-0.2000 0.4000 (  1865 PWs)   bands (ev):

    -5.3697  -0.3501   2.8355   3.8280

          k = 0.3000-0.1000 0.3000 (  1870 PWs)   bands (ev):

    -5.9895   1.1728   3.1150   4.1948

          k = 0.2000 0.0000 0.2000 (  1863 PWs)   bands (ev):

    -6.4213   2.6744   3.6866   4.4910

          k = 0.0000 0.4000 0.0000 (  1840 PWs)   bands (ev):

    -6.0970   2.0047   3.3626   3.3626

          k =-0.1000 0.5000-0.1000 (  1862 PWs)   bands (ev):

    -5.6649   0.8556   2.8967   3.0387

          k =-0.2000 0.6000-0.2000 (  1875 PWs)   bands (ev):

    -5.0445  -0.4527   2.3217   2.8825

          k = 0.7000-0.3000 0.7000 (  1853 PWs)   bands (ev):

    -4.3910  -1.5158   1.8543   2.9124

          k = 0.6000-0.2000 0.6000 (  1832 PWs)   bands (ev):

    -4.2617  -1.6951   1.5920   3.1210

          k = 0.5000-0.1000 0.5000 (  1850 PWs)   bands (ev):

    -4.8402  -0.8184   1.6032   3.4741

          k = 0.4000 0.0000 0.4000 (  1861 PWs)   bands (ev):

    -5.4953   0.3180   2.0457   3.8909

          k = 0.0000 0.6000 0.0000 (  1860 PWs)   bands (ev):

    -5.3027   0.2920   2.6780   2.6780

          k =-0.1000 0.7000-0.1000 (  1844 PWs)   bands (ev):

    -4.7357  -0.6504   2.1416   2.4846

          k = 0.8000-0.2000 0.8000 (  1854 PWs)   bands (ev):

    -4.0536  -1.5763   1.4226   2.4847

          k = 0.7000-0.1000 0.7000 (  1847 PWs)   bands (ev):

    -3.6941  -1.9919   0.9373   2.6766

          k = 0.6000-0.0000 0.6000 (  1850 PWs)   bands (ev):

    -4.1789  -1.4486   0.9206   3.0318

          k = 0.0000 0.8000 0.0000 (  1868 PWs)   bands (ev):

    -4.2218  -1.3640   2.2439   2.2439

          k = 0.9000-0.1000 0.9000 (  1837 PWs)   bands (ev):

    -3.5495  -2.1521   1.7609   2.1964

          k = 0.8000 0.0000 0.8000 (  1840 PWs)   bands (ev):

    -3.1415  -2.5283   1.1042   2.3475

          k = 0.0000-1.0000 0.0000 (  1868 PWs)   bands (ev):

    -2.8910  -2.8910   2.0962   2.0962

          k =-0.2000 0.4000 0.0000 (  1868 PWs)   bands (ev):

    -5.9446   1.3552   2.8627   3.7879

          k =-0.3000 0.5000-0.1000 (  1856 PWs)   bands (ev):

    -5.3811   0.0548   2.3030   3.4593

          k = 0.6000-0.4000 0.8000 (  1855 PWs)   bands (ev):

    -4.7056  -1.1796   2.0587   3.1529

          k = 0.5000-0.3000 0.7000 (  1842 PWs)   bands (ev):

    -4.3071  -1.7776   1.9914   3.0329

          k =-0.2000 0.6000 0.0000 (  1860 PWs)   bands (ev):

    -5.1671  -0.0222   2.1966   2.8172

          k = 0.7000-0.3000 0.9000 (  1854 PWs)   bands (ev):

    -4.5083  -1.0404   1.6361   2.5365

          k = 0.6000-0.2000 0.8000 (  1847 PWs)   bands (ev):

    -3.9330  -1.8059   1.2619   2.4870

          k = 0.5000-0.1000 0.7000 (  1845 PWs)   bands (ev):

    -4.1127  -1.5758   1.1411   2.6966

          k = 0.4000 0.0000 0.6000 (  1858 PWs)   bands (ev):

    -4.7753  -0.7084   1.4293   3.0807

          k = 0.8000-0.2000 1.0000 (  1844 PWs)   bands (ev):

    -4.1187  -1.4501   1.8180   2.1094

          k = 0.7000-0.1000 0.9000 (  1848 PWs)   bands (ev):

    -3.4512  -2.1730   1.2267   2.0301

          k = 0.6000 0.0000 0.8000 (  1850 PWs)   bands (ev):

    -3.4765  -2.1308   0.8686   2.2697

          k =-0.2000-1.0000 0.0000 (  1842 PWs)   bands (ev):

    -2.8518  -2.8518   1.7783   1.7783

          k = 0.6000-0.2000 1.0000 (  1842 PWs)   bands (ev):

    -3.8398  -1.7257   1.1710   2.0490

          k = 0.5000-0.1000 0.9000 (  1856 PWs)   bands (ev):

    -3.3818  -2.1974   1.0364   1.8307

          k =-0.4000-1.0000 0.0000 (  1852 PWs)   bands (ev):

    -2.7844  -2.7844   1.3626   1.3626

     highest occupied level (ev):     4.6622

!    total energy              =     -15.73250989 Ry
     estimated scf accuracy    <       0.00000007 Ry

     The total energy is the sum of the following terms:
     one-electron contribution =       3.76985754 Ry
     hartree contribution      =       1.22643166 Ry
     xc contribution           =      -4.69115605 Ry
     ewald contribution        =     -16.03764305 Ry

     convergence has been achieved in  14 iterations
     Writing meta-gga kinetic term

     Writing all to output data dir ./input_pw/Si/9/pwscf.save/
     Writing meta-gga kinetic term
 
     init_run     :      4.18s CPU      8.56s WALL (       1 calls)
     electrons    :     40.56s CPU     62.45s WALL (       1 calls)

     Called by init_run:
     wfcinit      :      4.05s CPU      8.35s WALL (       1 calls)
     potinit      :      0.04s CPU      0.09s WALL (       1 calls)
     hinit0       :      0.07s CPU      0.10s WALL (       1 calls)

     Called by electrons:
     c_bands      :     32.54s CPU     50.45s WALL (      15 calls)
     sum_band     :      7.25s CPU     10.74s WALL (      15 calls)
     v_of_rho     :      0.46s CPU      0.73s WALL (      15 calls)
     mix_rho      :      0.33s CPU      0.60s WALL (      15 calls)

     Called by c_bands:
     init_us_2    :      0.33s CPU      0.59s WALL (    1457 calls)
     init_us_2:cp :      0.33s CPU      0.59s WALL (    1457 calls)
     cegterg      :     32.14s CPU     49.84s WALL (     705 calls)

     Called by *egterg:
     cdiaghg      :      0.12s CPU      0.18s WALL (    1774 calls)
     h_psi        :     35.51s CPU     57.02s WALL (    1868 calls)
     g_psi        :      0.02s CPU      0.04s WALL (    1116 calls)

     Called by h_psi:
     h_psi:calbec :      0.14s CPU      0.24s WALL (    1868 calls)
     vloc_psi     :      8.81s CPU     14.20s WALL (    1868 calls)
     add_vuspsi   :      0.10s CPU      0.16s WALL (    1868 calls)
     h_psi_meta   :     26.42s CPU     42.36s WALL (    1868 calls)

     General routines
     calbec       :      0.13s CPU      0.23s WALL (    1868 calls)
     fft          :      0.09s CPU      0.11s WALL (     179 calls)
     ffts         :      0.13s CPU      0.29s WALL (     247 calls)
     fftw         :     36.63s CPU     58.44s WALL (   72920 calls)
     interpolate  :      0.00s CPU      0.00s WALL (      15 calls)
 
     Parallel routines
 
     PWSCF        :     44.77s CPU   1m11.08s WALL

 
   This run was terminated on:  11:32:18  29Mar2023            

=------------------------------------------------------------------------------=
   JOB DONE.
=------------------------------------------------------------------------------=
