
     Program PWSCF v.7.0 starts on 21Feb2023 at 12:49:41 

     This program is part of the open-source Quantum ESPRESSO suite
     for quantum simulation of materials; please cite
         "P. Giannozzi et al., J. Phys.:Condens. Matter 21 395502 (2009);
         "P. Giannozzi et al., J. Phys.:Condens. Matter 29 465901 (2017);
         "P. Giannozzi et al., J. Chem. Phys. 152 154105 (2020);
          URL http://www.quantum-espresso.org", 
     in publications or presentations arising from this work. More details at
     http://www.quantum-espresso.org/quote

     Parallel version (MPI), running on     1 processors

     MPI processes distributed on     1 nodes
     2923 MiB available memory on the printing compute node when the environment starts
 
     Waiting for input...
     Reading input from standard input
Warning: card &CELL ignored
Warning: card / ignored

     Current dimensions of program PWSCF are:
     Max number of different atomic species (ntypx) = 10
     Max number of k-points (npk) =  40000
     Max angular momentum in pseudopotentials (lmaxx) =  4
     file Si.SCAN.UPF2: wavefunction(s)  0D renormalized

     WARNING: the MGGA functional with ID    5 has been 
     read together with other dft terms, but it should 
     stand alone in order to work properly. The other 
     terms will be ignored.

     Subspace diagonalization in iterative solution of the eigenvalue problem:
     a serial algorithm will be used

 
     G-vector sticks info
     --------------------
     sticks:   dense  smooth     PW     G-vecs:    dense   smooth      PW
     Sum         823     823    253                15593    15593    2685
 
     Using Slab Decomposition
 


     bravais-lattice index     =            2
     lattice parameter (alat)  =      10.9313  a.u.
     unit-cell volume          =     326.5543 (a.u.)^3
     number of atoms/cell      =            2
     number of atomic types    =            1
     number of electrons       =         8.00
     number of Kohn-Sham states=            4
     kinetic-energy cutoff     =      50.0000  Ry
     charge density cutoff     =     200.0000  Ry
     scf convergence threshold =      1.0E-06
     mixing beta               =       0.0100
     number of iterations used =            8  local-TF  mixing
     Exchange-correlation= SLA  PW   SCAN SCAN
                           (   0   0   0   0   0 263 267)

     celldm(1)=  10.931300  celldm(2)=   0.000000  celldm(3)=   0.000000
     celldm(4)=   0.000000  celldm(5)=   0.000000  celldm(6)=   0.000000

     crystal axes: (cart. coord. in units of alat)
               a(1) = (  -0.500000   0.000000   0.500000 )  
               a(2) = (   0.000000   0.500000   0.500000 )  
               a(3) = (  -0.500000   0.500000   0.000000 )  

     reciprocal axes: (cart. coord. in units 2 pi/alat)
               b(1) = ( -1.000000 -1.000000  1.000000 )  
               b(2) = (  1.000000  1.000000  1.000000 )  
               b(3) = ( -1.000000  1.000000 -1.000000 )  


     PseudoPot. # 1 for Si read from file:
     ~/Documents/TA/PWDFT.jl/pseudopotentials/scan_upf/Si.SCAN.UPF2
     MD5 check sum: Not computed, couldn't open file
     Pseudo is Norm-conserving, Zval =  4.0
     Generated by new atomic code, or converted to UPF format
     Using radial grid of 1475 points,  2 beta functions with: 
                l(1) =   0
                l(2) =   1

     atomic species   valence    mass     pseudopotential
        Si             4.00    28.08550     Si( 1.00)

     48 Sym. Ops., with inversion, found (24 have fractional translation)



   Cartesian axes

     site n.     atom                  positions (alat units)
         1           Si  tau(   1) = (   0.0000000   0.0000000   0.0000000  )
         2           Si  tau(   2) = (   0.2500000   0.2500000   0.2500000  )

     number of k points=    47
                       cart. coord. in units 2pi/alat
        k(    1) = (   0.0000000   0.0000000   0.0000000), wk =   0.0020000
        k(    2) = (  -0.1000000   0.1000000  -0.1000000), wk =   0.0160000
        k(    3) = (  -0.2000000   0.2000000  -0.2000000), wk =   0.0160000
        k(    4) = (  -0.3000000   0.3000000  -0.3000000), wk =   0.0160000
        k(    5) = (  -0.4000000   0.4000000  -0.4000000), wk =   0.0160000
        k(    6) = (   0.5000000  -0.5000000   0.5000000), wk =   0.0080000
        k(    7) = (   0.0000000   0.2000000   0.0000000), wk =   0.0120000
        k(    8) = (  -0.1000000   0.3000000  -0.1000000), wk =   0.0480000
        k(    9) = (  -0.2000000   0.4000000  -0.2000000), wk =   0.0480000
        k(   10) = (  -0.3000000   0.5000000  -0.3000000), wk =   0.0480000
        k(   11) = (   0.6000000  -0.4000000   0.6000000), wk =   0.0480000
        k(   12) = (   0.5000000  -0.3000000   0.5000000), wk =   0.0480000
        k(   13) = (   0.4000000  -0.2000000   0.4000000), wk =   0.0480000
        k(   14) = (   0.3000000  -0.1000000   0.3000000), wk =   0.0480000
        k(   15) = (   0.2000000   0.0000000   0.2000000), wk =   0.0240000
        k(   16) = (   0.0000000   0.4000000   0.0000000), wk =   0.0120000
        k(   17) = (  -0.1000000   0.5000000  -0.1000000), wk =   0.0480000
        k(   18) = (  -0.2000000   0.6000000  -0.2000000), wk =   0.0480000
        k(   19) = (   0.7000000  -0.3000000   0.7000000), wk =   0.0480000
        k(   20) = (   0.6000000  -0.2000000   0.6000000), wk =   0.0480000
        k(   21) = (   0.5000000  -0.1000000   0.5000000), wk =   0.0480000
        k(   22) = (   0.4000000   0.0000000   0.4000000), wk =   0.0240000
        k(   23) = (   0.0000000   0.6000000   0.0000000), wk =   0.0120000
        k(   24) = (  -0.1000000   0.7000000  -0.1000000), wk =   0.0480000
        k(   25) = (   0.8000000  -0.2000000   0.8000000), wk =   0.0480000
        k(   26) = (   0.7000000  -0.1000000   0.7000000), wk =   0.0480000
        k(   27) = (   0.6000000  -0.0000000   0.6000000), wk =   0.0240000
        k(   28) = (   0.0000000   0.8000000   0.0000000), wk =   0.0120000
        k(   29) = (   0.9000000  -0.1000000   0.9000000), wk =   0.0480000
        k(   30) = (   0.8000000   0.0000000   0.8000000), wk =   0.0240000
        k(   31) = (   0.0000000  -1.0000000   0.0000000), wk =   0.0060000
        k(   32) = (  -0.2000000   0.4000000   0.0000000), wk =   0.0480000
        k(   33) = (  -0.3000000   0.5000000  -0.1000000), wk =   0.0960000
        k(   34) = (   0.6000000  -0.4000000   0.8000000), wk =   0.0960000
        k(   35) = (   0.5000000  -0.3000000   0.7000000), wk =   0.0480000
        k(   36) = (  -0.2000000   0.6000000   0.0000000), wk =   0.0480000
        k(   37) = (   0.7000000  -0.3000000   0.9000000), wk =   0.0960000
        k(   38) = (   0.6000000  -0.2000000   0.8000000), wk =   0.0960000
        k(   39) = (   0.5000000  -0.1000000   0.7000000), wk =   0.0960000
        k(   40) = (   0.4000000   0.0000000   0.6000000), wk =   0.0480000
        k(   41) = (   0.8000000  -0.2000000   1.0000000), wk =   0.0480000
        k(   42) = (   0.7000000  -0.1000000   0.9000000), wk =   0.0960000
        k(   43) = (   0.6000000   0.0000000   0.8000000), wk =   0.0480000
        k(   44) = (  -0.2000000  -1.0000000   0.0000000), wk =   0.0240000
        k(   45) = (   0.6000000  -0.2000000   1.0000000), wk =   0.0480000
        k(   46) = (   0.5000000  -0.1000000   0.9000000), wk =   0.0480000
        k(   47) = (  -0.4000000  -1.0000000   0.0000000), wk =   0.0240000

     Dense  grid:    15593 G-vectors     FFT dimensions: (  36,  36,  36)

     Estimated max dynamical RAM per process >      29.05 MB

     WARNING: libxc functional with ID  263 depends
      on external parameters: check the user_guide of
      QE if you need to modify them or to check their
      default values.

     Initial potential from superposition of free atoms

     starting charge       7.9990, renormalised to       8.0000
     Starting wfcs are   18 randomized atomic wfcs

     total cpu time spent up to now is        8.0 secs

     Self-consistent Calculation

     iteration #  1     ecut=    50.00 Ry     beta= 0.01
     Davidson diagonalization with overlap
     ethr =  1.00E-02,  avg # of iterations =  1.7

     Threshold (ethr) on eigenvalues was too large:
     Diagonalizing with lowered threshold

     Davidson diagonalization with overlap
     ethr =  5.74E-04,  avg # of iterations =  1.9

     total cpu time spent up to now is       18.7 secs

     total energy              =     -15.64556608 Ry
     estimated scf accuracy    <       0.04857354 Ry

     iteration #  2     ecut=    50.00 Ry     beta= 0.01
     Davidson diagonalization with overlap
     ethr =  6.07E-04,  avg # of iterations =  1.0

     total cpu time spent up to now is       23.4 secs

     total energy              =     -15.66440511 Ry
     estimated scf accuracy    <       0.04845818 Ry

     iteration #  3     ecut=    50.00 Ry     beta= 0.01
     Davidson diagonalization with overlap
     ethr =  6.06E-04,  avg # of iterations =  1.0

     total cpu time spent up to now is       28.3 secs

     total energy              =     -15.71632229 Ry
     estimated scf accuracy    <       0.03798049 Ry

     iteration #  4     ecut=    50.00 Ry     beta= 0.01
     Davidson diagonalization with overlap
     ethr =  4.75E-04,  avg # of iterations =  1.1

     total cpu time spent up to now is       33.1 secs

     total energy              =     -15.71898202 Ry
     estimated scf accuracy    <       0.00381684 Ry

     iteration #  5     ecut=    50.00 Ry     beta= 0.01
     Davidson diagonalization with overlap
     ethr =  4.77E-05,  avg # of iterations =  2.0

     total cpu time spent up to now is       38.2 secs

     total energy              =     -15.71965890 Ry
     estimated scf accuracy    <       0.00465324 Ry

     iteration #  6     ecut=    50.00 Ry     beta= 0.01
     Davidson diagonalization with overlap
     ethr =  4.77E-05,  avg # of iterations =  1.0

     total cpu time spent up to now is       40.9 secs

     total energy              =     -15.71883134 Ry
     estimated scf accuracy    <       0.00581892 Ry

     iteration #  7     ecut=    50.00 Ry     beta= 0.01
     Davidson diagonalization with overlap
     ethr =  4.77E-05,  avg # of iterations =  2.0

     total cpu time spent up to now is       44.7 secs

     total energy              =     -15.71928227 Ry
     estimated scf accuracy    <       0.00025071 Ry

     iteration #  8     ecut=    50.00 Ry     beta= 0.01
     Davidson diagonalization with overlap
     ethr =  3.13E-06,  avg # of iterations =  2.2

     total cpu time spent up to now is       48.2 secs

     total energy              =     -15.71932468 Ry
     estimated scf accuracy    <       0.00004467 Ry

     iteration #  9     ecut=    50.00 Ry     beta= 0.01
     Davidson diagonalization with overlap
     ethr =  5.58E-07,  avg # of iterations =  1.2

     total cpu time spent up to now is       50.8 secs

     total energy              =     -15.71932898 Ry
     estimated scf accuracy    <       0.00004060 Ry

     iteration # 10     ecut=    50.00 Ry     beta= 0.01
     Davidson diagonalization with overlap
     ethr =  5.07E-07,  avg # of iterations =  1.0

     total cpu time spent up to now is       53.4 secs

     total energy              =     -15.71934179 Ry
     estimated scf accuracy    <       0.00002267 Ry

     iteration # 11     ecut=    50.00 Ry     beta= 0.01
     Davidson diagonalization with overlap
     ethr =  2.83E-07,  avg # of iterations =  2.0

     total cpu time spent up to now is       56.9 secs

     total energy              =     -15.71934756 Ry
     estimated scf accuracy    <       0.00000159 Ry

     iteration # 12     ecut=    50.00 Ry     beta= 0.01
     Davidson diagonalization with overlap
     ethr =  1.98E-08,  avg # of iterations =  2.2

     total cpu time spent up to now is       60.1 secs

     total energy              =     -15.71934710 Ry
     estimated scf accuracy    <       0.00000116 Ry

     iteration # 13     ecut=    50.00 Ry     beta= 0.01
     Davidson diagonalization with overlap
     ethr =  1.45E-08,  avg # of iterations =  1.9

     total cpu time spent up to now is       63.0 secs

     End of self-consistent calculation

          k = 0.0000 0.0000 0.0000 (  1917 PWs)   bands (ev):

    -6.8947   4.2091   4.2091   4.2091

          k =-0.1000 0.1000-0.1000 (  1959 PWs)   bands (ev):

    -6.7781   3.0870   4.0484   4.0484

          k =-0.2000 0.2000-0.2000 (  1943 PWs)   bands (ev):

    -6.4352   1.3782   3.7206   3.7206

          k =-0.3000 0.3000-0.3000 (  1949 PWs)   bands (ev):

    -5.8951  -0.2280   3.4171   3.4171

          k =-0.4000 0.4000-0.4000 (  1937 PWs)   bands (ev):

    -5.2584  -1.5266   3.2186   3.2186

          k = 0.5000-0.5000 0.5000 (  1946 PWs)   bands (ev):

    -4.8959  -2.1128   3.1506   3.1506

          k = 0.0000 0.2000 0.0000 (  1949 PWs)   bands (ev):

    -6.7388   3.1481   3.7535   3.7535

          k =-0.1000 0.3000-0.1000 (  1960 PWs)   bands (ev):

    -6.4699   1.8116   3.3803   3.4771

          k =-0.2000 0.4000-0.2000 (  1948 PWs)   bands (ev):

    -5.9904   0.2486   3.0890   3.0898

          k =-0.3000 0.5000-0.3000 (  1955 PWs)   bands (ev):

    -5.3647  -1.1366   2.7227   2.9433

          k = 0.6000-0.4000 0.6000 (  1958 PWs)   bands (ev):

    -4.8386  -2.0179   2.4716   2.9559

          k = 0.5000-0.3000 0.5000 (  1947 PWs)   bands (ev):

    -4.9721  -1.8112   2.3744   3.1191

          k = 0.4000-0.2000 0.4000 (  1948 PWs)   bands (ev):

    -5.5837  -0.7047   2.4535   3.4056

          k = 0.3000-0.1000 0.3000 (  1944 PWs)   bands (ev):

    -6.1732   0.7508   2.7319   3.7566

          k = 0.2000 0.0000 0.2000 (  1953 PWs)   bands (ev):

    -6.5855   2.1982   3.2871   4.0412

          k = 0.0000 0.4000 0.0000 (  1980 PWs)   bands (ev):

    -6.2751   1.5025   2.9746   2.9746

          k =-0.1000 0.5000-0.1000 (  1956 PWs)   bands (ev):

    -5.8623   0.4037   2.5217   2.6636

          k =-0.2000 0.6000-0.2000 (  1960 PWs)   bands (ev):

    -5.2719  -0.8386   1.9659   2.5119

          k = 0.7000-0.3000 0.7000 (  1946 PWs)   bands (ev):

    -4.6562  -1.8422   1.5171   2.5380

          k = 0.6000-0.2000 0.6000 (  1966 PWs)   bands (ev):

    -4.5367  -2.0091   1.2705   2.7351

          k = 0.5000-0.1000 0.5000 (  1953 PWs)   bands (ev):

    -5.0800  -1.1839   1.2926   3.0704

          k = 0.4000 0.0000 0.4000 (  1947 PWs)   bands (ev):

    -5.7019  -0.0990   1.7251   3.4665

          k = 0.0000 0.6000 0.0000 (  1960 PWs)   bands (ev):

    -5.5156  -0.1575   2.3188   2.3188

          k =-0.1000 0.7000-0.1000 (  1955 PWs)   bands (ev):

    -4.9744  -1.0616   1.8115   2.1326

          k = 0.8000-0.2000 0.8000 (  1952 PWs)   bands (ev):

    -4.3278  -1.9438   1.1326   2.1312

          k = 0.7000-0.1000 0.7000 (  1936 PWs)   bands (ev):

    -3.9939  -2.3324   0.6751   2.3132

          k = 0.6000-0.0000 0.6000 (  1949 PWs)   bands (ev):

    -4.4525  -1.8128   0.6607   2.6508

          k = 0.0000 0.8000 0.0000 (  1968 PWs)   bands (ev):

    -4.4822  -1.7485   1.9021   1.9021

          k = 0.9000-0.1000 0.9000 (  1963 PWs)   bands (ev):

    -3.8414  -2.5045   1.4513   1.8561

          k = 0.8000 0.0000 0.8000 (  1930 PWs)   bands (ev):

    -3.4627  -2.8589   0.8385   1.9999

          k = 0.0000-1.0000 0.0000 (  1964 PWs)   bands (ev):

    -3.2101  -3.2101   1.7603   1.7603

          k =-0.2000 0.4000 0.0000 (  1951 PWs)   bands (ev):

    -6.1299   0.8995   2.5019   3.3664

          k =-0.3000 0.5000-0.1000 (  1945 PWs)   bands (ev):

    -5.5929  -0.3446   1.9569   3.0559

          k = 0.6000-0.4000 0.8000 (  1943 PWs)   bands (ev):

    -4.9538  -1.5145   1.7098   2.7676

          k = 0.5000-0.3000 0.7000 (  1958 PWs)   bands (ev):

    -4.5820  -2.0759   1.6402   2.6552

          k =-0.2000 0.6000 0.0000 (  1950 PWs)   bands (ev):

    -5.3872  -0.4507   1.8655   2.4507

          k = 0.7000-0.3000 0.9000 (  1944 PWs)   bands (ev):

    -4.7612  -1.4236   1.3287   2.1879

          k = 0.6000-0.2000 0.8000 (  1944 PWs)   bands (ev):

    -4.2209  -2.1441   0.9699   2.1412

          k = 0.5000-0.1000 0.7000 (  1946 PWs)   bands (ev):

    -4.3903  -1.9272   0.8603   2.3385

          k = 0.4000 0.0000 0.6000 (  1954 PWs)   bands (ev):

    -5.0166  -1.1007   1.1396   2.7005

          k = 0.8000-0.2000 1.0000 (  1961 PWs)   bands (ev):

    -4.3862  -1.8325   1.5045   1.7831

          k = 0.7000-0.1000 0.9000 (  1950 PWs)   bands (ev):

    -3.7543  -2.5246   0.9526   1.7077

          k = 0.6000 0.0000 0.8000 (  1937 PWs)   bands (ev):

    -3.7851  -2.4781   0.6164   1.9344

          k =-0.2000-1.0000 0.0000 (  1948 PWs)   bands (ev):

    -3.1760  -3.1760   1.4678   1.4678

          k = 0.6000-0.2000 1.0000 (  1944 PWs)   bands (ev):

    -4.1260  -2.0949   0.8979   1.7315

          k = 0.5000-0.1000 0.9000 (  1938 PWs)   bands (ev):

    -3.6936  -2.5461   0.7724   1.5261

          k =-0.4000-1.0000 0.0000 (  1934 PWs)   bands (ev):

    -3.1176  -3.1176   1.0836   1.0836

     highest occupied level (ev):     4.2091

!    total energy              =     -15.71934659 Ry
     estimated scf accuracy    <       0.00000091 Ry

     The total energy is the sum of the following terms:
     one-electron contribution =       3.41903079 Ry
     hartree contribution      =       1.26970295 Ry
     xc contribution           =      -4.63890944 Ry
     ewald contribution        =     -15.76917089 Ry

     convergence has been achieved in  13 iterations
     Writing meta-gga kinetic term

     Writing all to output data dir ./input_pw/Si/10/pwscf.save/
     Writing meta-gga kinetic term
 
     init_run     :      4.12s CPU      7.99s WALL (       1 calls)
     electrons    :     37.64s CPU     55.00s WALL (       1 calls)

     Called by init_run:
     wfcinit      :      4.00s CPU      7.65s WALL (       1 calls)
     potinit      :      0.04s CPU      0.13s WALL (       1 calls)
     hinit0       :      0.07s CPU      0.16s WALL (       1 calls)

     Called by electrons:
     c_bands      :     30.12s CPU     44.15s WALL (      14 calls)
     sum_band     :      6.81s CPU      9.79s WALL (      14 calls)
     v_of_rho     :      0.43s CPU      0.70s WALL (      14 calls)
     mix_rho      :      0.30s CPU      0.47s WALL (      14 calls)

     Called by c_bands:
     init_us_2    :      0.33s CPU      0.52s WALL (    1363 calls)
     init_us_2:cp :      0.32s CPU      0.50s WALL (    1363 calls)
     cegterg      :     29.73s CPU     43.52s WALL (     658 calls)

     Called by *egterg:
     cdiaghg      :      0.11s CPU      0.16s WALL (    1645 calls)
     h_psi        :     33.09s CPU     50.04s WALL (    1739 calls)
     g_psi        :      0.02s CPU      0.05s WALL (    1034 calls)

     Called by h_psi:
     h_psi:calbec :      0.13s CPU      0.17s WALL (    1739 calls)
     vloc_psi     :      8.20s CPU     12.55s WALL (    1739 calls)
     add_vuspsi   :      0.10s CPU      0.14s WALL (    1739 calls)
     h_psi_meta   :     24.61s CPU     37.09s WALL (    1739 calls)

     General routines
     calbec       :      0.12s CPU      0.16s WALL (    1739 calls)
     fft          :      0.09s CPU      0.19s WALL (     167 calls)
     ffts         :      0.12s CPU      0.15s WALL (     228 calls)
     fftw         :     34.36s CPU     51.53s WALL (   67144 calls)
     interpolate  :      0.00s CPU      0.00s WALL (      14 calls)
 
     Parallel routines
 
     PWSCF        :     41.81s CPU   1m 3.07s WALL

 
   This run was terminated on:  12:50:44  21Feb2023            

=------------------------------------------------------------------------------=
   JOB DONE.
=------------------------------------------------------------------------------=
