
     Program PWSCF v.7.0 starts on 29Mar2023 at 11:31: 6 

     This program is part of the open-source Quantum ESPRESSO suite
     for quantum simulation of materials; please cite
         "P. Giannozzi et al., J. Phys.:Condens. Matter 21 395502 (2009);
         "P. Giannozzi et al., J. Phys.:Condens. Matter 29 465901 (2017);
         "P. Giannozzi et al., J. Chem. Phys. 152 154105 (2020);
          URL http://www.quantum-espresso.org", 
     in publications or presentations arising from this work. More details at
     http://www.quantum-espresso.org/quote

     Parallel version (MPI), running on     1 processors

     MPI processes distributed on     1 nodes
     23534 MiB available memory on the printing compute node when the environment starts
 
     Waiting for input...
     Reading input from standard input
Warning: card &CELL ignored
Warning: card / ignored

     Current dimensions of program PWSCF are:
     Max number of different atomic species (ntypx) = 10
     Max number of k-points (npk) =  40000
     Max angular momentum in pseudopotentials (lmaxx) =  4
     file Si.SCAN.UPF2: wavefunction(s)  0D renormalized

     WARNING: the MGGA functional with ID    5 has been 
     read together with other dft terms, but it should 
     stand alone in order to work properly. The other 
     terms will be ignored.

     Subspace diagonalization in iterative solution of the eigenvalue problem:
     a serial algorithm will be used

 
     G-vector sticks info
     --------------------
     sticks:   dense  smooth     PW     G-vecs:    dense   smooth      PW
     Sum         847     847    253                16049    16049    2733
 
     Using Slab Decomposition
 


     bravais-lattice index     =            2
     lattice parameter (alat)  =      11.0239  a.u.
     unit-cell volume          =     334.9242 (a.u.)^3
     number of atoms/cell      =            2
     number of atomic types    =            1
     number of electrons       =         8.00
     number of Kohn-Sham states=            4
     kinetic-energy cutoff     =      50.0000  Ry
     charge density cutoff     =     200.0000  Ry
     scf convergence threshold =      1.0E-06
     mixing beta               =       0.0100
     number of iterations used =            8  local-TF  mixing
     Exchange-correlation= SLA  PW   SCAN SCAN
                           (   0   0   0   0   0 263 267)

     celldm(1)=  11.023906  celldm(2)=   0.000000  celldm(3)=   0.000000
     celldm(4)=   0.000000  celldm(5)=   0.000000  celldm(6)=   0.000000

     crystal axes: (cart. coord. in units of alat)
               a(1) = (  -0.500000   0.000000   0.500000 )  
               a(2) = (   0.000000   0.500000   0.500000 )  
               a(3) = (  -0.500000   0.500000   0.000000 )  

     reciprocal axes: (cart. coord. in units 2 pi/alat)
               b(1) = ( -1.000000 -1.000000  1.000000 )  
               b(2) = (  1.000000  1.000000  1.000000 )  
               b(3) = ( -1.000000  1.000000 -1.000000 )  


     PseudoPot. # 1 for Si read from file:
     ~/Documents/TA/PWDFT.jl/pseudopotentials/scan_upf/Si.SCAN.UPF2
     MD5 check sum: Not computed, couldn't open file
     Pseudo is Norm-conserving, Zval =  4.0
     Generated by new atomic code, or converted to UPF format
     Using radial grid of 1475 points,  2 beta functions with: 
                l(1) =   0
                l(2) =   1

     atomic species   valence    mass     pseudopotential
        Si             4.00    28.08550     Si( 1.00)

     48 Sym. Ops., with inversion, found (24 have fractional translation)



   Cartesian axes

     site n.     atom                  positions (alat units)
         1           Si  tau(   1) = (   0.0000000   0.0000000   0.0000000  )
         2           Si  tau(   2) = (   0.2500000   0.2500000   0.2500000  )

     number of k points=    47
                       cart. coord. in units 2pi/alat
        k(    1) = (   0.0000000   0.0000000   0.0000000), wk =   0.0020000
        k(    2) = (  -0.1000000   0.1000000  -0.1000000), wk =   0.0160000
        k(    3) = (  -0.2000000   0.2000000  -0.2000000), wk =   0.0160000
        k(    4) = (  -0.3000000   0.3000000  -0.3000000), wk =   0.0160000
        k(    5) = (  -0.4000000   0.4000000  -0.4000000), wk =   0.0160000
        k(    6) = (   0.5000000  -0.5000000   0.5000000), wk =   0.0080000
        k(    7) = (   0.0000000   0.2000000   0.0000000), wk =   0.0120000
        k(    8) = (  -0.1000000   0.3000000  -0.1000000), wk =   0.0480000
        k(    9) = (  -0.2000000   0.4000000  -0.2000000), wk =   0.0480000
        k(   10) = (  -0.3000000   0.5000000  -0.3000000), wk =   0.0480000
        k(   11) = (   0.6000000  -0.4000000   0.6000000), wk =   0.0480000
        k(   12) = (   0.5000000  -0.3000000   0.5000000), wk =   0.0480000
        k(   13) = (   0.4000000  -0.2000000   0.4000000), wk =   0.0480000
        k(   14) = (   0.3000000  -0.1000000   0.3000000), wk =   0.0480000
        k(   15) = (   0.2000000   0.0000000   0.2000000), wk =   0.0240000
        k(   16) = (   0.0000000   0.4000000   0.0000000), wk =   0.0120000
        k(   17) = (  -0.1000000   0.5000000  -0.1000000), wk =   0.0480000
        k(   18) = (  -0.2000000   0.6000000  -0.2000000), wk =   0.0480000
        k(   19) = (   0.7000000  -0.3000000   0.7000000), wk =   0.0480000
        k(   20) = (   0.6000000  -0.2000000   0.6000000), wk =   0.0480000
        k(   21) = (   0.5000000  -0.1000000   0.5000000), wk =   0.0480000
        k(   22) = (   0.4000000   0.0000000   0.4000000), wk =   0.0240000
        k(   23) = (   0.0000000   0.6000000   0.0000000), wk =   0.0120000
        k(   24) = (  -0.1000000   0.7000000  -0.1000000), wk =   0.0480000
        k(   25) = (   0.8000000  -0.2000000   0.8000000), wk =   0.0480000
        k(   26) = (   0.7000000  -0.1000000   0.7000000), wk =   0.0480000
        k(   27) = (   0.6000000  -0.0000000   0.6000000), wk =   0.0240000
        k(   28) = (   0.0000000   0.8000000   0.0000000), wk =   0.0120000
        k(   29) = (   0.9000000  -0.1000000   0.9000000), wk =   0.0480000
        k(   30) = (   0.8000000   0.0000000   0.8000000), wk =   0.0240000
        k(   31) = (   0.0000000  -1.0000000   0.0000000), wk =   0.0060000
        k(   32) = (  -0.2000000   0.4000000   0.0000000), wk =   0.0480000
        k(   33) = (  -0.3000000   0.5000000  -0.1000000), wk =   0.0960000
        k(   34) = (   0.6000000  -0.4000000   0.8000000), wk =   0.0960000
        k(   35) = (   0.5000000  -0.3000000   0.7000000), wk =   0.0480000
        k(   36) = (  -0.2000000   0.6000000   0.0000000), wk =   0.0480000
        k(   37) = (   0.7000000  -0.3000000   0.9000000), wk =   0.0960000
        k(   38) = (   0.6000000  -0.2000000   0.8000000), wk =   0.0960000
        k(   39) = (   0.5000000  -0.1000000   0.7000000), wk =   0.0960000
        k(   40) = (   0.4000000   0.0000000   0.6000000), wk =   0.0480000
        k(   41) = (   0.8000000  -0.2000000   1.0000000), wk =   0.0480000
        k(   42) = (   0.7000000  -0.1000000   0.9000000), wk =   0.0960000
        k(   43) = (   0.6000000   0.0000000   0.8000000), wk =   0.0480000
        k(   44) = (  -0.2000000  -1.0000000   0.0000000), wk =   0.0240000
        k(   45) = (   0.6000000  -0.2000000   1.0000000), wk =   0.0480000
        k(   46) = (   0.5000000  -0.1000000   0.9000000), wk =   0.0480000
        k(   47) = (  -0.4000000  -1.0000000   0.0000000), wk =   0.0240000

     Dense  grid:    16049 G-vectors     FFT dimensions: (  36,  36,  36)

     Estimated max dynamical RAM per process >      29.72 MB

     WARNING: libxc functional with ID  263 depends
      on external parameters: check the user_guide of
      QE if you need to modify them or to check their
      default values.

     Initial potential from superposition of free atoms

     starting charge       7.9990, renormalised to       8.0000
     Starting wfcs are   18 randomized atomic wfcs

     total cpu time spent up to now is        9.2 secs

     Self-consistent Calculation

     iteration #  1     ecut=    50.00 Ry     beta= 0.01
     Davidson diagonalization with overlap
     ethr =  1.00E-02,  avg # of iterations =  1.6

     Threshold (ethr) on eigenvalues was too large:
     Diagonalizing with lowered threshold

     Davidson diagonalization with overlap
     ethr =  5.55E-04,  avg # of iterations =  1.9

     total cpu time spent up to now is       20.9 secs

     total energy              =     -15.64229696 Ry
     estimated scf accuracy    <       0.04694953 Ry

     iteration #  2     ecut=    50.00 Ry     beta= 0.01
     Davidson diagonalization with overlap
     ethr =  5.87E-04,  avg # of iterations =  1.0

     total cpu time spent up to now is       26.7 secs

     total energy              =     -15.65253787 Ry
     estimated scf accuracy    <       0.04686759 Ry

     iteration #  3     ecut=    50.00 Ry     beta= 0.01
     Davidson diagonalization with overlap
     ethr =  5.86E-04,  avg # of iterations =  1.0

     total cpu time spent up to now is       31.9 secs

     total energy              =     -15.70891147 Ry
     estimated scf accuracy    <       0.03900104 Ry

     iteration #  4     ecut=    50.00 Ry     beta= 0.01
     Davidson diagonalization with overlap
     ethr =  4.88E-04,  avg # of iterations =  1.0

     total cpu time spent up to now is       36.7 secs

     total energy              =     -15.71127306 Ry
     estimated scf accuracy    <       0.00380584 Ry

     iteration #  5     ecut=    50.00 Ry     beta= 0.01
     Davidson diagonalization with overlap
     ethr =  4.76E-05,  avg # of iterations =  2.0

     total cpu time spent up to now is       41.4 secs

     total energy              =     -15.71206109 Ry
     estimated scf accuracy    <       0.00441953 Ry

     iteration #  6     ecut=    50.00 Ry     beta= 0.01
     Davidson diagonalization with overlap
     ethr =  4.76E-05,  avg # of iterations =  1.0

     total cpu time spent up to now is       44.5 secs

     total energy              =     -15.71100632 Ry
     estimated scf accuracy    <       0.00585211 Ry

     iteration #  7     ecut=    50.00 Ry     beta= 0.01
     Davidson diagonalization with overlap
     ethr =  4.76E-05,  avg # of iterations =  2.0

     total cpu time spent up to now is       48.4 secs

     total energy              =     -15.71159465 Ry
     estimated scf accuracy    <       0.00009638 Ry

     iteration #  8     ecut=    50.00 Ry     beta= 0.01
     Davidson diagonalization with overlap
     ethr =  1.20E-06,  avg # of iterations =  2.6

     total cpu time spent up to now is       52.2 secs

     total energy              =     -15.71162498 Ry
     estimated scf accuracy    <       0.00005547 Ry

     iteration #  9     ecut=    50.00 Ry     beta= 0.01
     Davidson diagonalization with overlap
     ethr =  6.93E-07,  avg # of iterations =  1.0

     total cpu time spent up to now is       54.7 secs

     total energy              =     -15.71165216 Ry
     estimated scf accuracy    <       0.00005010 Ry

     iteration # 10     ecut=    50.00 Ry     beta= 0.01
     Davidson diagonalization with overlap
     ethr =  6.26E-07,  avg # of iterations =  2.0

     total cpu time spent up to now is       58.0 secs

     total energy              =     -15.71166563 Ry
     estimated scf accuracy    <       0.00000873 Ry

     iteration # 11     ecut=    50.00 Ry     beta= 0.01
     Davidson diagonalization with overlap
     ethr =  1.09E-07,  avg # of iterations =  2.0

     total cpu time spent up to now is       62.1 secs

     total energy              =     -15.71166679 Ry
     estimated scf accuracy    <       0.00000164 Ry

     iteration # 12     ecut=    50.00 Ry     beta= 0.01
     Davidson diagonalization with overlap
     ethr =  2.05E-08,  avg # of iterations =  1.1

     total cpu time spent up to now is       65.1 secs

     total energy              =     -15.71166647 Ry
     estimated scf accuracy    <       0.00000122 Ry

     iteration # 13     ecut=    50.00 Ry     beta= 0.01
     Davidson diagonalization with overlap
     ethr =  1.52E-08,  avg # of iterations =  2.1

     total cpu time spent up to now is       68.8 secs

     End of self-consistent calculation

          k = 0.0000 0.0000 0.0000 (  1989 PWs)   bands (ev):

    -6.9671   3.9952   3.9952   3.9952

          k =-0.1000 0.1000-0.1000 (  2004 PWs)   bands (ev):

    -6.8531   2.8548   3.8383   3.8383

          k =-0.2000 0.2000-0.2000 (  1994 PWs)   bands (ev):

    -6.5180   1.1691   3.5171   3.5171

          k =-0.3000 0.3000-0.3000 (  2006 PWs)   bands (ev):

    -5.9909  -0.4056   3.2188   3.2188

          k =-0.4000 0.4000-0.4000 (  2000 PWs)   bands (ev):

    -5.3720  -1.6741   3.0233   3.0233

          k = 0.5000-0.5000 0.5000 (  2006 PWs)   bands (ev):

    -5.0221  -2.2434   2.9563   2.9563

          k = 0.0000 0.2000 0.0000 (  2017 PWs)   bands (ev):

    -6.8147   2.8945   3.5520   3.5520

          k =-0.1000 0.3000-0.1000 (  2000 PWs)   bands (ev):

    -6.5518   1.5828   3.1871   3.2734

          k =-0.2000 0.4000-0.2000 (  2001 PWs)   bands (ev):

    -6.0835   0.0536   2.8899   2.9016

          k =-0.3000 0.5000-0.3000 (  1992 PWs)   bands (ev):

    -5.4741  -1.2992   2.5299   2.7568

          k = 0.6000-0.4000 0.6000 (  1996 PWs)   bands (ev):

    -4.9651  -2.1560   2.2844   2.7676

          k = 0.5000-0.3000 0.5000 (  1994 PWs)   bands (ev):

    -5.0938  -1.9556   2.1914   2.9263

          k = 0.4000-0.2000 0.4000 (  1992 PWs)   bands (ev):

    -5.6872  -0.8778   2.2726   3.2062

          k = 0.3000-0.1000 0.3000 (  1990 PWs)   bands (ev):

    -6.2620   0.5445   2.5506   3.5498

          k = 0.2000 0.0000 0.2000 (  2003 PWs)   bands (ev):

    -6.6648   1.9653   3.0980   3.8290

          k = 0.0000 0.4000 0.0000 (  2001 PWs)   bands (ev):

    -6.3612   1.2580   2.7911   2.7911

          k =-0.1000 0.5000-0.1000 (  2005 PWs)   bands (ev):

    -5.9578   0.1836   2.3446   2.4863

          k =-0.2000 0.6000-0.2000 (  1984 PWs)   bands (ev):

    -5.3819  -1.0267   1.7979   2.3367

          k = 0.7000-0.3000 0.7000 (  2001 PWs)   bands (ev):

    -4.7842  -2.0018   1.3579   2.3611

          k = 0.6000-0.2000 0.6000 (  1993 PWs)   bands (ev):

    -4.6694  -2.1627   1.1187   2.5528

          k = 0.5000-0.1000 0.5000 (  1998 PWs)   bands (ev):

    -5.1959  -1.3621   1.1459   2.8798

          k = 0.4000 0.0000 0.4000 (  1997 PWs)   bands (ev):

    -5.8018  -0.3020   1.5732   3.2662

          k = 0.0000 0.6000 0.0000 (  2000 PWs)   bands (ev):

    -5.6185  -0.3755   2.1490   2.1490

          k =-0.1000 0.7000-0.1000 (  2010 PWs)   bands (ev):

    -5.0900  -1.2609   1.6554   1.9664

          k = 0.8000-0.2000 0.8000 (  2004 PWs)   bands (ev):

    -4.4604  -2.1220   0.9953   1.9643

          k = 0.7000-0.1000 0.7000 (  1998 PWs)   bands (ev):

    -4.1386  -2.4979   0.5512   2.1415

          k = 0.6000-0.0000 0.6000 (  1999 PWs)   bands (ev):

    -4.5846  -1.9895   0.5378   2.4708

          k = 0.0000 0.8000 0.0000 (  1996 PWs)   bands (ev):

    -4.6083  -1.9348   1.7408   1.7408

          k = 0.9000-0.1000 0.9000 (  2011 PWs)   bands (ev):

    -3.9826  -2.6750   1.3048   1.6955

          k = 0.8000 0.0000 0.8000 (  2008 PWs)   bands (ev):

    -3.6178  -3.0190   0.7126   1.8357

          k = 0.0000-1.0000 0.0000 (  2012 PWs)   bands (ev):

    -3.3646  -3.3646   1.6017   1.6017

          k =-0.2000 0.4000 0.0000 (  1997 PWs)   bands (ev):

    -6.2195   0.6772   2.3311   3.1673

          k =-0.3000 0.5000-0.1000 (  1995 PWs)   bands (ev):

    -5.6954  -0.5395   1.7934   2.8653

          k = 0.6000-0.4000 0.8000 (  1996 PWs)   bands (ev):

    -5.0737  -1.6782   1.5451   2.5854

          k = 0.5000-0.3000 0.7000 (  2006 PWs)   bands (ev):

    -4.7145  -2.2221   1.4743   2.4765

          k =-0.2000 0.6000 0.0000 (  2006 PWs)   bands (ev):

    -5.4937  -0.6588   1.7088   2.2774

          k = 0.7000-0.3000 0.9000 (  1999 PWs)   bands (ev):

    -4.8835  -1.6097   1.1834   2.0229

          k = 0.6000-0.2000 0.8000 (  2005 PWs)   bands (ev):

    -4.3598  -2.3090   0.8322   1.9776

          k = 0.5000-0.1000 0.7000 (  1992 PWs)   bands (ev):

    -4.5243  -2.0983   0.7277   2.1690

          k = 0.4000 0.0000 0.6000 (  1996 PWs)   bands (ev):

    -5.1333  -1.2912   1.0025   2.5207

          k = 0.8000-0.2000 1.0000 (  2000 PWs)   bands (ev):

    -4.5156  -2.0176   1.3562   1.6287

          k = 0.7000-0.1000 0.9000 (  2004 PWs)   bands (ev):

    -3.9008  -2.6947   0.8227   1.5551

          k = 0.6000 0.0000 0.8000 (  1999 PWs)   bands (ev):

    -3.9340  -2.6463   0.4969   1.7757

          k =-0.2000-1.0000 0.0000 (  2014 PWs)   bands (ev):

    -3.3328  -3.3328   1.3210   1.3210

          k = 0.6000-0.2000 1.0000 (  1994 PWs)   bands (ev):

    -4.2644  -2.2736   0.7685   1.5811

          k = 0.5000-0.1000 0.9000 (  1996 PWs)   bands (ev):

    -3.8440  -2.7149   0.6474   1.3817

          k =-0.4000-1.0000 0.0000 (  1990 PWs)   bands (ev):

    -3.2786  -3.2786   0.9514   0.9514

     highest occupied level (ev):     3.9952

!    total energy              =     -15.71166678 Ry
     estimated scf accuracy    <       0.00000001 Ry

     The total energy is the sum of the following terms:
     one-electron contribution =       3.24689302 Ry
     hartree contribution      =       1.29121732 Ry
     xc contribution           =      -4.61307514 Ry
     ewald contribution        =     -15.63670198 Ry

     convergence has been achieved in  13 iterations
     Writing meta-gga kinetic term

     Writing all to output data dir ./input_pw/Si/10/pwscf.save/
     Writing meta-gga kinetic term
 
     init_run     :      4.16s CPU      9.15s WALL (       1 calls)
     electrons    :     39.32s CPU     59.56s WALL (       1 calls)

     Called by init_run:
     wfcinit      :      4.05s CPU      8.83s WALL (       1 calls)
     potinit      :      0.03s CPU      0.19s WALL (       1 calls)
     hinit0       :      0.07s CPU      0.10s WALL (       1 calls)

     Called by electrons:
     c_bands      :     31.61s CPU     47.40s WALL (      14 calls)
     sum_band     :      6.98s CPU     11.10s WALL (      14 calls)
     v_of_rho     :      0.42s CPU      0.77s WALL (      14 calls)
     mix_rho      :      0.31s CPU      0.43s WALL (      14 calls)

     Called by c_bands:
     init_us_2    :      0.34s CPU      0.59s WALL (    1363 calls)
     init_us_2:cp :      0.33s CPU      0.57s WALL (    1363 calls)
     cegterg      :     31.21s CPU     46.80s WALL (     658 calls)

     Called by *egterg:
     cdiaghg      :      0.11s CPU      0.14s WALL (    1657 calls)
     h_psi        :     34.57s CPU     54.52s WALL (    1751 calls)
     g_psi        :      0.02s CPU      0.02s WALL (    1046 calls)

     Called by h_psi:
     h_psi:calbec :      0.14s CPU      0.18s WALL (    1751 calls)
     vloc_psi     :      8.55s CPU     13.76s WALL (    1751 calls)
     add_vuspsi   :      0.11s CPU      0.16s WALL (    1751 calls)
     h_psi_meta   :     25.71s CPU     40.30s WALL (    1751 calls)

     General routines
     calbec       :      0.13s CPU      0.17s WALL (    1751 calls)
     fft          :      0.09s CPU      0.15s WALL (     167 calls)
     ffts         :      0.12s CPU      0.16s WALL (     228 calls)
     fftw         :     35.55s CPU     56.51s WALL (   68592 calls)
     interpolate  :      0.00s CPU      0.00s WALL (      14 calls)
 
     Parallel routines
 
     PWSCF        :     43.52s CPU   1m 8.79s WALL

 
   This run was terminated on:  11:32:15  29Mar2023            

=------------------------------------------------------------------------------=
   JOB DONE.
=------------------------------------------------------------------------------=
