
     Program PWSCF v.7.0 starts on 14Mar2023 at 14:31: 8 

     This program is part of the open-source Quantum ESPRESSO suite
     for quantum simulation of materials; please cite
         "P. Giannozzi et al., J. Phys.:Condens. Matter 21 395502 (2009);
         "P. Giannozzi et al., J. Phys.:Condens. Matter 29 465901 (2017);
         "P. Giannozzi et al., J. Chem. Phys. 152 154105 (2020);
          URL http://www.quantum-espresso.org", 
     in publications or presentations arising from this work. More details at
     http://www.quantum-espresso.org/quote

     Parallel version (MPI), running on     1 processors

     MPI processes distributed on     1 nodes
     26170 MiB available memory on the printing compute node when the environment starts
 
     Waiting for input...
     Reading input from standard input
Warning: card &CELL ignored
Warning: card / ignored

     Current dimensions of program PWSCF are:
     Max number of different atomic species (ntypx) = 10
     Max number of k-points (npk) =  40000
     Max angular momentum in pseudopotentials (lmaxx) =  4
     file Cl.SCAN.UPF2: wavefunction(s)  0D renormalized

     WARNING: the MGGA functional with ID    5 has been 
     read together with other dft terms, but it should 
     stand alone in order to work properly. The other 
     terms will be ignored.

     WARNING: the MGGA functional with ID    5 has been 
     read together with other dft terms, but it should 
     stand alone in order to work properly. The other 
     terms will be ignored.

     Subspace diagonalization in iterative solution of the eigenvalue problem:
     a serial algorithm will be used

 
     G-vector sticks info
     --------------------
     sticks:   dense  smooth     PW     G-vecs:    dense   smooth      PW
     Sum         559     559    187                 8801     8801    1591
 
     Using Slab Decomposition
 


     bravais-lattice index     =            2
     lattice parameter (alat)  =       9.0370  a.u.
     unit-cell volume          =     184.5070 (a.u.)^3
     number of atoms/cell      =            2
     number of atomic types    =            2
     number of electrons       =         8.00
     number of Kohn-Sham states=            4
     kinetic-energy cutoff     =      50.0000  Ry
     charge density cutoff     =     200.0000  Ry
     scf convergence threshold =      1.0E-06
     mixing beta               =       0.0100
     number of iterations used =            8  local-TF  mixing
     Exchange-correlation= SLA  PW   SCAN SCAN
                           (   0   0   0   0   0 263 267)

     celldm(1)=   9.037000  celldm(2)=   0.000000  celldm(3)=   0.000000
     celldm(4)=   0.000000  celldm(5)=   0.000000  celldm(6)=   0.000000

     crystal axes: (cart. coord. in units of alat)
               a(1) = (  -0.500000   0.000000   0.500000 )  
               a(2) = (   0.000000   0.500000   0.500000 )  
               a(3) = (  -0.500000   0.500000   0.000000 )  

     reciprocal axes: (cart. coord. in units 2 pi/alat)
               b(1) = ( -1.000000 -1.000000  1.000000 )  
               b(2) = (  1.000000  1.000000  1.000000 )  
               b(3) = ( -1.000000  1.000000 -1.000000 )  


     PseudoPot. # 1 for Li read from file:
     ~/Documents/TA/PWDFT.jl/pseudopotentials/scan_upf/Li.SCAN.UPF2
     MD5 check sum: Not computed, couldn't open file
     Pseudo is Norm-conserving, Zval =  1.0
     Generated by new atomic code, or converted to UPF format
     Using radial grid of 1321 points,  1 beta functions with: 
                l(1) =   0

     PseudoPot. # 2 for Cl read from file:
     ~/Documents/TA/PWDFT.jl/pseudopotentials/scan_upf/Cl.SCAN.UPF2
     MD5 check sum: Not computed, couldn't open file
     Pseudo is Norm-conserving, Zval =  7.0
     Generated by new atomic code, or converted to UPF format
     Using radial grid of 1493 points,  2 beta functions with: 
                l(1) =   0
                l(2) =   1

     atomic species   valence    mass     pseudopotential
        Na             1.00     6.94100     Li( 1.00)
        Cl             7.00    35.45300     Cl( 1.00)

     48 Sym. Ops., with inversion, found



   Cartesian axes

     site n.     atom                  positions (alat units)
         1           Na  tau(   1) = (   0.0000000   0.0000000   0.0000000  )
         2           Cl  tau(   2) = (   0.5000000   0.5000000   0.5000000  )

     number of k points=    47
                       cart. coord. in units 2pi/alat
        k(    1) = (   0.0000000   0.0000000   0.0000000), wk =   0.0020000
        k(    2) = (  -0.1000000   0.1000000  -0.1000000), wk =   0.0160000
        k(    3) = (  -0.2000000   0.2000000  -0.2000000), wk =   0.0160000
        k(    4) = (  -0.3000000   0.3000000  -0.3000000), wk =   0.0160000
        k(    5) = (  -0.4000000   0.4000000  -0.4000000), wk =   0.0160000
        k(    6) = (   0.5000000  -0.5000000   0.5000000), wk =   0.0080000
        k(    7) = (   0.0000000   0.2000000   0.0000000), wk =   0.0120000
        k(    8) = (  -0.1000000   0.3000000  -0.1000000), wk =   0.0480000
        k(    9) = (  -0.2000000   0.4000000  -0.2000000), wk =   0.0480000
        k(   10) = (  -0.3000000   0.5000000  -0.3000000), wk =   0.0480000
        k(   11) = (   0.6000000  -0.4000000   0.6000000), wk =   0.0480000
        k(   12) = (   0.5000000  -0.3000000   0.5000000), wk =   0.0480000
        k(   13) = (   0.4000000  -0.2000000   0.4000000), wk =   0.0480000
        k(   14) = (   0.3000000  -0.1000000   0.3000000), wk =   0.0480000
        k(   15) = (   0.2000000   0.0000000   0.2000000), wk =   0.0240000
        k(   16) = (   0.0000000   0.4000000   0.0000000), wk =   0.0120000
        k(   17) = (  -0.1000000   0.5000000  -0.1000000), wk =   0.0480000
        k(   18) = (  -0.2000000   0.6000000  -0.2000000), wk =   0.0480000
        k(   19) = (   0.7000000  -0.3000000   0.7000000), wk =   0.0480000
        k(   20) = (   0.6000000  -0.2000000   0.6000000), wk =   0.0480000
        k(   21) = (   0.5000000  -0.1000000   0.5000000), wk =   0.0480000
        k(   22) = (   0.4000000   0.0000000   0.4000000), wk =   0.0240000
        k(   23) = (   0.0000000   0.6000000   0.0000000), wk =   0.0120000
        k(   24) = (  -0.1000000   0.7000000  -0.1000000), wk =   0.0480000
        k(   25) = (   0.8000000  -0.2000000   0.8000000), wk =   0.0480000
        k(   26) = (   0.7000000  -0.1000000   0.7000000), wk =   0.0480000
        k(   27) = (   0.6000000  -0.0000000   0.6000000), wk =   0.0240000
        k(   28) = (   0.0000000   0.8000000   0.0000000), wk =   0.0120000
        k(   29) = (   0.9000000  -0.1000000   0.9000000), wk =   0.0480000
        k(   30) = (   0.8000000   0.0000000   0.8000000), wk =   0.0240000
        k(   31) = (   0.0000000  -1.0000000   0.0000000), wk =   0.0060000
        k(   32) = (  -0.2000000   0.4000000   0.0000000), wk =   0.0480000
        k(   33) = (  -0.3000000   0.5000000  -0.1000000), wk =   0.0960000
        k(   34) = (   0.6000000  -0.4000000   0.8000000), wk =   0.0960000
        k(   35) = (   0.5000000  -0.3000000   0.7000000), wk =   0.0480000
        k(   36) = (  -0.2000000   0.6000000   0.0000000), wk =   0.0480000
        k(   37) = (   0.7000000  -0.3000000   0.9000000), wk =   0.0960000
        k(   38) = (   0.6000000  -0.2000000   0.8000000), wk =   0.0960000
        k(   39) = (   0.5000000  -0.1000000   0.7000000), wk =   0.0960000
        k(   40) = (   0.4000000   0.0000000   0.6000000), wk =   0.0480000
        k(   41) = (   0.8000000  -0.2000000   1.0000000), wk =   0.0480000
        k(   42) = (   0.7000000  -0.1000000   0.9000000), wk =   0.0960000
        k(   43) = (   0.6000000   0.0000000   0.8000000), wk =   0.0480000
        k(   44) = (  -0.2000000  -1.0000000   0.0000000), wk =   0.0240000
        k(   45) = (   0.6000000  -0.2000000   1.0000000), wk =   0.0480000
        k(   46) = (   0.5000000  -0.1000000   0.9000000), wk =   0.0480000
        k(   47) = (  -0.4000000  -1.0000000   0.0000000), wk =   0.0240000

     Dense  grid:     8801 G-vectors     FFT dimensions: (  30,  30,  30)

     Estimated max dynamical RAM per process >      16.84 MB

     WARNING: libxc functional with ID  263 depends
      on external parameters: check the user_guide of
      QE if you need to modify them or to check their
      default values.

     Initial potential from superposition of free atoms

     starting charge       7.9953, renormalised to       8.0000
     Starting wfcs are   13 randomized atomic wfcs

     total cpu time spent up to now is        4.5 secs

     Self-consistent Calculation

     iteration #  1     ecut=    50.00 Ry     beta= 0.01
     Davidson diagonalization with overlap
     ethr =  1.00E-02,  avg # of iterations =  1.0

     total cpu time spent up to now is        7.8 secs

     total energy              =     -30.63499399 Ry
     estimated scf accuracy    <       0.35740918 Ry

     iteration #  2     ecut=    50.00 Ry     beta= 0.01
     Davidson diagonalization with overlap
     ethr =  4.47E-03,  avg # of iterations =  1.0

     total cpu time spent up to now is       11.0 secs

     total energy              =     -30.65749216 Ry
     estimated scf accuracy    <       0.33987712 Ry

     iteration #  3     ecut=    50.00 Ry     beta= 0.01
     Davidson diagonalization with overlap
     ethr =  4.25E-03,  avg # of iterations =  1.0

     total cpu time spent up to now is       14.3 secs

     total energy              =     -30.72038190 Ry
     estimated scf accuracy    <       0.26015203 Ry

     iteration #  4     ecut=    50.00 Ry     beta= 0.01
     Davidson diagonalization with overlap
     ethr =  3.25E-03,  avg # of iterations =  1.0

     total cpu time spent up to now is       17.5 secs

     total energy              =     -30.72285100 Ry
     estimated scf accuracy    <       0.00375616 Ry

     iteration #  5     ecut=    50.00 Ry     beta= 0.01
     Davidson diagonalization with overlap
     ethr =  4.70E-05,  avg # of iterations =  1.0

     total cpu time spent up to now is       20.7 secs

     total energy              =     -30.72294715 Ry
     estimated scf accuracy    <       0.00362147 Ry

     iteration #  6     ecut=    50.00 Ry     beta= 0.01
     Davidson diagonalization with overlap
     ethr =  4.53E-05,  avg # of iterations =  1.0

     total cpu time spent up to now is       23.9 secs

     total energy              =     -30.72173744 Ry
     estimated scf accuracy    <       0.00348165 Ry

     iteration #  7     ecut=    50.00 Ry     beta= 0.01
     Davidson diagonalization with overlap
     ethr =  4.35E-05,  avg # of iterations =  2.0

     total cpu time spent up to now is       28.5 secs

     total energy              =     -30.72249390 Ry
     estimated scf accuracy    <       0.00041376 Ry

     iteration #  8     ecut=    50.00 Ry     beta= 0.01
     Davidson diagonalization with overlap
     ethr =  5.17E-06,  avg # of iterations =  2.0

     total cpu time spent up to now is       32.6 secs

     total energy              =     -30.72279729 Ry
     estimated scf accuracy    <       0.00193291 Ry

     iteration #  9     ecut=    50.00 Ry     beta= 0.01
     Davidson diagonalization with overlap
     ethr =  5.17E-06,  avg # of iterations =  1.0

     total cpu time spent up to now is       35.3 secs

     total energy              =     -30.72222182 Ry
     estimated scf accuracy    <       0.00323500 Ry

     iteration # 10     ecut=    50.00 Ry     beta= 0.01
     Davidson diagonalization with overlap
     ethr =  5.17E-06,  avg # of iterations =  2.0

     total cpu time spent up to now is       39.0 secs

     total energy              =     -30.72234350 Ry
     estimated scf accuracy    <       0.00009619 Ry

     iteration # 11     ecut=    50.00 Ry     beta= 0.01
     Davidson diagonalization with overlap
     ethr =  1.20E-06,  avg # of iterations =  1.0

     total cpu time spent up to now is       41.7 secs

     total energy              =     -30.72234839 Ry
     estimated scf accuracy    <       0.00001257 Ry

     iteration # 12     ecut=    50.00 Ry     beta= 0.01
     Davidson diagonalization with overlap
     ethr =  1.57E-07,  avg # of iterations =  1.0

     total cpu time spent up to now is       43.8 secs

     total energy              =     -30.72234743 Ry
     estimated scf accuracy    <       0.00000739 Ry

     iteration # 13     ecut=    50.00 Ry     beta= 0.01
     Davidson diagonalization with overlap
     ethr =  9.24E-08,  avg # of iterations =  1.4

     total cpu time spent up to now is       45.7 secs

     total energy              =     -30.72234805 Ry
     estimated scf accuracy    <       0.00000232 Ry

     iteration # 14     ecut=    50.00 Ry     beta= 0.01
     Davidson diagonalization with overlap
     ethr =  2.90E-08,  avg # of iterations =  2.0

     total cpu time spent up to now is       48.2 secs

     End of self-consistent calculation

          k = 0.0000 0.0000 0.0000 (  1067 PWs)   bands (ev):

   -11.7900   3.0168   3.0168   3.0168

          k =-0.1000 0.1000-0.1000 (  1097 PWs)   bands (ev):

   -11.7093   2.5575   2.9768   2.9768

          k =-0.2000 0.2000-0.2000 (  1098 PWs)   bands (ev):

   -11.4855   1.4937   2.8772   2.8772

          k =-0.3000 0.3000-0.3000 (  1089 PWs)   bands (ev):

   -11.1820   0.3410   2.7632   2.7632

          k =-0.4000 0.4000-0.4000 (  1101 PWs)   bands (ev):

   -10.9095  -0.5218   2.6776   2.6776

          k = 0.5000-0.5000 0.5000 (  1104 PWs)   bands (ev):

   -10.7974  -0.8423   2.6464   2.6464

          k = 0.0000 0.2000 0.0000 (  1098 PWs)   bands (ev):

   -11.6817   2.6412   2.8355   2.8355

          k =-0.1000 0.3000-0.1000 (  1108 PWs)   bands (ev):

   -11.5036   1.8128   2.6588   2.7782

          k =-0.2000 0.4000-0.2000 (  1094 PWs)   bands (ev):

   -11.2220   0.7032   2.5176   2.6375

          k =-0.3000 0.5000-0.3000 (  1105 PWs)   bands (ev):

   -10.9318  -0.2415   2.4359   2.4607

          k = 0.6000-0.4000 0.6000 (  1105 PWs)   bands (ev):

   -10.7592  -0.7350   2.2554   2.5043

          k = 0.5000-0.3000 0.5000 (  1109 PWs)   bands (ev):

   -10.7979  -0.6235   2.1600   2.6319

          k = 0.4000-0.2000 0.4000 (  1101 PWs)   bands (ev):

   -11.0253   0.0548   2.1848   2.8009

          k = 0.3000-0.1000 0.3000 (  1106 PWs)   bands (ev):

   -11.3260   1.0783   2.3393   2.9509

          k = 0.2000 0.0000 0.2000 (  1109 PWs)   bands (ev):

   -11.5800   2.0595   2.6339   3.0210

          k = 0.0000 0.4000 0.0000 (  1106 PWs)   bands (ev):

   -11.3748   1.6582   2.3960   2.3960

          k =-0.1000 0.5000-0.1000 (  1089 PWs)   bands (ev):

   -11.1331   0.8456   2.1716   2.1891

          k =-0.2000 0.6000-0.2000 (  1097 PWs)   bands (ev):

   -10.8559   0.0152   1.8349   2.1037

          k = 0.7000-0.3000 0.7000 (  1103 PWs)   bands (ev):

   -10.6550  -0.4937   1.4688   2.1634

          k = 0.6000-0.2000 0.6000 (  1114 PWs)   bands (ev):

   -10.6318  -0.5055   1.2183   2.3509

          k = 0.5000-0.1000 0.5000 (  1109 PWs)   bands (ev):

   -10.7985  -0.0373   1.1981   2.6088

          k = 0.4000 0.0000 0.4000 (  1093 PWs)   bands (ev):

   -11.0680   0.6008   1.5759   2.8432

          k = 0.0000 0.6000 0.0000 (  1094 PWs)   bands (ev):

   -10.9396   0.4200   1.9092   1.9092

          k =-0.1000 0.7000-0.1000 (  1100 PWs)   bands (ev):

   -10.7031  -0.1655   1.5806   1.7640

          k = 0.8000-0.2000 0.8000 (  1102 PWs)   bands (ev):

   -10.5166  -0.4836   1.0512   1.7908

          k = 0.7000-0.1000 0.7000 (  1111 PWs)   bands (ev):

   -10.4682  -0.3588   0.5124   1.9833

          k = 0.6000-0.0000 0.6000 (  1113 PWs)   bands (ev):

   -10.5816   0.0794   0.2898   2.2900

          k = 0.0000 0.8000 0.0000 (  1094 PWs)   bands (ev):

   -10.5253  -0.6206   1.5513   1.5513

          k = 0.9000-0.1000 0.9000 (  1106 PWs)   bands (ev):

   -10.3958  -0.8476   1.2566   1.5195

          k = 0.8000 0.0000 0.8000 (  1105 PWs)   bands (ev):

   -10.3739  -0.6806   0.7483   1.6759

          k = 0.0000-1.0000 0.0000 (  1106 PWs)   bands (ev):

   -10.3472  -1.0326   1.4218   1.4218

          k =-0.2000 0.4000 0.0000 (  1104 PWs)   bands (ev):

   -11.2936   1.2109   2.1503   2.7275

          k =-0.3000 0.5000-0.1000 (  1093 PWs)   bands (ev):

   -11.0108   0.3661   1.7752   2.5869

          k = 0.6000-0.4000 0.8000 (  1100 PWs)   bands (ev):

   -10.7590  -0.3493   1.6042   2.4102

          k = 0.5000-0.3000 0.7000 (  1108 PWs)   bands (ev):

   -10.6564  -0.6244   1.5588   2.3302

          k =-0.2000 0.6000 0.0000 (  1094 PWs)   bands (ev):

   -10.8914   0.2851   1.6217   2.1189

          k = 0.7000-0.3000 0.9000 (  1095 PWs)   bands (ev):

   -10.6527  -0.2036   1.1651   1.9830

          k = 0.6000-0.2000 0.8000 (  1101 PWs)   bands (ev):

   -10.5215  -0.4014   0.8088   1.9739

          k = 0.5000-0.1000 0.7000 (  1102 PWs)   bands (ev):

   -10.5648  -0.2187   0.6526   2.1390

          k = 0.4000 0.0000 0.6000 (  1103 PWs)   bands (ev):

   -10.7590   0.1057   0.9664   2.3925

          k = 0.8000-0.2000 1.0000 (  1094 PWs)   bands (ev):

   -10.5133  -0.5222   1.2370   1.6301

          k = 0.7000-0.1000 0.9000 (  1106 PWs)   bands (ev):

   -10.4034  -0.5486   0.7321   1.6283

          k = 0.6000 0.0000 0.8000 (  1110 PWs)   bands (ev):

   -10.4248  -0.1842   0.2288   1.8267

          k =-0.2000-1.0000 0.0000 (  1102 PWs)   bands (ev):

   -10.3525  -0.8555   1.0984   1.4571

          k = 0.6000-0.2000 1.0000 (  1099 PWs)   bands (ev):

   -10.4777  -0.2279   0.5318   1.7793

          k = 0.5000-0.1000 0.9000 (  1104 PWs)   bands (ev):

   -10.4081  -0.1297   0.1997   1.6761

          k =-0.4000-1.0000 0.0000 (  1104 PWs)   bands (ev):

   -10.3613  -0.3519   0.3768   1.5145

     highest occupied level (ev):     3.0210

!    total energy              =     -30.72234847 Ry
     estimated scf accuracy    <       0.00000003 Ry

     The total energy is the sum of the following terms:
     one-electron contribution =      -2.09303688 Ry
     hartree contribution      =       4.87473939 Ry
     xc contribution           =      -6.44868254 Ry
     ewald contribution        =     -27.05536844 Ry

     convergence has been achieved in  14 iterations
     Writing meta-gga kinetic term

     Writing all to output data dir ./input_pw/NaCl/8/pwscf.save/
     Writing meta-gga kinetic term
 
     init_run     :      1.73s CPU      4.36s WALL (       1 calls)
     electrons    :     20.21s CPU     43.74s WALL (       1 calls)

     Called by init_run:
     wfcinit      :      1.61s CPU      4.06s WALL (       1 calls)
     potinit      :      0.02s CPU      0.05s WALL (       1 calls)
     hinit0       :      0.09s CPU      0.22s WALL (       1 calls)

     Called by electrons:
     c_bands      :     16.00s CPU     34.47s WALL (      14 calls)
     sum_band     :      3.77s CPU      8.20s WALL (      14 calls)
     v_of_rho     :      0.25s CPU      0.59s WALL (      15 calls)
     mix_rho      :      0.20s CPU      0.49s WALL (      14 calls)

     Called by c_bands:
     init_us_2    :      0.20s CPU      0.41s WALL (    1363 calls)
     init_us_2:cp :      0.19s CPU      0.40s WALL (    1363 calls)
     cegterg      :     15.81s CPU     34.02s WALL (     658 calls)

     Called by *egterg:
     cdiaghg      :      0.09s CPU      0.19s WALL (    1523 calls)
     h_psi        :     17.03s CPU     37.26s WALL (    1570 calls)
     g_psi        :      0.01s CPU      0.03s WALL (     865 calls)

     Called by h_psi:
     h_psi:calbec :      0.06s CPU      0.07s WALL (    1570 calls)
     vloc_psi     :      4.18s CPU      9.41s WALL (    1570 calls)
     add_vuspsi   :      0.05s CPU      0.11s WALL (    1570 calls)
     h_psi_meta   :     12.71s CPU     27.56s WALL (    1570 calls)

     General routines
     calbec       :      0.05s CPU      0.07s WALL (    1570 calls)
     fft          :      0.05s CPU      0.21s WALL (     177 calls)
     ffts         :      0.09s CPU      0.14s WALL (     313 calls)
     fftw         :     18.14s CPU     39.97s WALL (   63328 calls)
     interpolate  :      0.00s CPU      0.00s WALL (      15 calls)
 
     Parallel routines
 
     PWSCF        :     22.00s CPU     48.24s WALL

 
   This run was terminated on:  14:31:56  14Mar2023            

=------------------------------------------------------------------------------=
   JOB DONE.
=------------------------------------------------------------------------------=
