
     Program PWSCF v.7.0 starts on 14Mar2023 at 11:48:15 

     This program is part of the open-source Quantum ESPRESSO suite
     for quantum simulation of materials; please cite
         "P. Giannozzi et al., J. Phys.:Condens. Matter 21 395502 (2009);
         "P. Giannozzi et al., J. Phys.:Condens. Matter 29 465901 (2017);
         "P. Giannozzi et al., J. Chem. Phys. 152 154105 (2020);
          URL http://www.quantum-espresso.org", 
     in publications or presentations arising from this work. More details at
     http://www.quantum-espresso.org/quote

     Parallel version (MPI), running on     1 processors

     MPI processes distributed on     1 nodes
     27528 MiB available memory on the printing compute node when the environment starts
 
     Waiting for input...
     Reading input from standard input
Warning: card &CELL ignored
Warning: card / ignored

     Current dimensions of program PWSCF are:
     Max number of different atomic species (ntypx) = 10
     Max number of k-points (npk) =  40000
     Max angular momentum in pseudopotentials (lmaxx) =  4

     WARNING: the MGGA functional with ID    5 has been 
     read together with other dft terms, but it should 
     stand alone in order to work properly. The other 
     terms will be ignored.

     Subspace diagonalization in iterative solution of the eigenvalue problem:
     a serial algorithm will be used

 
     G-vector sticks info
     --------------------
     sticks:   dense  smooth     PW     G-vecs:    dense   smooth      PW
     Sum         301     301     97                 3383     3383     645
 
     Using Slab Decomposition
 


     bravais-lattice index     =            2
     lattice parameter (alat)  =       6.5335  a.u.
     unit-cell volume          =      69.7228 (a.u.)^3
     number of atoms/cell      =            2
     number of atomic types    =            1
     number of electrons       =         8.00
     number of Kohn-Sham states=            4
     kinetic-energy cutoff     =      50.0000  Ry
     charge density cutoff     =     200.0000  Ry
     scf convergence threshold =      1.0E-06
     mixing beta               =       0.0100
     number of iterations used =            8  local-TF  mixing
     Exchange-correlation= SLA  PW   SCAN SCAN
                           (   0   0   0   0   0 263 267)

     celldm(1)=   6.533486  celldm(2)=   0.000000  celldm(3)=   0.000000
     celldm(4)=   0.000000  celldm(5)=   0.000000  celldm(6)=   0.000000

     crystal axes: (cart. coord. in units of alat)
               a(1) = (  -0.500000   0.000000   0.500000 )  
               a(2) = (   0.000000   0.500000   0.500000 )  
               a(3) = (  -0.500000   0.500000   0.000000 )  

     reciprocal axes: (cart. coord. in units 2 pi/alat)
               b(1) = ( -1.000000 -1.000000  1.000000 )  
               b(2) = (  1.000000  1.000000  1.000000 )  
               b(3) = ( -1.000000  1.000000 -1.000000 )  


     PseudoPot. # 1 for C  read from file:
     ~/Documents/TA/PWDFT.jl/pseudopotentials/scan_upf/C.SCAN.UPF2
     MD5 check sum: Not computed, couldn't open file
     Pseudo is Norm-conserving, Zval =  4.0
     Generated by new atomic code, or converted to UPF format
     Using radial grid of 1389 points,  1 beta functions with: 
                l(1) =   0

     atomic species   valence    mass     pseudopotential
        C              4.00    12.01100     C ( 1.00)

     48 Sym. Ops., with inversion, found (24 have fractional translation)



   Cartesian axes

     site n.     atom                  positions (alat units)
         1           C   tau(   1) = (   0.0000000   0.0000000   0.0000000  )
         2           C   tau(   2) = (   0.2500000   0.2500000   0.2500000  )

     number of k points=    47
                       cart. coord. in units 2pi/alat
        k(    1) = (   0.0000000   0.0000000   0.0000000), wk =   0.0020000
        k(    2) = (  -0.1000000   0.1000000  -0.1000000), wk =   0.0160000
        k(    3) = (  -0.2000000   0.2000000  -0.2000000), wk =   0.0160000
        k(    4) = (  -0.3000000   0.3000000  -0.3000000), wk =   0.0160000
        k(    5) = (  -0.4000000   0.4000000  -0.4000000), wk =   0.0160000
        k(    6) = (   0.5000000  -0.5000000   0.5000000), wk =   0.0080000
        k(    7) = (   0.0000000   0.2000000   0.0000000), wk =   0.0120000
        k(    8) = (  -0.1000000   0.3000000  -0.1000000), wk =   0.0480000
        k(    9) = (  -0.2000000   0.4000000  -0.2000000), wk =   0.0480000
        k(   10) = (  -0.3000000   0.5000000  -0.3000000), wk =   0.0480000
        k(   11) = (   0.6000000  -0.4000000   0.6000000), wk =   0.0480000
        k(   12) = (   0.5000000  -0.3000000   0.5000000), wk =   0.0480000
        k(   13) = (   0.4000000  -0.2000000   0.4000000), wk =   0.0480000
        k(   14) = (   0.3000000  -0.1000000   0.3000000), wk =   0.0480000
        k(   15) = (   0.2000000   0.0000000   0.2000000), wk =   0.0240000
        k(   16) = (   0.0000000   0.4000000   0.0000000), wk =   0.0120000
        k(   17) = (  -0.1000000   0.5000000  -0.1000000), wk =   0.0480000
        k(   18) = (  -0.2000000   0.6000000  -0.2000000), wk =   0.0480000
        k(   19) = (   0.7000000  -0.3000000   0.7000000), wk =   0.0480000
        k(   20) = (   0.6000000  -0.2000000   0.6000000), wk =   0.0480000
        k(   21) = (   0.5000000  -0.1000000   0.5000000), wk =   0.0480000
        k(   22) = (   0.4000000   0.0000000   0.4000000), wk =   0.0240000
        k(   23) = (   0.0000000   0.6000000   0.0000000), wk =   0.0120000
        k(   24) = (  -0.1000000   0.7000000  -0.1000000), wk =   0.0480000
        k(   25) = (   0.8000000  -0.2000000   0.8000000), wk =   0.0480000
        k(   26) = (   0.7000000  -0.1000000   0.7000000), wk =   0.0480000
        k(   27) = (   0.6000000  -0.0000000   0.6000000), wk =   0.0240000
        k(   28) = (   0.0000000   0.8000000   0.0000000), wk =   0.0120000
        k(   29) = (   0.9000000  -0.1000000   0.9000000), wk =   0.0480000
        k(   30) = (   0.8000000   0.0000000   0.8000000), wk =   0.0240000
        k(   31) = (   0.0000000  -1.0000000   0.0000000), wk =   0.0060000
        k(   32) = (  -0.2000000   0.4000000   0.0000000), wk =   0.0480000
        k(   33) = (  -0.3000000   0.5000000  -0.1000000), wk =   0.0960000
        k(   34) = (   0.6000000  -0.4000000   0.8000000), wk =   0.0960000
        k(   35) = (   0.5000000  -0.3000000   0.7000000), wk =   0.0480000
        k(   36) = (  -0.2000000   0.6000000   0.0000000), wk =   0.0480000
        k(   37) = (   0.7000000  -0.3000000   0.9000000), wk =   0.0960000
        k(   38) = (   0.6000000  -0.2000000   0.8000000), wk =   0.0960000
        k(   39) = (   0.5000000  -0.1000000   0.7000000), wk =   0.0960000
        k(   40) = (   0.4000000   0.0000000   0.6000000), wk =   0.0480000
        k(   41) = (   0.8000000  -0.2000000   1.0000000), wk =   0.0480000
        k(   42) = (   0.7000000  -0.1000000   0.9000000), wk =   0.0960000
        k(   43) = (   0.6000000   0.0000000   0.8000000), wk =   0.0480000
        k(   44) = (  -0.2000000  -1.0000000   0.0000000), wk =   0.0240000
        k(   45) = (   0.6000000  -0.2000000   1.0000000), wk =   0.0480000
        k(   46) = (   0.5000000  -0.1000000   0.9000000), wk =   0.0480000
        k(   47) = (  -0.4000000  -1.0000000   0.0000000), wk =   0.0240000

     Dense  grid:     3383 G-vectors     FFT dimensions: (  24,  24,  24)

     Estimated max dynamical RAM per process >       6.66 MB

     WARNING: libxc functional with ID  263 depends
      on external parameters: check the user_guide of
      QE if you need to modify them or to check their
      default values.

     Initial potential from superposition of free atoms

     starting charge       7.9999, renormalised to       8.0000
     Starting wfcs are    8 randomized atomic wfcs

     total cpu time spent up to now is        1.2 secs

     Self-consistent Calculation

     iteration #  1     ecut=    50.00 Ry     beta= 0.01
     Davidson diagonalization with overlap
     ethr =  1.00E-02,  avg # of iterations =  2.0

     total cpu time spent up to now is        2.9 secs

     total energy              =     -22.61156114 Ry
     estimated scf accuracy    <       2.39662747 Ry

     iteration #  2     ecut=    50.00 Ry     beta= 0.01
     Davidson diagonalization with overlap
     ethr =  1.00E-02,  avg # of iterations =  1.0

     total cpu time spent up to now is        4.2 secs

     total energy              =     -22.52909298 Ry
     estimated scf accuracy    <       2.40091832 Ry

     iteration #  3     ecut=    50.00 Ry     beta= 0.01
     Davidson diagonalization with overlap
     ethr =  1.00E-02,  avg # of iterations =  1.0

     total cpu time spent up to now is        5.4 secs

     total energy              =     -22.71964332 Ry
     estimated scf accuracy    <       4.50429754 Ry

     iteration #  4     ecut=    50.00 Ry     beta= 0.01
     Davidson diagonalization with overlap
     ethr =  1.00E-02,  avg # of iterations =  1.0

     total cpu time spent up to now is        6.5 secs

     total energy              =     -22.73074004 Ry
     estimated scf accuracy    <       0.01629736 Ry

     iteration #  5     ecut=    50.00 Ry     beta= 0.01
     Davidson diagonalization with overlap
     ethr =  2.04E-04,  avg # of iterations =  1.0

     total cpu time spent up to now is        7.8 secs

     total energy              =     -22.73107906 Ry
     estimated scf accuracy    <       0.02358040 Ry

     iteration #  6     ecut=    50.00 Ry     beta= 0.01
     Davidson diagonalization with overlap
     ethr =  2.04E-04,  avg # of iterations =  1.0

     total cpu time spent up to now is        9.1 secs

     total energy              =     -22.73064938 Ry
     estimated scf accuracy    <       0.02392119 Ry

     iteration #  7     ecut=    50.00 Ry     beta= 0.01
     Davidson diagonalization with overlap
     ethr =  2.04E-04,  avg # of iterations =  1.0

     total cpu time spent up to now is       10.4 secs

     total energy              =     -22.72565753 Ry
     estimated scf accuracy    <       0.01938377 Ry

     iteration #  8     ecut=    50.00 Ry     beta= 0.01
     Davidson diagonalization with overlap
     ethr =  2.04E-04,  avg # of iterations =  2.0

     total cpu time spent up to now is       12.1 secs

     total energy              =     -22.72756116 Ry
     estimated scf accuracy    <       0.00249089 Ry

     iteration #  9     ecut=    50.00 Ry     beta= 0.01
     Davidson diagonalization with overlap
     ethr =  3.11E-05,  avg # of iterations =  1.0

     total cpu time spent up to now is       13.3 secs

     total energy              =     -22.72765300 Ry
     estimated scf accuracy    <       0.00197745 Ry

     iteration # 10     ecut=    50.00 Ry     beta= 0.01
     Davidson diagonalization with overlap
     ethr =  2.47E-05,  avg # of iterations =  1.0

     total cpu time spent up to now is       14.4 secs

     total energy              =     -22.72727879 Ry
     estimated scf accuracy    <       0.00274866 Ry

     iteration # 11     ecut=    50.00 Ry     beta= 0.01
     Davidson diagonalization with overlap
     ethr =  2.47E-05,  avg # of iterations =  1.0

     total cpu time spent up to now is       15.5 secs

     total energy              =     -22.72730888 Ry
     estimated scf accuracy    <       0.00025269 Ry

     iteration # 12     ecut=    50.00 Ry     beta= 0.01
     Davidson diagonalization with overlap
     ethr =  3.16E-06,  avg # of iterations =  1.0

     total cpu time spent up to now is       16.3 secs

     total energy              =     -22.72730145 Ry
     estimated scf accuracy    <       0.00016377 Ry

     iteration # 13     ecut=    50.00 Ry     beta= 0.01
     Davidson diagonalization with overlap
     ethr =  2.05E-06,  avg # of iterations =  1.0

     total cpu time spent up to now is       17.2 secs

     total energy              =     -22.72734869 Ry
     estimated scf accuracy    <       0.00010773 Ry

     iteration # 14     ecut=    50.00 Ry     beta= 0.01
     Davidson diagonalization with overlap
     ethr =  1.35E-06,  avg # of iterations =  1.0

     total cpu time spent up to now is       18.0 secs

     total energy              =     -22.72736062 Ry
     estimated scf accuracy    <       0.00002120 Ry

     iteration # 15     ecut=    50.00 Ry     beta= 0.01
     Davidson diagonalization with overlap
     ethr =  2.65E-07,  avg # of iterations =  1.0

     total cpu time spent up to now is       18.6 secs

     End of self-consistent calculation

          k = 0.0000 0.0000 0.0000 (   411 PWs)   bands (ev):

    -8.7426  14.9670  14.9670  14.9670

          k =-0.1000 0.1000-0.1000 (   417 PWs)   bands (ev):

    -8.4352  13.1165  14.4659  14.4659

          k =-0.2000 0.2000-0.2000 (   411 PWs)   bands (ev):

    -7.5180   9.5803  13.4832  13.4832

          k =-0.3000 0.3000-0.3000 (   419 PWs)   bands (ev):

    -6.0111   5.8025  12.5883  12.5883

          k =-0.4000 0.4000-0.4000 (   416 PWs)   bands (ev):

    -3.9851   2.3177  12.0211  12.0211

          k = 0.5000-0.5000 0.5000 (   410 PWs)   bands (ev):

    -2.2288   0.0636  11.8253  11.8253

          k = 0.0000 0.2000 0.0000 (   415 PWs)   bands (ev):

    -8.3328  13.5823  13.5823  14.0729

          k =-0.1000 0.3000-0.1000 (   409 PWs)   bands (ev):

    -7.6189  10.8121  12.4911  13.5321

          k =-0.2000 0.4000-0.2000 (   415 PWs)   bands (ev):

    -6.3084   7.1848  11.6512  12.5499

          k =-0.3000 0.5000-0.3000 (   421 PWs)   bands (ev):

    -4.4467   3.6310  11.2253  11.5621

          k = 0.6000-0.4000 0.6000 (   413 PWs)   bands (ev):

    -2.3190   0.7005  10.8436  11.2654

          k = 0.5000-0.3000 0.5000 (   414 PWs)   bands (ev):

    -2.9932   1.5405  10.5072  11.7348

          k = 0.4000-0.2000 0.4000 (   415 PWs)   bands (ev):

    -5.1235   4.7918  10.6176  12.5593

          k = 0.3000-0.1000 0.3000 (   415 PWs)   bands (ev):

    -6.8104   8.4234  11.1813  13.5932

          k = 0.2000 0.0000 0.2000 (   411 PWs)   bands (ev):

    -7.9244  11.7579  12.3465  14.4486

          k = 0.0000 0.4000 0.0000 (   415 PWs)   bands (ev):

    -7.1111  11.3197  11.3197  11.6950

          k =-0.1000 0.5000-0.1000 (   420 PWs)   bands (ev):

    -6.0053   8.5435  10.4263  10.9644

          k =-0.2000 0.6000-0.2000 (   417 PWs)   bands (ev):

    -4.3340   5.2574   9.7813   9.9929

          k = 0.7000-0.3000 0.7000 (   418 PWs)   bands (ev):

    -2.2353   2.1886   8.6577  10.0711

          k = 0.6000-0.2000 0.6000 (   412 PWs)   bands (ev):

    -1.5997   1.4344   7.9005  10.6401

          k = 0.5000-0.1000 0.5000 (   412 PWs)   bands (ev):

    -3.6785   4.2700   7.6370  11.6036

          k = 0.4000 0.0000 0.4000 (   411 PWs)   bands (ev):

    -5.5134   7.3016   8.2463  12.7440

          k = 0.0000 0.6000 0.0000 (   431 PWs)   bands (ev):

    -5.1070   8.4032   9.4385   9.4385

          k =-0.1000 0.7000-0.1000 (   419 PWs)   bands (ev):

    -3.6387   6.1872   8.2466   8.9168

          k = 0.8000-0.2000 0.8000 (   416 PWs)   bands (ev):

    -1.6884   3.7315   6.5642   8.9096

          k = 0.7000-0.1000 0.7000 (   414 PWs)   bands (ev):

    -0.1235   2.0588   5.2938   9.4365

          k = 0.6000-0.0000 0.6000 (   407 PWs)   bands (ev):

    -1.7722   3.8336   5.0425  10.4018

          k = 0.0000 0.8000 0.0000 (   424 PWs)   bands (ev):

    -2.3791   4.6763   8.2528   8.2528

          k = 0.9000-0.1000 0.9000 (   423 PWs)   bands (ev):

    -0.6165   2.8572   7.0215   8.1219

          k = 0.8000 0.0000 0.8000 (   421 PWs)   bands (ev):

     1.0684   1.6794   5.0763   8.5321

          k = 0.0000-1.0000 0.0000 (   444 PWs)   bands (ev):

     0.9519   0.9519   7.8412   7.8412

          k =-0.2000 0.4000 0.0000 (   420 PWs)   bands (ev):

    -6.7088   9.4360  10.2224  12.8720

          k =-0.3000 0.5000-0.1000 (   415 PWs)   bands (ev):

    -5.2165   6.2863   9.2891  11.8499

          k = 0.6000-0.4000 0.8000 (   421 PWs)   bands (ev):

    -3.2183   2.9773   9.0450  10.8496

          k = 0.5000-0.3000 0.7000 (   420 PWs)   bands (ev):

    -1.5122   0.8116   9.0554  10.4018

          k =-0.2000 0.6000 0.0000 (   419 PWs)   bands (ev):

    -4.7174   7.2391   8.4359  10.1139

          k = 0.7000-0.3000 0.9000 (   415 PWs)   bands (ev):

    -2.9000   4.6120   7.5177   9.1386

          k = 0.6000-0.2000 0.8000 (   416 PWs)   bands (ev):

    -0.8656   2.0344   6.8268   8.9399

          k = 0.5000-0.1000 0.7000 (   416 PWs)   bands (ev):

    -1.5266   2.8626   6.2865   9.5961

          k = 0.4000 0.0000 0.6000 (   416 PWs)   bands (ev):

    -3.5734   5.4486   6.5743  10.7150

          k = 0.8000-0.2000 1.0000 (   420 PWs)   bands (ev):

    -2.0233   4.5837   7.3349   7.8584

          k = 0.7000-0.1000 0.9000 (   414 PWs)   bands (ev):

    -0.0323   2.8677   5.5808   7.7339

          k = 0.6000 0.0000 0.8000 (   416 PWs)   bands (ev):

     0.3336   2.6460   4.4861   8.4271

          k =-0.2000-1.0000 0.0000 (   420 PWs)   bands (ev):

     1.2147   1.2147   7.0679   7.0679

          k = 0.6000-0.2000 1.0000 (   408 PWs)   bands (ev):

    -1.0133   3.8618   5.6349   7.7755

          k = 0.5000-0.1000 0.9000 (   412 PWs)   bands (ev):

     0.5569   2.4605   5.3082   7.1132

          k =-0.4000-1.0000 0.0000 (   416 PWs)   bands (ev):

     1.7711   1.7711   5.8058   5.8058

     highest occupied level (ev):    14.9670

!    total energy              =     -22.72736282 Ry
     estimated scf accuracy    <       0.00000067 Ry

     The total energy is the sum of the following terms:
     one-electron contribution =       9.04542752 Ry
     hartree contribution      =       1.85279662 Ry
     xc contribution           =      -7.24188649 Ry
     ewald contribution        =     -26.38370047 Ry

     convergence has been achieved in  15 iterations
     Writing meta-gga kinetic term

     Writing all to output data dir ./input_pw/C/4/pwscf.save/
     Writing meta-gga kinetic term
 
     init_run     :      0.55s CPU      1.15s WALL (       1 calls)
     electrons    :      9.79s CPU     17.43s WALL (       1 calls)

     Called by init_run:
     wfcinit      :      0.50s CPU      1.01s WALL (       1 calls)
     potinit      :      0.01s CPU      0.04s WALL (       1 calls)
     hinit0       :      0.03s CPU      0.09s WALL (       1 calls)

     Called by electrons:
     c_bands      :      7.70s CPU     13.97s WALL (      15 calls)
     sum_band     :      1.91s CPU      3.17s WALL (      15 calls)
     v_of_rho     :      0.13s CPU      0.25s WALL (      16 calls)
     mix_rho      :      0.06s CPU      0.07s WALL (      15 calls)

     Called by c_bands:
     init_us_2    :      0.03s CPU      0.03s WALL (    1457 calls)
     init_us_2:cp :      0.03s CPU      0.03s WALL (    1457 calls)
     cegterg      :      7.66s CPU     13.91s WALL (     705 calls)

     Called by *egterg:
     cdiaghg      :      0.06s CPU      0.10s WALL (    1504 calls)
     h_psi        :      7.98s CPU     14.58s WALL (    1551 calls)
     g_psi        :      0.00s CPU      0.02s WALL (     799 calls)

     Called by h_psi:
     h_psi:calbec :      0.01s CPU      0.04s WALL (    1551 calls)
     vloc_psi     :      1.98s CPU      3.27s WALL (    1551 calls)
     add_vuspsi   :      0.02s CPU      0.02s WALL (    1551 calls)
     h_psi_meta   :      5.95s CPU     11.22s WALL (    1551 calls)

     General routines
     calbec       :      0.01s CPU      0.04s WALL (    1551 calls)
     fft          :      0.03s CPU      0.11s WALL (     189 calls)
     ffts         :      0.03s CPU      0.04s WALL (     252 calls)
     fftw         :      8.84s CPU     15.69s WALL (   62016 calls)
     interpolate  :      0.00s CPU      0.00s WALL (      16 calls)
 
     Parallel routines
 
     PWSCF        :     10.38s CPU     18.66s WALL

 
   This run was terminated on:  11:48:33  14Mar2023            

=------------------------------------------------------------------------------=
   JOB DONE.
=------------------------------------------------------------------------------=
