
     Program PWSCF v.7.0 starts on 29Mar2023 at 12:34:19 

     This program is part of the open-source Quantum ESPRESSO suite
     for quantum simulation of materials; please cite
         "P. Giannozzi et al., J. Phys.:Condens. Matter 21 395502 (2009);
         "P. Giannozzi et al., J. Phys.:Condens. Matter 29 465901 (2017);
         "P. Giannozzi et al., J. Chem. Phys. 152 154105 (2020);
          URL http://www.quantum-espresso.org", 
     in publications or presentations arising from this work. More details at
     http://www.quantum-espresso.org/quote

     Parallel version (MPI), running on     1 processors

     MPI processes distributed on     1 nodes
     23276 MiB available memory on the printing compute node when the environment starts
 
     Waiting for input...
     Reading input from standard input
Warning: card &CELL ignored
Warning: card / ignored

     Current dimensions of program PWSCF are:
     Max number of different atomic species (ntypx) = 10
     Max number of k-points (npk) =  40000
     Max angular momentum in pseudopotentials (lmaxx) =  4

     WARNING: the MGGA functional with ID    5 has been 
     read together with other dft terms, but it should 
     stand alone in order to work properly. The other 
     terms will be ignored.

     Subspace diagonalization in iterative solution of the eigenvalue problem:
     a serial algorithm will be used

 
     G-vector sticks info
     --------------------
     sticks:   dense  smooth     PW     G-vecs:    dense   smooth      PW
     Sum         295     295     97                 3287     3287     645
 
     Using Slab Decomposition
 


     bravais-lattice index     =            2
     lattice parameter (alat)  =       6.4790  a.u.
     unit-cell volume          =      67.9942 (a.u.)^3
     number of atoms/cell      =            2
     number of atomic types    =            1
     number of electrons       =         8.00
     number of Kohn-Sham states=            4
     kinetic-energy cutoff     =      50.0000  Ry
     charge density cutoff     =     200.0000  Ry
     scf convergence threshold =      1.0E-06
     mixing beta               =       0.0100
     number of iterations used =            8  local-TF  mixing
     Exchange-correlation= SLA  PW   SCAN SCAN
                           (   0   0   0   0   0 263 267)

     celldm(1)=   6.479039  celldm(2)=   0.000000  celldm(3)=   0.000000
     celldm(4)=   0.000000  celldm(5)=   0.000000  celldm(6)=   0.000000

     crystal axes: (cart. coord. in units of alat)
               a(1) = (  -0.500000   0.000000   0.500000 )  
               a(2) = (   0.000000   0.500000   0.500000 )  
               a(3) = (  -0.500000   0.500000   0.000000 )  

     reciprocal axes: (cart. coord. in units 2 pi/alat)
               b(1) = ( -1.000000 -1.000000  1.000000 )  
               b(2) = (  1.000000  1.000000  1.000000 )  
               b(3) = ( -1.000000  1.000000 -1.000000 )  


     PseudoPot. # 1 for C  read from file:
     ~/Documents/TA/PWDFT.jl/pseudopotentials/scan_upf/C.SCAN.UPF2
     MD5 check sum: Not computed, couldn't open file
     Pseudo is Norm-conserving, Zval =  4.0
     Generated by new atomic code, or converted to UPF format
     Using radial grid of 1389 points,  1 beta functions with: 
                l(1) =   0

     atomic species   valence    mass     pseudopotential
        C              4.00    12.01100     C ( 1.00)

     48 Sym. Ops., with inversion, found (24 have fractional translation)



   Cartesian axes

     site n.     atom                  positions (alat units)
         1           C   tau(   1) = (   0.0000000   0.0000000   0.0000000  )
         2           C   tau(   2) = (   0.2500000   0.2500000   0.2500000  )

     number of k points=    47
                       cart. coord. in units 2pi/alat
        k(    1) = (   0.0000000   0.0000000   0.0000000), wk =   0.0020000
        k(    2) = (  -0.1000000   0.1000000  -0.1000000), wk =   0.0160000
        k(    3) = (  -0.2000000   0.2000000  -0.2000000), wk =   0.0160000
        k(    4) = (  -0.3000000   0.3000000  -0.3000000), wk =   0.0160000
        k(    5) = (  -0.4000000   0.4000000  -0.4000000), wk =   0.0160000
        k(    6) = (   0.5000000  -0.5000000   0.5000000), wk =   0.0080000
        k(    7) = (   0.0000000   0.2000000   0.0000000), wk =   0.0120000
        k(    8) = (  -0.1000000   0.3000000  -0.1000000), wk =   0.0480000
        k(    9) = (  -0.2000000   0.4000000  -0.2000000), wk =   0.0480000
        k(   10) = (  -0.3000000   0.5000000  -0.3000000), wk =   0.0480000
        k(   11) = (   0.6000000  -0.4000000   0.6000000), wk =   0.0480000
        k(   12) = (   0.5000000  -0.3000000   0.5000000), wk =   0.0480000
        k(   13) = (   0.4000000  -0.2000000   0.4000000), wk =   0.0480000
        k(   14) = (   0.3000000  -0.1000000   0.3000000), wk =   0.0480000
        k(   15) = (   0.2000000   0.0000000   0.2000000), wk =   0.0240000
        k(   16) = (   0.0000000   0.4000000   0.0000000), wk =   0.0120000
        k(   17) = (  -0.1000000   0.5000000  -0.1000000), wk =   0.0480000
        k(   18) = (  -0.2000000   0.6000000  -0.2000000), wk =   0.0480000
        k(   19) = (   0.7000000  -0.3000000   0.7000000), wk =   0.0480000
        k(   20) = (   0.6000000  -0.2000000   0.6000000), wk =   0.0480000
        k(   21) = (   0.5000000  -0.1000000   0.5000000), wk =   0.0480000
        k(   22) = (   0.4000000   0.0000000   0.4000000), wk =   0.0240000
        k(   23) = (   0.0000000   0.6000000   0.0000000), wk =   0.0120000
        k(   24) = (  -0.1000000   0.7000000  -0.1000000), wk =   0.0480000
        k(   25) = (   0.8000000  -0.2000000   0.8000000), wk =   0.0480000
        k(   26) = (   0.7000000  -0.1000000   0.7000000), wk =   0.0480000
        k(   27) = (   0.6000000  -0.0000000   0.6000000), wk =   0.0240000
        k(   28) = (   0.0000000   0.8000000   0.0000000), wk =   0.0120000
        k(   29) = (   0.9000000  -0.1000000   0.9000000), wk =   0.0480000
        k(   30) = (   0.8000000   0.0000000   0.8000000), wk =   0.0240000
        k(   31) = (   0.0000000  -1.0000000   0.0000000), wk =   0.0060000
        k(   32) = (  -0.2000000   0.4000000   0.0000000), wk =   0.0480000
        k(   33) = (  -0.3000000   0.5000000  -0.1000000), wk =   0.0960000
        k(   34) = (   0.6000000  -0.4000000   0.8000000), wk =   0.0960000
        k(   35) = (   0.5000000  -0.3000000   0.7000000), wk =   0.0480000
        k(   36) = (  -0.2000000   0.6000000   0.0000000), wk =   0.0480000
        k(   37) = (   0.7000000  -0.3000000   0.9000000), wk =   0.0960000
        k(   38) = (   0.6000000  -0.2000000   0.8000000), wk =   0.0960000
        k(   39) = (   0.5000000  -0.1000000   0.7000000), wk =   0.0960000
        k(   40) = (   0.4000000   0.0000000   0.6000000), wk =   0.0480000
        k(   41) = (   0.8000000  -0.2000000   1.0000000), wk =   0.0480000
        k(   42) = (   0.7000000  -0.1000000   0.9000000), wk =   0.0960000
        k(   43) = (   0.6000000   0.0000000   0.8000000), wk =   0.0480000
        k(   44) = (  -0.2000000  -1.0000000   0.0000000), wk =   0.0240000
        k(   45) = (   0.6000000  -0.2000000   1.0000000), wk =   0.0480000
        k(   46) = (   0.5000000  -0.1000000   0.9000000), wk =   0.0480000
        k(   47) = (  -0.4000000  -1.0000000   0.0000000), wk =   0.0240000

     Dense  grid:     3287 G-vectors     FFT dimensions: (  24,  24,  24)

     Estimated max dynamical RAM per process >       6.52 MB

     WARNING: libxc functional with ID  263 depends
      on external parameters: check the user_guide of
      QE if you need to modify them or to check their
      default values.

     Initial potential from superposition of free atoms

     starting charge       7.9999, renormalised to       8.0000
     Starting wfcs are    8 randomized atomic wfcs

     total cpu time spent up to now is        1.3 secs

     Self-consistent Calculation

     iteration #  1     ecut=    50.00 Ry     beta= 0.01
     Davidson diagonalization with overlap
     ethr =  1.00E-02,  avg # of iterations =  2.0

     total cpu time spent up to now is        3.1 secs

     total energy              =     -22.60841812 Ry
     estimated scf accuracy    <       2.48207144 Ry

     iteration #  2     ecut=    50.00 Ry     beta= 0.01
     Davidson diagonalization with overlap
     ethr =  1.00E-02,  avg # of iterations =  1.0

     total cpu time spent up to now is        4.4 secs

     total energy              =     -22.52031359 Ry
     estimated scf accuracy    <       2.48592812 Ry

     iteration #  3     ecut=    50.00 Ry     beta= 0.01
     Davidson diagonalization with overlap
     ethr =  1.00E-02,  avg # of iterations =  1.0

     total cpu time spent up to now is        5.7 secs

     total energy              =     -22.71384696 Ry
     estimated scf accuracy    <       4.44513221 Ry

     iteration #  4     ecut=    50.00 Ry     beta= 0.01
     Davidson diagonalization with overlap
     ethr =  1.00E-02,  avg # of iterations =  1.0

     total cpu time spent up to now is        7.0 secs

     total energy              =     -22.72470610 Ry
     estimated scf accuracy    <       0.01697260 Ry

     iteration #  5     ecut=    50.00 Ry     beta= 0.01
     Davidson diagonalization with overlap
     ethr =  2.12E-04,  avg # of iterations =  1.0

     total cpu time spent up to now is        8.2 secs

     total energy              =     -22.72507349 Ry
     estimated scf accuracy    <       0.02497685 Ry

     iteration #  6     ecut=    50.00 Ry     beta= 0.01
     Davidson diagonalization with overlap
     ethr =  2.12E-04,  avg # of iterations =  1.0

     total cpu time spent up to now is        9.4 secs

     total energy              =     -22.72312980 Ry
     estimated scf accuracy    <       0.02577682 Ry

     iteration #  7     ecut=    50.00 Ry     beta= 0.01
     Davidson diagonalization with overlap
     ethr =  2.12E-04,  avg # of iterations =  1.0

     total cpu time spent up to now is       10.6 secs

     total energy              =     -22.72014004 Ry
     estimated scf accuracy    <       0.01242017 Ry

     iteration #  8     ecut=    50.00 Ry     beta= 0.01
     Davidson diagonalization with overlap
     ethr =  1.55E-04,  avg # of iterations =  2.0

     total cpu time spent up to now is       12.3 secs

     total energy              =     -22.72146786 Ry
     estimated scf accuracy    <       0.00228837 Ry

     iteration #  9     ecut=    50.00 Ry     beta= 0.01
     Davidson diagonalization with overlap
     ethr =  2.86E-05,  avg # of iterations =  1.0

     total cpu time spent up to now is       13.6 secs

     total energy              =     -22.72134321 Ry
     estimated scf accuracy    <       0.00149441 Ry

     iteration # 10     ecut=    50.00 Ry     beta= 0.01
     Davidson diagonalization with overlap
     ethr =  1.87E-05,  avg # of iterations =  1.0

     total cpu time spent up to now is       14.9 secs

     total energy              =     -22.72127375 Ry
     estimated scf accuracy    <       0.00053675 Ry

     iteration # 11     ecut=    50.00 Ry     beta= 0.01
     Davidson diagonalization with overlap
     ethr =  6.71E-06,  avg # of iterations =  1.0

     total cpu time spent up to now is       15.9 secs

     total energy              =     -22.72128711 Ry
     estimated scf accuracy    <       0.00005011 Ry

     iteration # 12     ecut=    50.00 Ry     beta= 0.01
     Davidson diagonalization with overlap
     ethr =  6.26E-07,  avg # of iterations =  1.0

     total cpu time spent up to now is       16.8 secs

     total energy              =     -22.72129614 Ry
     estimated scf accuracy    <       0.00003630 Ry

     iteration # 13     ecut=    50.00 Ry     beta= 0.01
     Davidson diagonalization with overlap
     ethr =  4.54E-07,  avg # of iterations =  1.0

     total cpu time spent up to now is       17.8 secs

     total energy              =     -22.72130183 Ry
     estimated scf accuracy    <       0.00000508 Ry

     iteration # 14     ecut=    50.00 Ry     beta= 0.01
     Davidson diagonalization with overlap
     ethr =  6.36E-08,  avg # of iterations =  2.0

     total cpu time spent up to now is       19.0 secs

     total energy              =     -22.72130255 Ry
     estimated scf accuracy    <       0.00000271 Ry

     iteration # 15     ecut=    50.00 Ry     beta= 0.01
     Davidson diagonalization with overlap
     ethr =  3.38E-08,  avg # of iterations =  1.0

     total cpu time spent up to now is       20.1 secs

     End of self-consistent calculation

          k = 0.0000 0.0000 0.0000 (   411 PWs)   bands (ev):

    -8.6217  15.4503  15.4503  15.4503

          k =-0.1000 0.1000-0.1000 (   402 PWs)   bands (ev):

    -8.3093  13.5806  14.9402  14.9402

          k =-0.2000 0.2000-0.2000 (   402 PWs)   bands (ev):

    -7.3764   9.9654  13.9352  13.9352

          k =-0.3000 0.3000-0.3000 (   401 PWs)   bands (ev):

    -5.8432   6.1259  13.0351  13.0351

          k =-0.4000 0.4000-0.4000 (   407 PWs)   bands (ev):

    -3.7754   2.5772  12.4396  12.4396

          k = 0.5000-0.5000 0.5000 (   410 PWs)   bands (ev):

    -1.9491   0.2438  12.2371  12.2371

          k = 0.0000 0.2000 0.0000 (   399 PWs)   bands (ev):

    -8.2051  14.0335  14.0335  14.5650

          k =-0.1000 0.3000-0.1000 (   400 PWs)   bands (ev):

    -7.4793  11.2210  12.9125  14.0025

          k =-0.2000 0.4000-0.2000 (   403 PWs)   bands (ev):

    -6.1461   7.5368  12.0578  12.9949

          k =-0.3000 0.5000-0.3000 (   407 PWs)   bands (ev):

    -4.2487   3.9177  11.6295  11.9897

          k = 0.6000-0.4000 0.6000 (   407 PWs)   bands (ev):

    -2.0562   0.9101  11.2474  11.6643

          k = 0.5000-0.3000 0.5000 (   403 PWs)   bands (ev):

    -2.7577   1.7798  10.9088  12.1487

          k = 0.4000-0.2000 0.4000 (   405 PWs)   bands (ev):

    -4.9393   5.1022  11.0134  12.9994

          k = 0.3000-0.1000 0.3000 (   396 PWs)   bands (ev):

    -6.6566   8.7996  11.5935  14.0573

          k = 0.2000 0.0000 0.2000 (   395 PWs)   bands (ev):

    -7.7898  12.1938  12.7727  14.9276

          k = 0.0000 0.4000 0.0000 (   407 PWs)   bands (ev):

    -6.9631  11.7132  11.7132  12.1779

          k =-0.1000 0.5000-0.1000 (   409 PWs)   bands (ev):

    -5.8379   8.9254  10.8056  11.3887

          k =-0.2000 0.6000-0.2000 (   404 PWs)   bands (ev):

    -4.1357   5.5802  10.1782  10.3745

          k = 0.7000-0.3000 0.7000 (   407 PWs)   bands (ev):

    -1.9879   2.4466   9.0297  10.4452

          k = 0.6000-0.2000 0.6000 (   404 PWs)   bands (ev):

    -1.3267   1.6627   8.2546  11.0246

          k = 0.5000-0.1000 0.5000 (   408 PWs)   bands (ev):

    -3.4667   4.5734   7.9798  12.0076

          k = 0.4000 0.0000 0.4000 (   409 PWs)   bands (ev):

    -5.3371   7.6718   8.5808  13.1830

          k = 0.0000 0.6000 0.0000 (   415 PWs)   bands (ev):

    -4.9247   8.8325   9.7956   9.7956

          k =-0.1000 0.7000-0.1000 (   412 PWs)   bands (ev):

    -3.4299   6.5707   8.5815   9.2593

          k = 0.8000-0.2000 0.8000 (   408 PWs)   bands (ev):

    -1.4392   4.0570   6.8694   9.2570

          k = 0.7000-0.1000 0.7000 (   404 PWs)   bands (ev):

     0.1861   2.3179   5.5825   9.7898

          k = 0.6000-0.0000 0.6000 (   403 PWs)   bands (ev):

    -1.5173   4.1602   5.3059  10.7770

          k = 0.0000 0.8000 0.0000 (   404 PWs)   bands (ev):

    -2.1482   5.0370   8.5929   8.5929

          k = 0.9000-0.1000 0.9000 (   411 PWs)   bands (ev):

    -0.3515   3.1916   7.3181   8.4563

          k = 0.8000 0.0000 0.8000 (   405 PWs)   bands (ev):

     1.3955   1.9840   5.3191   8.8746

          k = 0.0000-1.0000 0.0000 (   412 PWs)   bands (ev):

     1.2465   1.2465   8.1736   8.1736

          k =-0.2000 0.4000 0.0000 (   400 PWs)   bands (ev):

    -6.5535   9.8425  10.6006  13.3299

          k =-0.3000 0.5000-0.1000 (   407 PWs)   bands (ev):

    -5.0346   6.6259   9.6593  12.2743

          k = 0.6000-0.4000 0.8000 (   409 PWs)   bands (ev):

    -2.9951   3.2523   9.4241  11.2464

          k = 0.5000-0.3000 0.7000 (   404 PWs)   bands (ev):

    -1.2223   1.0136   9.4417  10.7858

          k =-0.2000 0.6000 0.0000 (   413 PWs)   bands (ev):

    -4.5277   7.6236   8.7732  10.4936

          k = 0.7000-0.3000 0.9000 (   406 PWs)   bands (ev):

    -2.6747   4.9416   7.8620   9.4855

          k = 0.6000-0.2000 0.8000 (   408 PWs)   bands (ev):

    -0.5804   2.2873   7.1639   9.2834

          k = 0.5000-0.1000 0.7000 (   408 PWs)   bands (ev):

    -1.2648   3.1433   6.6059   9.9573

          k = 0.4000 0.0000 0.6000 (   406 PWs)   bands (ev):

    -3.3607   5.8027   6.8761  11.1101

          k = 0.8000-0.2000 1.0000 (   412 PWs)   bands (ev):

    -1.7838   4.9522   7.6462   8.1702

          k = 0.7000-0.1000 0.9000 (   408 PWs)   bands (ev):

     0.2531   3.2062   5.8439   8.0469

          k = 0.6000 0.0000 0.8000 (   406 PWs)   bands (ev):

     0.6456   2.9662   4.7185   8.7654

          k =-0.2000-1.0000 0.0000 (   414 PWs)   bands (ev):

     1.5181   1.5181   7.3698   7.3698

          k = 0.6000-0.2000 1.0000 (   408 PWs)   bands (ev):

    -0.7477   4.2121   5.9071   8.0830

          k = 0.5000-0.1000 0.9000 (   404 PWs)   bands (ev):

     0.8775   2.7596   5.5888   7.4025

          k =-0.4000-1.0000 0.0000 (   404 PWs)   bands (ev):

     2.1029   2.1029   6.0675   6.0675

     highest occupied level (ev):    15.4503

!    total energy              =     -22.72130249 Ry
     estimated scf accuracy    <       0.00000067 Ry

     The total energy is the sum of the following terms:
     one-electron contribution =       9.33983554 Ry
     hartree contribution      =       1.83052126 Ry
     xc contribution           =      -7.28624341 Ry
     ewald contribution        =     -26.60541587 Ry

     convergence has been achieved in  15 iterations
     Writing meta-gga kinetic term

     Writing all to output data dir ./input_pw/C/4/pwscf.save/
     Writing meta-gga kinetic term
 
     init_run     :      0.52s CPU      1.30s WALL (       1 calls)
     electrons    :      9.97s CPU     18.74s WALL (       1 calls)

     Called by init_run:
     wfcinit      :      0.48s CPU      1.20s WALL (       1 calls)
     potinit      :      0.01s CPU      0.02s WALL (       1 calls)
     hinit0       :      0.03s CPU      0.06s WALL (       1 calls)

     Called by electrons:
     c_bands      :      7.89s CPU     14.88s WALL (      15 calls)
     sum_band     :      1.90s CPU      3.54s WALL (      15 calls)
     v_of_rho     :      0.13s CPU      0.22s WALL (      16 calls)
     mix_rho      :      0.06s CPU      0.12s WALL (      15 calls)

     Called by c_bands:
     init_us_2    :      0.03s CPU      0.05s WALL (    1457 calls)
     init_us_2:cp :      0.02s CPU      0.04s WALL (    1457 calls)
     cegterg      :      7.85s CPU     14.84s WALL (     705 calls)

     Called by *egterg:
     cdiaghg      :      0.06s CPU      0.10s WALL (    1551 calls)
     h_psi        :      8.14s CPU     15.68s WALL (    1598 calls)
     g_psi        :      0.01s CPU      0.01s WALL (     846 calls)

     Called by h_psi:
     h_psi:calbec :      0.02s CPU      0.03s WALL (    1598 calls)
     vloc_psi     :      2.01s CPU      4.12s WALL (    1598 calls)
     add_vuspsi   :      0.02s CPU      0.05s WALL (    1598 calls)
     h_psi_meta   :      6.07s CPU     11.44s WALL (    1598 calls)

     General routines
     calbec       :      0.01s CPU      0.01s WALL (    1598 calls)
     fft          :      0.03s CPU      0.04s WALL (     189 calls)
     ffts         :      0.03s CPU      0.06s WALL (     248 calls)
     fftw         :      8.94s CPU     17.05s WALL (   63472 calls)
     interpolate  :      0.00s CPU      0.00s WALL (      16 calls)
 
     Parallel routines
 
     PWSCF        :     10.53s CPU     20.08s WALL

 
   This run was terminated on:  12:34:39  29Mar2023            

=------------------------------------------------------------------------------=
   JOB DONE.
=------------------------------------------------------------------------------=
