
     Program PWSCF v.7.0 starts on  7Jul2023 at 14:25:23 

     This program is part of the open-source Quantum ESPRESSO suite
     for quantum simulation of materials; please cite
         "P. Giannozzi et al., J. Phys.:Condens. Matter 21 395502 (2009);
         "P. Giannozzi et al., J. Phys.:Condens. Matter 29 465901 (2017);
         "P. Giannozzi et al., J. Chem. Phys. 152 154105 (2020);
          URL http://www.quantum-espresso.org", 
     in publications or presentations arising from this work. More details at
     http://www.quantum-espresso.org/quote

     Parallel version (MPI), running on     1 processors

     MPI processes distributed on     1 nodes
     27302 MiB available memory on the printing compute node when the environment starts
 
     Waiting for input...
     Reading input from standard input
Warning: card &CELL ignored
Warning: card / ignored

     Current dimensions of program PWSCF are:
     Max number of different atomic species (ntypx) = 10
     Max number of k-points (npk) =  40000
     Max angular momentum in pseudopotentials (lmaxx) =  4

     WARNING: the MGGA functional with ID    5 has been 
     read together with other dft terms, but it should 
     stand alone in order to work properly. The other 
     terms will be ignored.

     Subspace diagonalization in iterative solution of the eigenvalue problem:
     a serial algorithm will be used

 
     G-vector sticks info
     --------------------
     sticks:   dense  smooth     PW     G-vecs:    dense   smooth      PW
     Sum         295     295     97                 3287     3287     645
 
     Using Slab Decomposition
 


     bravais-lattice index     =            2
     lattice parameter (alat)  =       6.4790  a.u.
     unit-cell volume          =      67.9942 (a.u.)^3
     number of atoms/cell      =            2
     number of atomic types    =            1
     number of electrons       =         8.00
     number of Kohn-Sham states=            4
     kinetic-energy cutoff     =      50.0000  Ry
     charge density cutoff     =     200.0000  Ry
     scf convergence threshold =      2.0E-05
     mixing beta               =       0.2000
     number of iterations used =            8  local-TF  mixing
     Exchange-correlation= SLA  PW   SCAN SCAN
                           (   0   0   0   0   0 263 267)

     celldm(1)=   6.479039  celldm(2)=   0.000000  celldm(3)=   0.000000
     celldm(4)=   0.000000  celldm(5)=   0.000000  celldm(6)=   0.000000

     crystal axes: (cart. coord. in units of alat)
               a(1) = (  -0.500000   0.000000   0.500000 )  
               a(2) = (   0.000000   0.500000   0.500000 )  
               a(3) = (  -0.500000   0.500000   0.000000 )  

     reciprocal axes: (cart. coord. in units 2 pi/alat)
               b(1) = ( -1.000000 -1.000000  1.000000 )  
               b(2) = (  1.000000  1.000000  1.000000 )  
               b(3) = ( -1.000000  1.000000 -1.000000 )  


     PseudoPot. # 1 for C  read from file:
     ~/Documents/TA/PWDFT.jl/pseudopotentials/scan_upf/C.SCAN.UPF2
     MD5 check sum: Not computed, couldn't open file
     Pseudo is Norm-conserving, Zval =  4.0
     Generated by new atomic code, or converted to UPF format
     Using radial grid of 1389 points,  1 beta functions with: 
                l(1) =   0

     atomic species   valence    mass     pseudopotential
        C              4.00    12.01100     C ( 1.00)

     48 Sym. Ops., with inversion, found (24 have fractional translation)



   Cartesian axes

     site n.     atom                  positions (alat units)
         1           C   tau(   1) = (   0.0000000   0.0000000   0.0000000  )
         2           C   tau(   2) = (   0.2500000   0.2500000   0.2500000  )

     number of k points=    47
                       cart. coord. in units 2pi/alat
        k(    1) = (   0.0000000   0.0000000   0.0000000), wk =   0.0020000
        k(    2) = (  -0.1000000   0.1000000  -0.1000000), wk =   0.0160000
        k(    3) = (  -0.2000000   0.2000000  -0.2000000), wk =   0.0160000
        k(    4) = (  -0.3000000   0.3000000  -0.3000000), wk =   0.0160000
        k(    5) = (  -0.4000000   0.4000000  -0.4000000), wk =   0.0160000
        k(    6) = (   0.5000000  -0.5000000   0.5000000), wk =   0.0080000
        k(    7) = (   0.0000000   0.2000000   0.0000000), wk =   0.0120000
        k(    8) = (  -0.1000000   0.3000000  -0.1000000), wk =   0.0480000
        k(    9) = (  -0.2000000   0.4000000  -0.2000000), wk =   0.0480000
        k(   10) = (  -0.3000000   0.5000000  -0.3000000), wk =   0.0480000
        k(   11) = (   0.6000000  -0.4000000   0.6000000), wk =   0.0480000
        k(   12) = (   0.5000000  -0.3000000   0.5000000), wk =   0.0480000
        k(   13) = (   0.4000000  -0.2000000   0.4000000), wk =   0.0480000
        k(   14) = (   0.3000000  -0.1000000   0.3000000), wk =   0.0480000
        k(   15) = (   0.2000000   0.0000000   0.2000000), wk =   0.0240000
        k(   16) = (   0.0000000   0.4000000   0.0000000), wk =   0.0120000
        k(   17) = (  -0.1000000   0.5000000  -0.1000000), wk =   0.0480000
        k(   18) = (  -0.2000000   0.6000000  -0.2000000), wk =   0.0480000
        k(   19) = (   0.7000000  -0.3000000   0.7000000), wk =   0.0480000
        k(   20) = (   0.6000000  -0.2000000   0.6000000), wk =   0.0480000
        k(   21) = (   0.5000000  -0.1000000   0.5000000), wk =   0.0480000
        k(   22) = (   0.4000000   0.0000000   0.4000000), wk =   0.0240000
        k(   23) = (   0.0000000   0.6000000   0.0000000), wk =   0.0120000
        k(   24) = (  -0.1000000   0.7000000  -0.1000000), wk =   0.0480000
        k(   25) = (   0.8000000  -0.2000000   0.8000000), wk =   0.0480000
        k(   26) = (   0.7000000  -0.1000000   0.7000000), wk =   0.0480000
        k(   27) = (   0.6000000  -0.0000000   0.6000000), wk =   0.0240000
        k(   28) = (   0.0000000   0.8000000   0.0000000), wk =   0.0120000
        k(   29) = (   0.9000000  -0.1000000   0.9000000), wk =   0.0480000
        k(   30) = (   0.8000000   0.0000000   0.8000000), wk =   0.0240000
        k(   31) = (   0.0000000  -1.0000000   0.0000000), wk =   0.0060000
        k(   32) = (  -0.2000000   0.4000000   0.0000000), wk =   0.0480000
        k(   33) = (  -0.3000000   0.5000000  -0.1000000), wk =   0.0960000
        k(   34) = (   0.6000000  -0.4000000   0.8000000), wk =   0.0960000
        k(   35) = (   0.5000000  -0.3000000   0.7000000), wk =   0.0480000
        k(   36) = (  -0.2000000   0.6000000   0.0000000), wk =   0.0480000
        k(   37) = (   0.7000000  -0.3000000   0.9000000), wk =   0.0960000
        k(   38) = (   0.6000000  -0.2000000   0.8000000), wk =   0.0960000
        k(   39) = (   0.5000000  -0.1000000   0.7000000), wk =   0.0960000
        k(   40) = (   0.4000000   0.0000000   0.6000000), wk =   0.0480000
        k(   41) = (   0.8000000  -0.2000000   1.0000000), wk =   0.0480000
        k(   42) = (   0.7000000  -0.1000000   0.9000000), wk =   0.0960000
        k(   43) = (   0.6000000   0.0000000   0.8000000), wk =   0.0480000
        k(   44) = (  -0.2000000  -1.0000000   0.0000000), wk =   0.0240000
        k(   45) = (   0.6000000  -0.2000000   1.0000000), wk =   0.0480000
        k(   46) = (   0.5000000  -0.1000000   0.9000000), wk =   0.0480000
        k(   47) = (  -0.4000000  -1.0000000   0.0000000), wk =   0.0240000

     Dense  grid:     3287 G-vectors     FFT dimensions: (  24,  24,  24)

     Estimated max dynamical RAM per process >       6.52 MB

     WARNING: libxc functional with ID  263 depends
      on external parameters: check the user_guide of
      QE if you need to modify them or to check their
      default values.

     Initial potential from superposition of free atoms

     starting charge       7.9999, renormalised to       8.0000
     Starting wfcs are    8 randomized atomic wfcs

     total cpu time spent up to now is        1.1 secs

     Self-consistent Calculation

     iteration #  1     ecut=    50.00 Ry     beta= 0.20
     Davidson diagonalization with overlap
     ethr =  1.00E-02,  avg # of iterations =  2.0

     total cpu time spent up to now is        2.8 secs

     total energy              =     -22.68784832 Ry
     estimated scf accuracy    <       2.48207144 Ry

     iteration #  2     ecut=    50.00 Ry     beta= 0.20
     Davidson diagonalization with overlap
     ethr =  1.00E-02,  avg # of iterations =  1.0

     total cpu time spent up to now is        4.1 secs

     total energy              =     -22.71659758 Ry
     estimated scf accuracy    <       1.65079085 Ry

     iteration #  3     ecut=    50.00 Ry     beta= 0.20
     Davidson diagonalization with overlap
     ethr =  1.00E-02,  avg # of iterations =  1.0

     total cpu time spent up to now is        5.4 secs

     total energy              =     -22.72229140 Ry
     estimated scf accuracy    <       0.01775543 Ry

     iteration #  4     ecut=    50.00 Ry     beta= 0.20
     Davidson diagonalization with overlap
     ethr =  2.22E-04,  avg # of iterations =  1.0

     total cpu time spent up to now is        6.7 secs

     total energy              =     -22.72043800 Ry
     estimated scf accuracy    <       0.00986161 Ry

     iteration #  5     ecut=    50.00 Ry     beta= 0.20
     Davidson diagonalization with overlap
     ethr =  1.23E-04,  avg # of iterations =  1.0

     total cpu time spent up to now is        7.8 secs

     total energy              =     -22.72121517 Ry
     estimated scf accuracy    <       0.00062886 Ry

     iteration #  6     ecut=    50.00 Ry     beta= 0.20
     Davidson diagonalization with overlap
     ethr =  7.86E-06,  avg # of iterations =  1.2

     total cpu time spent up to now is        8.8 secs

     total energy              =     -22.72128046 Ry
     estimated scf accuracy    <       0.00010220 Ry

     iteration #  7     ecut=    50.00 Ry     beta= 0.20
     Davidson diagonalization with overlap
     ethr =  1.28E-06,  avg # of iterations =  1.7

     total cpu time spent up to now is       10.0 secs

     total energy              =     -22.72129970 Ry
     estimated scf accuracy    <       0.00032260 Ry

     iteration #  8     ecut=    50.00 Ry     beta= 0.20
     Davidson diagonalization with overlap
     ethr =  1.28E-06,  avg # of iterations =  1.0

     total cpu time spent up to now is       11.1 secs

     End of self-consistent calculation

          k = 0.0000 0.0000 0.0000 (   411 PWs)   bands (ev):

    -8.6188  15.4514  15.4514  15.4514

          k =-0.1000 0.1000-0.1000 (   402 PWs)   bands (ev):

    -8.3063  13.5820  14.9414  14.9414

          k =-0.2000 0.2000-0.2000 (   402 PWs)   bands (ev):

    -7.3735   9.9672  13.9366  13.9366

          k =-0.3000 0.3000-0.3000 (   401 PWs)   bands (ev):

    -5.8403   6.1278  13.0366  13.0366

          k =-0.4000 0.4000-0.4000 (   407 PWs)   bands (ev):

    -3.7726   2.5793  12.4413  12.4413

          k = 0.5000-0.5000 0.5000 (   410 PWs)   bands (ev):

    -1.9460   0.2456  12.2388  12.2388

          k = 0.0000 0.2000 0.0000 (   399 PWs)   bands (ev):

    -8.2022  14.0348  14.0348  14.5663

          k =-0.1000 0.3000-0.1000 (   400 PWs)   bands (ev):

    -7.4764  11.2227  12.9140  14.0040

          k =-0.2000 0.4000-0.2000 (   403 PWs)   bands (ev):

    -6.1433   7.5387  12.0594  12.9964

          k =-0.3000 0.5000-0.3000 (   407 PWs)   bands (ev):

    -4.2459   3.9198  11.6311  11.9914

          k = 0.6000-0.4000 0.6000 (   407 PWs)   bands (ev):

    -2.0532   0.9120  11.2491  11.6660

          k = 0.5000-0.3000 0.5000 (   403 PWs)   bands (ev):

    -2.7548   1.7819  10.9105  12.1503

          k = 0.4000-0.2000 0.4000 (   405 PWs)   bands (ev):

    -4.9365   5.1042  11.0151  13.0009

          k = 0.3000-0.1000 0.3000 (   396 PWs)   bands (ev):

    -6.6538   8.8015  11.5952  14.0587

          k = 0.2000 0.0000 0.2000 (   395 PWs)   bands (ev):

    -7.7869  12.1954  12.7742  14.9288

          k = 0.0000 0.4000 0.0000 (   407 PWs)   bands (ev):

    -6.9602  11.7148  11.7148  12.1797

          k =-0.1000 0.5000-0.1000 (   409 PWs)   bands (ev):

    -5.8351   8.9273  10.8073  11.3904

          k =-0.2000 0.6000-0.2000 (   404 PWs)   bands (ev):

    -4.1330   5.5823  10.1800  10.3762

          k = 0.7000-0.3000 0.7000 (   407 PWs)   bands (ev):

    -1.9851   2.4487   9.0315  10.4469

          k = 0.6000-0.2000 0.6000 (   404 PWs)   bands (ev):

    -1.3238   1.6647   8.2565  11.0263

          k = 0.5000-0.1000 0.5000 (   408 PWs)   bands (ev):

    -3.4639   4.5755   7.9816  12.0093

          k = 0.4000 0.0000 0.4000 (   409 PWs)   bands (ev):

    -5.3343   7.6738   8.5825  13.1845

          k = 0.0000 0.6000 0.0000 (   415 PWs)   bands (ev):

    -4.9219   8.8347   9.7973   9.7973

          k =-0.1000 0.7000-0.1000 (   412 PWs)   bands (ev):

    -3.4272   6.5730   8.5833   9.2610

          k = 0.8000-0.2000 0.8000 (   408 PWs)   bands (ev):

    -1.4365   4.0594   6.8711   9.2588

          k = 0.7000-0.1000 0.7000 (   404 PWs)   bands (ev):

     0.1891   2.3200   5.5843   9.7915

          k = 0.6000-0.0000 0.6000 (   403 PWs)   bands (ev):

    -1.5145   4.1625   5.3075  10.7787

          k = 0.0000 0.8000 0.0000 (   404 PWs)   bands (ev):

    -2.1455   5.0394   8.5947   8.5947

          k = 0.9000-0.1000 0.9000 (   411 PWs)   bands (ev):

    -0.3488   3.1941   7.3198   8.4581

          k = 0.8000 0.0000 0.8000 (   405 PWs)   bands (ev):

     1.3983   1.9866   5.3206   8.8763

          k = 0.0000-1.0000 0.0000 (   412 PWs)   bands (ev):

     1.2491   1.2491   8.1754   8.1754

          k =-0.2000 0.4000 0.0000 (   400 PWs)   bands (ev):

    -6.5507   9.8444  10.6022  13.3315

          k =-0.3000 0.5000-0.1000 (   407 PWs)   bands (ev):

    -5.0318   6.6279   9.6610  12.2759

          k = 0.6000-0.4000 0.8000 (   409 PWs)   bands (ev):

    -2.9923   3.2544   9.4259  11.2480

          k = 0.5000-0.3000 0.7000 (   404 PWs)   bands (ev):

    -1.2193   1.0154   9.4436  10.7875

          k =-0.2000 0.6000 0.0000 (   413 PWs)   bands (ev):

    -4.5249   7.6257   8.7749  10.4953

          k = 0.7000-0.3000 0.9000 (   406 PWs)   bands (ev):

    -2.6720   4.9438   7.8639   9.4872

          k = 0.6000-0.2000 0.8000 (   408 PWs)   bands (ev):

    -0.5775   2.2894   7.1658   9.2851

          k = 0.5000-0.1000 0.7000 (   408 PWs)   bands (ev):

    -1.2620   3.1455   6.6078   9.9590

          k = 0.4000 0.0000 0.6000 (   406 PWs)   bands (ev):

    -3.3579   5.8050   6.8778  11.1117

          k = 0.8000-0.2000 1.0000 (   412 PWs)   bands (ev):

    -1.7811   4.9548   7.6480   8.1719

          k = 0.7000-0.1000 0.9000 (   408 PWs)   bands (ev):

     0.2558   3.2088   5.8454   8.0486

          k = 0.6000 0.0000 0.8000 (   406 PWs)   bands (ev):

     0.6485   2.9687   4.7200   8.7670

          k =-0.2000-1.0000 0.0000 (   414 PWs)   bands (ev):

     1.5207   1.5207   7.3715   7.3715

          k = 0.6000-0.2000 1.0000 (   408 PWs)   bands (ev):

    -0.7450   4.2146   5.9087   8.0845

          k = 0.5000-0.1000 0.9000 (   404 PWs)   bands (ev):

     0.8804   2.7619   5.5905   7.4041

          k =-0.4000-1.0000 0.0000 (   404 PWs)   bands (ev):

     2.1057   2.1057   6.0691   6.0691

     highest occupied level (ev):    15.4514

!    total energy              =     -22.72130210 Ry
     estimated scf accuracy    <       0.00000084 Ry

     The total energy is the sum of the following terms:
     one-electron contribution =       9.33989401 Ry
     hartree contribution      =       1.83040089 Ry
     xc contribution           =      -7.28618113 Ry
     ewald contribution        =     -26.60541587 Ry

     convergence has been achieved in   8 iterations
     Writing meta-gga kinetic term

     Writing all to output data dir ./input_pw/C/4/pwscf.save/
     Writing meta-gga kinetic term
 
     init_run     :      0.51s CPU      1.04s WALL (       1 calls)
     electrons    :      5.39s CPU     10.00s WALL (       1 calls)

     Called by init_run:
     wfcinit      :      0.47s CPU      0.93s WALL (       1 calls)
     potinit      :      0.01s CPU      0.01s WALL (       1 calls)
     hinit0       :      0.03s CPU      0.09s WALL (       1 calls)

     Called by electrons:
     c_bands      :      4.26s CPU      7.95s WALL (       8 calls)
     sum_band     :      1.03s CPU      1.90s WALL (       8 calls)
     v_of_rho     :      0.08s CPU      0.10s WALL (       9 calls)
     mix_rho      :      0.03s CPU      0.06s WALL (       8 calls)

     Called by c_bands:
     init_us_2    :      0.02s CPU      0.02s WALL (     799 calls)
     init_us_2:cp :      0.01s CPU      0.01s WALL (     799 calls)
     cegterg      :      4.24s CPU      7.93s WALL (     376 calls)

     Called by *egterg:
     cdiaghg      :      0.03s CPU      0.05s WALL (     840 calls)
     h_psi        :      4.60s CPU      8.69s WALL (     887 calls)
     g_psi        :      0.00s CPU      0.00s WALL (     464 calls)

     Called by h_psi:
     h_psi:calbec :      0.01s CPU      0.02s WALL (     887 calls)
     vloc_psi     :      1.14s CPU      2.03s WALL (     887 calls)
     add_vuspsi   :      0.01s CPU      0.01s WALL (     887 calls)
     h_psi_meta   :      3.44s CPU      6.59s WALL (     887 calls)

     General routines
     calbec       :      0.01s CPU      0.01s WALL (     887 calls)
     fft          :      0.02s CPU      0.06s WALL (     105 calls)
     ffts         :      0.02s CPU      0.03s WALL (     127 calls)
     fftw         :      5.03s CPU      9.34s WALL (   35200 calls)
     interpolate  :      0.00s CPU      0.00s WALL (       9 calls)
 
     Parallel routines
 
     PWSCF        :      5.94s CPU     11.10s WALL

 
   This run was terminated on:  14:25:34   7Jul2023            

=------------------------------------------------------------------------------=
   JOB DONE.
=------------------------------------------------------------------------------=
