
     Program PWSCF v.7.0 starts on 29Mar2023 at 11:45:51 

     This program is part of the open-source Quantum ESPRESSO suite
     for quantum simulation of materials; please cite
         "P. Giannozzi et al., J. Phys.:Condens. Matter 21 395502 (2009);
         "P. Giannozzi et al., J. Phys.:Condens. Matter 29 465901 (2017);
         "P. Giannozzi et al., J. Chem. Phys. 152 154105 (2020);
          URL http://www.quantum-espresso.org", 
     in publications or presentations arising from this work. More details at
     http://www.quantum-espresso.org/quote

     Parallel version (MPI), running on     1 processors

     MPI processes distributed on     1 nodes
     23137 MiB available memory on the printing compute node when the environment starts
 
     Waiting for input...
     Reading input from standard input
Warning: card &CELL ignored
Warning: card / ignored

     Current dimensions of program PWSCF are:
     Max number of different atomic species (ntypx) = 10
     Max number of k-points (npk) =  40000
     Max angular momentum in pseudopotentials (lmaxx) =  4
     file Ge.SCAN.UPF2: wavefunction(s)  0D renormalized

     WARNING: the MGGA functional with ID    5 has been 
     read together with other dft terms, but it should 
     stand alone in order to work properly. The other 
     terms will be ignored.

     Subspace diagonalization in iterative solution of the eigenvalue problem:
     a serial algorithm will be used

 
     G-vector sticks info
     --------------------
     sticks:   dense  smooth     PW     G-vecs:    dense   smooth      PW
     Sum        1039    1039    313                22219    22219    3695
 
     Using Slab Decomposition
 


     bravais-lattice index     =            2
     lattice parameter (alat)  =      12.2884  a.u.
     unit-cell volume          =     463.8972 (a.u.)^3
     number of atoms/cell      =            2
     number of atomic types    =            1
     number of electrons       =         8.00
     number of Kohn-Sham states=            4
     kinetic-energy cutoff     =      50.0000  Ry
     charge density cutoff     =     200.0000  Ry
     scf convergence threshold =      1.0E-06
     mixing beta               =       0.0100
     number of iterations used =            8  local-TF  mixing
     Exchange-correlation= SLA  PW  SCAN SCAN
                           (   0   0   0   0   0 263 267)

     celldm(1)=  12.288360  celldm(2)=   0.000000  celldm(3)=   0.000000
     celldm(4)=   0.000000  celldm(5)=   0.000000  celldm(6)=   0.000000

     crystal axes: (cart. coord. in units of alat)
               a(1) = (  -0.500000   0.000000   0.500000 )  
               a(2) = (   0.000000   0.500000   0.500000 )  
               a(3) = (  -0.500000   0.500000   0.000000 )  

     reciprocal axes: (cart. coord. in units 2 pi/alat)
               b(1) = ( -1.000000 -1.000000  1.000000 )  
               b(2) = (  1.000000  1.000000  1.000000 )  
               b(3) = ( -1.000000  1.000000 -1.000000 )  


     PseudoPot. # 1 for Ge read from file:
     ~/Documents/TA/PWDFT.jl/pseudopotentials/scan_upf/Ge.SCAN.UPF2
     MD5 check sum: Not computed, couldn't open file
     Pseudo is Norm-conserving, Zval =  4.0
     Generated by new atomic code, or converted to UPF format
     Using radial grid of 1557 points,  2 beta functions with: 
                l(1) =   0
                l(2) =   1

     atomic species   valence    mass     pseudopotential
        Ge             4.00    72.64000     Ge( 1.00)

     48 Sym. Ops., with inversion, found (24 have fractional translation)



   Cartesian axes

     site n.     atom                  positions (alat units)
         1           Ge  tau(   1) = (   0.0000000   0.0000000   0.0000000  )
         2           Ge  tau(   2) = (   0.2500000   0.2500000   0.2500000  )

     number of k points=    47
                       cart. coord. in units 2pi/alat
        k(    1) = (   0.0000000   0.0000000   0.0000000), wk =   0.0020000
        k(    2) = (  -0.1000000   0.1000000  -0.1000000), wk =   0.0160000
        k(    3) = (  -0.2000000   0.2000000  -0.2000000), wk =   0.0160000
        k(    4) = (  -0.3000000   0.3000000  -0.3000000), wk =   0.0160000
        k(    5) = (  -0.4000000   0.4000000  -0.4000000), wk =   0.0160000
        k(    6) = (   0.5000000  -0.5000000   0.5000000), wk =   0.0080000
        k(    7) = (   0.0000000   0.2000000   0.0000000), wk =   0.0120000
        k(    8) = (  -0.1000000   0.3000000  -0.1000000), wk =   0.0480000
        k(    9) = (  -0.2000000   0.4000000  -0.2000000), wk =   0.0480000
        k(   10) = (  -0.3000000   0.5000000  -0.3000000), wk =   0.0480000
        k(   11) = (   0.6000000  -0.4000000   0.6000000), wk =   0.0480000
        k(   12) = (   0.5000000  -0.3000000   0.5000000), wk =   0.0480000
        k(   13) = (   0.4000000  -0.2000000   0.4000000), wk =   0.0480000
        k(   14) = (   0.3000000  -0.1000000   0.3000000), wk =   0.0480000
        k(   15) = (   0.2000000   0.0000000   0.2000000), wk =   0.0240000
        k(   16) = (   0.0000000   0.4000000   0.0000000), wk =   0.0120000
        k(   17) = (  -0.1000000   0.5000000  -0.1000000), wk =   0.0480000
        k(   18) = (  -0.2000000   0.6000000  -0.2000000), wk =   0.0480000
        k(   19) = (   0.7000000  -0.3000000   0.7000000), wk =   0.0480000
        k(   20) = (   0.6000000  -0.2000000   0.6000000), wk =   0.0480000
        k(   21) = (   0.5000000  -0.1000000   0.5000000), wk =   0.0480000
        k(   22) = (   0.4000000   0.0000000   0.4000000), wk =   0.0240000
        k(   23) = (   0.0000000   0.6000000   0.0000000), wk =   0.0120000
        k(   24) = (  -0.1000000   0.7000000  -0.1000000), wk =   0.0480000
        k(   25) = (   0.8000000  -0.2000000   0.8000000), wk =   0.0480000
        k(   26) = (   0.7000000  -0.1000000   0.7000000), wk =   0.0480000
        k(   27) = (   0.6000000  -0.0000000   0.6000000), wk =   0.0240000
        k(   28) = (   0.0000000   0.8000000   0.0000000), wk =   0.0120000
        k(   29) = (   0.9000000  -0.1000000   0.9000000), wk =   0.0480000
        k(   30) = (   0.8000000   0.0000000   0.8000000), wk =   0.0240000
        k(   31) = (   0.0000000  -1.0000000   0.0000000), wk =   0.0060000
        k(   32) = (  -0.2000000   0.4000000   0.0000000), wk =   0.0480000
        k(   33) = (  -0.3000000   0.5000000  -0.1000000), wk =   0.0960000
        k(   34) = (   0.6000000  -0.4000000   0.8000000), wk =   0.0960000
        k(   35) = (   0.5000000  -0.3000000   0.7000000), wk =   0.0480000
        k(   36) = (  -0.2000000   0.6000000   0.0000000), wk =   0.0480000
        k(   37) = (   0.7000000  -0.3000000   0.9000000), wk =   0.0960000
        k(   38) = (   0.6000000  -0.2000000   0.8000000), wk =   0.0960000
        k(   39) = (   0.5000000  -0.1000000   0.7000000), wk =   0.0960000
        k(   40) = (   0.4000000   0.0000000   0.6000000), wk =   0.0480000
        k(   41) = (   0.8000000  -0.2000000   1.0000000), wk =   0.0480000
        k(   42) = (   0.7000000  -0.1000000   0.9000000), wk =   0.0960000
        k(   43) = (   0.6000000   0.0000000   0.8000000), wk =   0.0480000
        k(   44) = (  -0.2000000  -1.0000000   0.0000000), wk =   0.0240000
        k(   45) = (   0.6000000  -0.2000000   1.0000000), wk =   0.0480000
        k(   46) = (   0.5000000  -0.1000000   0.9000000), wk =   0.0480000
        k(   47) = (  -0.4000000  -1.0000000   0.0000000), wk =   0.0240000

     Dense  grid:    22219 G-vectors     FFT dimensions: (  40,  40,  40)

     Estimated max dynamical RAM per process >      41.05 MB

     WARNING: libxc functional with ID  263 depends
      on external parameters: check the user_guide of
      QE if you need to modify them or to check their
      default values.

     Initial potential from superposition of free atoms

     starting charge       7.9987, renormalised to       8.0000
     Starting wfcs are   18 randomized atomic wfcs

     total cpu time spent up to now is       11.9 secs

     Self-consistent Calculation

     iteration #  1     ecut=    50.00 Ry     beta= 0.01
     Davidson diagonalization with overlap
     ethr =  1.00E-02,  avg # of iterations =  1.4

     Threshold (ethr) on eigenvalues was too large:
     Diagonalizing with lowered threshold

     Davidson diagonalization with overlap
     ethr =  2.17E-04,  avg # of iterations =  6.4

     total cpu time spent up to now is       36.3 secs

     total energy              =     -15.70183842 Ry
     estimated scf accuracy    <       0.02288667 Ry

     iteration #  2     ecut=    50.00 Ry     beta= 0.01
     Davidson diagonalization with overlap
     ethr =  2.86E-04,  avg # of iterations =  1.0

     total cpu time spent up to now is       43.5 secs

     total energy              =     -15.70226337 Ry
     estimated scf accuracy    <       0.02293964 Ry

     iteration #  3     ecut=    50.00 Ry     beta= 0.01
     Davidson diagonalization with overlap
     ethr =  2.86E-04,  avg # of iterations =  1.0

     total cpu time spent up to now is       51.0 secs

     total energy              =     -15.73946890 Ry
     estimated scf accuracy    <       0.02567751 Ry

     iteration #  4     ecut=    50.00 Ry     beta= 0.01
     Davidson diagonalization with overlap
     ethr =  2.86E-04,  avg # of iterations =  1.7

     total cpu time spent up to now is       59.3 secs

     total energy              =     -15.74100899 Ry
     estimated scf accuracy    <       0.00171549 Ry

     iteration #  5     ecut=    50.00 Ry     beta= 0.01
     Davidson diagonalization with overlap
     ethr =  2.14E-05,  avg # of iterations =  5.7

     total cpu time spent up to now is       74.4 secs

     total energy              =     -15.74237923 Ry
     estimated scf accuracy    <       0.00248845 Ry

     iteration #  6     ecut=    50.00 Ry     beta= 0.01
     Davidson diagonalization with overlap
     ethr =  2.14E-05,  avg # of iterations =  1.2

     total cpu time spent up to now is       81.9 secs

     total energy              =     -15.74218996 Ry
     estimated scf accuracy    <       0.00252526 Ry

     iteration #  7     ecut=    50.00 Ry     beta= 0.01
     Davidson diagonalization with overlap
     ethr =  2.14E-05,  avg # of iterations =  1.3

     total cpu time spent up to now is       88.2 secs

     total energy              =     -15.74232802 Ry
     estimated scf accuracy    <       0.00017634 Ry

     iteration #  8     ecut=    50.00 Ry     beta= 0.01
     Davidson diagonalization with overlap
     ethr =  2.20E-06,  avg # of iterations =  8.5

     total cpu time spent up to now is      109.8 secs

     total energy              =     -15.74257324 Ry
     estimated scf accuracy    <       0.00022292 Ry

     iteration #  9     ecut=    50.00 Ry     beta= 0.01
     Davidson diagonalization with overlap
     ethr =  2.20E-06,  avg # of iterations =  2.9

     total cpu time spent up to now is      118.3 secs

     total energy              =     -15.74261542 Ry
     estimated scf accuracy    <       0.00012122 Ry

     iteration # 10     ecut=    50.00 Ry     beta= 0.01
     Davidson diagonalization with overlap
     ethr =  1.52E-06,  avg # of iterations =  1.5

     total cpu time spent up to now is      125.4 secs

     total energy              =     -15.74256662 Ry
     estimated scf accuracy    <       0.00006572 Ry

     iteration # 11     ecut=    50.00 Ry     beta= 0.01
     Davidson diagonalization with overlap
     ethr =  8.21E-07,  avg # of iterations =  7.4

     total cpu time spent up to now is      139.4 secs

     total energy              =     -15.74267385 Ry
     estimated scf accuracy    <       0.00007911 Ry

     iteration # 12     ecut=    50.00 Ry     beta= 0.01
     Davidson diagonalization with overlap
     ethr =  8.21E-07,  avg # of iterations =  1.1

     total cpu time spent up to now is      144.1 secs

     total energy              =     -15.74266594 Ry
     estimated scf accuracy    <       0.00006562 Ry

     iteration # 13     ecut=    50.00 Ry     beta= 0.01
     Davidson diagonalization with overlap
     ethr =  8.20E-07,  avg # of iterations =  1.0

     total cpu time spent up to now is      149.1 secs

     total energy              =     -15.74265879 Ry
     estimated scf accuracy    <       0.00002625 Ry

     iteration # 14     ecut=    50.00 Ry     beta= 0.01
     Davidson diagonalization with overlap
     ethr =  3.28E-07,  avg # of iterations =  2.9

     total cpu time spent up to now is      156.5 secs

     total energy              =     -15.74266472 Ry
     estimated scf accuracy    <       0.00000183 Ry

     iteration # 15     ecut=    50.00 Ry     beta= 0.01
     Davidson diagonalization with overlap
     c_bands:  1 eigenvalues not converged
     c_bands:  1 eigenvalues not converged
     c_bands:  1 eigenvalues not converged
     c_bands:  1 eigenvalues not converged
     ethr =  2.28E-08,  avg # of iterations = 10.3

     total cpu time spent up to now is      173.6 secs

     total energy              =     -15.74266878 Ry
     estimated scf accuracy    <       0.00000111 Ry

     iteration # 16     ecut=    50.00 Ry     beta= 0.01
     Davidson diagonalization with overlap
     c_bands:  1 eigenvalues not converged
     ethr =  1.39E-08,  avg # of iterations =  4.7

     total cpu time spent up to now is      181.6 secs

     End of self-consistent calculation

          k = 0.0000 0.0000 0.0000 (  2733 PWs)   bands (ev):

    -8.5321  -0.9555   2.0626   2.0626

          k =-0.1000 0.1000-0.1000 (  2746 PWs)   bands (ev):

    -8.4495  -1.3977   1.9310   1.9310

          k =-0.2000 0.2000-0.2000 (  2761 PWs)   bands (ev):

    -8.2093  -2.3452   1.6552   1.6553

          k =-0.3000 0.3000-0.3000 (  2785 PWs)   bands (ev):

    -7.8416  -3.3642   1.3925   1.3925

          k =-0.4000 0.4000-0.4000 (  2770 PWs)   bands (ev):

    -7.4358  -4.2014   1.2173   1.2173

          k = 0.5000-0.5000 0.5000 (  2788 PWs)   bands (ev):

    -7.2283  -4.5583   1.1566   1.1566

          k = 0.0000 0.2000 0.0000 (  2758 PWs)   bands (ev):

    -8.4216  -1.5107   1.7129   1.7129

          k =-0.1000 0.3000-0.1000 (  2763 PWs)   bands (ev):

    -8.2321  -2.2265   1.3646   1.4111

          k =-0.2000 0.4000-0.2000 (  2773 PWs)   bands (ev):

    -7.9012  -3.1649   0.9454   1.1622

          k =-0.3000 0.5000-0.3000 (  2773 PWs)   bands (ev):

    -7.4897  -4.0420   0.5981   1.0251

          k = 0.6000-0.4000 0.6000 (  2776 PWs)   bands (ev):

    -7.1765  -4.5816   0.3935   1.0185

          k = 0.5000-0.3000 0.5000 (  2776 PWs)   bands (ev):

    -7.2525  -4.4584   0.3564   1.1398

          k = 0.4000-0.2000 0.4000 (  2773 PWs)   bands (ev):

    -7.6313  -3.7670   0.4993   1.3690

          k = 0.3000-0.1000 0.3000 (  2767 PWs)   bands (ev):

    -8.0270  -2.8477   0.8314   1.6581

          k = 0.2000 0.0000 0.2000 (  2755 PWs)   bands (ev):

    -8.3137  -1.9567   1.3487   1.9011

          k = 0.0000 0.4000 0.0000 (  2770 PWs)   bands (ev):

    -8.0931  -2.6008   1.0945   1.0945

          k =-0.1000 0.5000-0.1000 (  2773 PWs)   bands (ev):

    -7.8043  -3.3035   0.6829   0.8385

          k =-0.2000 0.6000-0.2000 (  2773 PWs)   bands (ev):

    -7.4051  -4.0848   0.1899   0.7037

          k = 0.7000-0.3000 0.7000 (  2771 PWs)   bands (ev):

    -7.0196  -4.7006  -0.1804   0.7104

          k = 0.6000-0.2000 0.6000 (  2776 PWs)   bands (ev):

    -6.9555  -4.7926  -0.3422   0.8555

          k = 0.5000-0.1000 0.5000 (  2767 PWs)   bands (ev):

    -7.2898  -4.2857  -0.2511   1.1135

          k = 0.4000 0.0000 0.4000 (  2774 PWs)   bands (ev):

    -7.7027  -3.5512   0.1338   1.4230

          k = 0.0000 0.6000 0.0000 (  2778 PWs)   bands (ev):

    -7.5565  -3.7733   0.5642   0.5642

          k =-0.1000 0.7000-0.1000 (  2772 PWs)   bands (ev):

    -7.1810  -4.4009   0.1817   0.4091

          k = 0.8000-0.2000 0.8000 (  2772 PWs)   bands (ev):

    -6.7553  -4.9940  -0.3044   0.3993

          k = 0.7000-0.1000 0.7000 (  2765 PWs)   bands (ev):

    -6.5680  -5.2230  -0.6172   0.5352

          k = 0.6000-0.0000 0.6000 (  2764 PWs)   bands (ev):

    -6.8704  -4.8483  -0.6229   0.7935

          k = 0.0000 0.8000 0.0000 (  2790 PWs)   bands (ev):

    -6.8284  -4.9021   0.2246   0.2246

          k = 0.9000-0.1000 0.9000 (  2780 PWs)   bands (ev):

    -6.3871  -5.4398  -0.0785   0.1843

          k = 0.8000 0.0000 0.8000 (  2772 PWs)   bands (ev):

    -6.1765  -5.6592  -0.4753   0.2938

          k = 0.0000-1.0000 0.0000 (  2778 PWs)   bands (ev):

    -5.9332  -5.9332   0.1086   0.1086

          k =-0.2000 0.4000 0.0000 (  2775 PWs)   bands (ev):

    -7.9941  -2.8893   0.7290   1.3144

          k =-0.3000 0.5000-0.1000 (  2771 PWs)   bands (ev):

    -7.6270  -3.7009   0.2358   1.0858

          k = 0.6000-0.4000 0.8000 (  2772 PWs)   bands (ev):

    -7.2144  -4.4325  -0.0547   0.8853

          k = 0.5000-0.3000 0.7000 (  2776 PWs)   bands (ev):

    -6.9966  -4.7648  -0.1494   0.8099

          k =-0.2000 0.6000 0.0000 (  2768 PWs)   bands (ev):

    -7.4742  -3.9324   0.2302   0.6538

          k = 0.7000-0.3000 0.9000 (  2766 PWs)   bands (ev):

    -7.0549  -4.5956  -0.1930   0.4737

          k = 0.6000-0.2000 0.8000 (  2772 PWs)   bands (ev):

    -6.7223  -5.0460  -0.4709   0.4415

          k = 0.5000-0.1000 0.7000 (  2769 PWs)   bands (ev):

    -6.8313  -4.9043  -0.5246   0.5801

          k = 0.4000 0.0000 0.6000 (  2771 PWs)   bands (ev):

    -7.2367  -4.3352  -0.2972   0.8383

          k = 0.8000-0.2000 1.0000 (  2769 PWs)   bands (ev):

    -6.7747  -4.9631  -0.0450   0.1744

          k = 0.7000-0.1000 0.9000 (  2770 PWs)   bands (ev):

    -6.3614  -5.4503  -0.4039   0.1178

          k = 0.6000 0.0000 0.8000 (  2771 PWs)   bands (ev):

    -6.4154  -5.3849  -0.6286   0.2830

          k =-0.2000-1.0000 0.0000 (  2782 PWs)   bands (ev):

    -5.9251  -5.9251  -0.0650  -0.0650

          k = 0.6000-0.2000 1.0000 (  2767 PWs)   bands (ev):

    -6.6262  -5.1361  -0.4527   0.1632

          k = 0.5000-0.1000 0.9000 (  2768 PWs)   bands (ev):

    -6.3448  -5.4576  -0.5301   0.0205

          k =-0.4000-1.0000 0.0000 (  2768 PWs)   bands (ev):

    -5.9118  -5.9118  -0.2961  -0.2961

     highest occupied level (ev):     2.0626

!    total energy              =     -15.74266953 Ry
     estimated scf accuracy    <       0.00000053 Ry

     The total energy is the sum of the following terms:
     one-electron contribution =       0.96444961 Ry
     hartree contribution      =       1.63360983 Ry
     xc contribution           =      -4.31301985 Ry
     ewald contribution        =     -14.02770913 Ry

     convergence has been achieved in  16 iterations
     Writing meta-gga kinetic term

     Writing all to output data dir ./input_pw/Ge/10/pwscf.save/
     Writing meta-gga kinetic term
 
     init_run     :      5.82s CPU     11.83s WALL (       1 calls)
     electrons    :    100.28s CPU    169.76s WALL (       1 calls)

     Called by init_run:
     wfcinit      :      5.67s CPU     11.54s WALL (       1 calls)
     potinit      :      0.05s CPU      0.13s WALL (       1 calls)
     hinit0       :      0.07s CPU      0.11s WALL (       1 calls)

     Called by electrons:
     c_bands      :     84.92s CPU    143.75s WALL (      17 calls)
     sum_band     :     13.70s CPU     22.84s WALL (      17 calls)
     v_of_rho     :      0.80s CPU      1.53s WALL (      17 calls)
     mix_rho      :      0.87s CPU      1.67s WALL (      17 calls)

     Called by c_bands:
     init_us_2    :      0.62s CPU      1.05s WALL (    1645 calls)
     init_us_2:cp :      0.62s CPU      1.04s WALL (    1645 calls)
     cegterg      :     84.16s CPU    142.51s WALL (     799 calls)

     Called by *egterg:
     cdiaghg      :      0.32s CPU      0.52s WALL (    3567 calls)
     h_psi        :     87.59s CPU    150.21s WALL (    3661 calls)
     g_psi        :      0.09s CPU      0.12s WALL (    2815 calls)

     Called by h_psi:
     h_psi:calbec :      0.50s CPU      0.74s WALL (    3661 calls)
     vloc_psi     :     21.69s CPU     37.57s WALL (    3661 calls)
     add_vuspsi   :      0.37s CPU      0.73s WALL (    3661 calls)
     h_psi_meta   :     64.88s CPU    110.91s WALL (    3661 calls)

     General routines
     calbec       :      0.48s CPU      0.72s WALL (    3661 calls)
     fft          :      0.16s CPU      0.32s WALL (     203 calls)
     ffts         :      0.24s CPU      0.42s WALL (     309 calls)
     fftw         :     79.78s CPU    137.63s WALL (  109432 calls)
     interpolate  :      0.00s CPU      0.00s WALL (      17 calls)
 
     Parallel routines
 
     PWSCF        :   1m46.15s CPU   3m 1.68s WALL

 
   This run was terminated on:  11:48:52  29Mar2023            

=------------------------------------------------------------------------------=
   JOB DONE.
=------------------------------------------------------------------------------=
