
     Program PWSCF v.7.0 starts on 14Mar2023 at 11:36:59 

     This program is part of the open-source Quantum ESPRESSO suite
     for quantum simulation of materials; please cite
         "P. Giannozzi et al., J. Phys.:Condens. Matter 21 395502 (2009);
         "P. Giannozzi et al., J. Phys.:Condens. Matter 29 465901 (2017);
         "P. Giannozzi et al., J. Chem. Phys. 152 154105 (2020);
          URL http://www.quantum-espresso.org", 
     in publications or presentations arising from this work. More details at
     http://www.quantum-espresso.org/quote

     Parallel version (MPI), running on     1 processors

     MPI processes distributed on     1 nodes
     27212 MiB available memory on the printing compute node when the environment starts
 
     Waiting for input...
     Reading input from standard input
Warning: card &CELL ignored
Warning: card / ignored

     Current dimensions of program PWSCF are:
     Max number of different atomic species (ntypx) = 10
     Max number of k-points (npk) =  40000
     Max angular momentum in pseudopotentials (lmaxx) =  4
     file Ge.SCAN.UPF2: wavefunction(s)  0D renormalized

     WARNING: the MGGA functional with ID    5 has been 
     read together with other dft terms, but it should 
     stand alone in order to work properly. The other 
     terms will be ignored.

     Subspace diagonalization in iterative solution of the eigenvalue problem:
     a serial algorithm will be used

 
     G-vector sticks info
     --------------------
     sticks:   dense  smooth     PW     G-vecs:    dense   smooth      PW
     Sum        1069    1069    313                23409    23409    3839
 
     Using Slab Decomposition
 


     bravais-lattice index     =            2
     lattice parameter (alat)  =      12.5096  a.u.
     unit-cell volume          =     489.4071 (a.u.)^3
     number of atoms/cell      =            2
     number of atomic types    =            1
     number of electrons       =         8.00
     number of Kohn-Sham states=            4
     kinetic-energy cutoff     =      50.0000  Ry
     charge density cutoff     =     200.0000  Ry
     scf convergence threshold =      1.0E-06
     mixing beta               =       0.0100
     number of iterations used =            8  local-TF  mixing
     Exchange-correlation= SLA  PW  SCAN SCAN
                           (   0   0   0   0   0 263 267)

     celldm(1)=  12.509600  celldm(2)=   0.000000  celldm(3)=   0.000000
     celldm(4)=   0.000000  celldm(5)=   0.000000  celldm(6)=   0.000000

     crystal axes: (cart. coord. in units of alat)
               a(1) = (  -0.500000   0.000000   0.500000 )  
               a(2) = (   0.000000   0.500000   0.500000 )  
               a(3) = (  -0.500000   0.500000   0.000000 )  

     reciprocal axes: (cart. coord. in units 2 pi/alat)
               b(1) = ( -1.000000 -1.000000  1.000000 )  
               b(2) = (  1.000000  1.000000  1.000000 )  
               b(3) = ( -1.000000  1.000000 -1.000000 )  


     PseudoPot. # 1 for Ge read from file:
     ~/Documents/TA/PWDFT.jl/pseudopotentials/scan_upf/Ge.SCAN.UPF2
     MD5 check sum: Not computed, couldn't open file
     Pseudo is Norm-conserving, Zval =  4.0
     Generated by new atomic code, or converted to UPF format
     Using radial grid of 1557 points,  2 beta functions with: 
                l(1) =   0
                l(2) =   1

     atomic species   valence    mass     pseudopotential
        Ge             4.00    72.64000     Ge( 1.00)

     48 Sym. Ops., with inversion, found (24 have fractional translation)



   Cartesian axes

     site n.     atom                  positions (alat units)
         1           Ge  tau(   1) = (   0.0000000   0.0000000   0.0000000  )
         2           Ge  tau(   2) = (   0.2500000   0.2500000   0.2500000  )

     number of k points=    47
                       cart. coord. in units 2pi/alat
        k(    1) = (   0.0000000   0.0000000   0.0000000), wk =   0.0020000
        k(    2) = (  -0.1000000   0.1000000  -0.1000000), wk =   0.0160000
        k(    3) = (  -0.2000000   0.2000000  -0.2000000), wk =   0.0160000
        k(    4) = (  -0.3000000   0.3000000  -0.3000000), wk =   0.0160000
        k(    5) = (  -0.4000000   0.4000000  -0.4000000), wk =   0.0160000
        k(    6) = (   0.5000000  -0.5000000   0.5000000), wk =   0.0080000
        k(    7) = (   0.0000000   0.2000000   0.0000000), wk =   0.0120000
        k(    8) = (  -0.1000000   0.3000000  -0.1000000), wk =   0.0480000
        k(    9) = (  -0.2000000   0.4000000  -0.2000000), wk =   0.0480000
        k(   10) = (  -0.3000000   0.5000000  -0.3000000), wk =   0.0480000
        k(   11) = (   0.6000000  -0.4000000   0.6000000), wk =   0.0480000
        k(   12) = (   0.5000000  -0.3000000   0.5000000), wk =   0.0480000
        k(   13) = (   0.4000000  -0.2000000   0.4000000), wk =   0.0480000
        k(   14) = (   0.3000000  -0.1000000   0.3000000), wk =   0.0480000
        k(   15) = (   0.2000000   0.0000000   0.2000000), wk =   0.0240000
        k(   16) = (   0.0000000   0.4000000   0.0000000), wk =   0.0120000
        k(   17) = (  -0.1000000   0.5000000  -0.1000000), wk =   0.0480000
        k(   18) = (  -0.2000000   0.6000000  -0.2000000), wk =   0.0480000
        k(   19) = (   0.7000000  -0.3000000   0.7000000), wk =   0.0480000
        k(   20) = (   0.6000000  -0.2000000   0.6000000), wk =   0.0480000
        k(   21) = (   0.5000000  -0.1000000   0.5000000), wk =   0.0480000
        k(   22) = (   0.4000000   0.0000000   0.4000000), wk =   0.0240000
        k(   23) = (   0.0000000   0.6000000   0.0000000), wk =   0.0120000
        k(   24) = (  -0.1000000   0.7000000  -0.1000000), wk =   0.0480000
        k(   25) = (   0.8000000  -0.2000000   0.8000000), wk =   0.0480000
        k(   26) = (   0.7000000  -0.1000000   0.7000000), wk =   0.0480000
        k(   27) = (   0.6000000  -0.0000000   0.6000000), wk =   0.0240000
        k(   28) = (   0.0000000   0.8000000   0.0000000), wk =   0.0120000
        k(   29) = (   0.9000000  -0.1000000   0.9000000), wk =   0.0480000
        k(   30) = (   0.8000000   0.0000000   0.8000000), wk =   0.0240000
        k(   31) = (   0.0000000  -1.0000000   0.0000000), wk =   0.0060000
        k(   32) = (  -0.2000000   0.4000000   0.0000000), wk =   0.0480000
        k(   33) = (  -0.3000000   0.5000000  -0.1000000), wk =   0.0960000
        k(   34) = (   0.6000000  -0.4000000   0.8000000), wk =   0.0960000
        k(   35) = (   0.5000000  -0.3000000   0.7000000), wk =   0.0480000
        k(   36) = (  -0.2000000   0.6000000   0.0000000), wk =   0.0480000
        k(   37) = (   0.7000000  -0.3000000   0.9000000), wk =   0.0960000
        k(   38) = (   0.6000000  -0.2000000   0.8000000), wk =   0.0960000
        k(   39) = (   0.5000000  -0.1000000   0.7000000), wk =   0.0960000
        k(   40) = (   0.4000000   0.0000000   0.6000000), wk =   0.0480000
        k(   41) = (   0.8000000  -0.2000000   1.0000000), wk =   0.0480000
        k(   42) = (   0.7000000  -0.1000000   0.9000000), wk =   0.0960000
        k(   43) = (   0.6000000   0.0000000   0.8000000), wk =   0.0480000
        k(   44) = (  -0.2000000  -1.0000000   0.0000000), wk =   0.0240000
        k(   45) = (   0.6000000  -0.2000000   1.0000000), wk =   0.0480000
        k(   46) = (   0.5000000  -0.1000000   0.9000000), wk =   0.0480000
        k(   47) = (  -0.4000000  -1.0000000   0.0000000), wk =   0.0240000

     Dense  grid:    23409 G-vectors     FFT dimensions: (  40,  40,  40)

     Estimated max dynamical RAM per process >      42.86 MB

     WARNING: libxc functional with ID  263 depends
      on external parameters: check the user_guide of
      QE if you need to modify them or to check their
      default values.

     Initial potential from superposition of free atoms

     starting charge       7.9987, renormalised to       8.0000
     Starting wfcs are   18 randomized atomic wfcs

     total cpu time spent up to now is       12.1 secs

     Self-consistent Calculation

     iteration #  1     ecut=    50.00 Ry     beta= 0.01
     Davidson diagonalization with overlap
     ethr =  1.00E-02,  avg # of iterations =  1.3

     Threshold (ethr) on eigenvalues was too large:
     Diagonalizing with lowered threshold

     Davidson diagonalization with overlap
     ethr =  2.09E-04,  avg # of iterations =  6.3

     total cpu time spent up to now is       36.2 secs

     total energy              =     -15.68570841 Ry
     estimated scf accuracy    <       0.02170197 Ry

     iteration #  2     ecut=    50.00 Ry     beta= 0.01
     Davidson diagonalization with overlap
     ethr =  2.71E-04,  avg # of iterations =  1.0

     total cpu time spent up to now is       42.7 secs

     total energy              =     -15.68529052 Ry
     estimated scf accuracy    <       0.02173044 Ry

     iteration #  3     ecut=    50.00 Ry     beta= 0.01
     Davidson diagonalization with overlap
     ethr =  2.71E-04,  avg # of iterations =  1.0

     total cpu time spent up to now is       49.4 secs

     total energy              =     -15.72108591 Ry
     estimated scf accuracy    <       0.02320166 Ry

     iteration #  4     ecut=    50.00 Ry     beta= 0.01
     Davidson diagonalization with overlap
     ethr =  2.71E-04,  avg # of iterations =  1.8

     total cpu time spent up to now is       55.6 secs

     total energy              =     -15.72257588 Ry
     estimated scf accuracy    <       0.00143157 Ry

     iteration #  5     ecut=    50.00 Ry     beta= 0.01
     Davidson diagonalization with overlap
     ethr =  1.79E-05,  avg # of iterations =  6.3

     total cpu time spent up to now is       67.6 secs

     total energy              =     -15.72398140 Ry
     estimated scf accuracy    <       0.00218052 Ry

     iteration #  6     ecut=    50.00 Ry     beta= 0.01
     Davidson diagonalization with overlap
     ethr =  1.79E-05,  avg # of iterations =  1.2

     total cpu time spent up to now is       73.3 secs

     total energy              =     -15.72392666 Ry
     estimated scf accuracy    <       0.00218356 Ry

     iteration #  7     ecut=    50.00 Ry     beta= 0.01
     Davidson diagonalization with overlap
     ethr =  1.79E-05,  avg # of iterations =  2.0

     total cpu time spent up to now is       79.3 secs

     total energy              =     -15.72408295 Ry
     estimated scf accuracy    <       0.00014924 Ry

     iteration #  8     ecut=    50.00 Ry     beta= 0.01
     Davidson diagonalization with overlap
     ethr =  1.87E-06,  avg # of iterations =  8.1

     total cpu time spent up to now is       92.9 secs

     total energy              =     -15.72430623 Ry
     estimated scf accuracy    <       0.00023184 Ry

     iteration #  9     ecut=    50.00 Ry     beta= 0.01
     Davidson diagonalization with overlap
     ethr =  1.87E-06,  avg # of iterations =  1.8

     total cpu time spent up to now is       97.2 secs

     total energy              =     -15.72428938 Ry
     estimated scf accuracy    <       0.00015159 Ry

     iteration # 10     ecut=    50.00 Ry     beta= 0.01
     Davidson diagonalization with overlap
     ethr =  1.87E-06,  avg # of iterations =  3.9

     total cpu time spent up to now is      104.5 secs

     total energy              =     -15.72435416 Ry
     estimated scf accuracy    <       0.00000477 Ry

     iteration # 11     ecut=    50.00 Ry     beta= 0.01
     Davidson diagonalization with overlap
     c_bands:  3 eigenvalues not converged
     c_bands:  3 eigenvalues not converged
     c_bands:  2 eigenvalues not converged
     c_bands:  3 eigenvalues not converged
     c_bands:  3 eigenvalues not converged
     c_bands:  1 eigenvalues not converged
     c_bands:  1 eigenvalues not converged
     c_bands:  3 eigenvalues not converged
     c_bands:  2 eigenvalues not converged
     c_bands:  1 eigenvalues not converged
     c_bands:  2 eigenvalues not converged
     c_bands:  2 eigenvalues not converged
     c_bands:  3 eigenvalues not converged
     c_bands:  3 eigenvalues not converged
     ethr =  5.96E-08,  avg # of iterations = 16.5

     total cpu time spent up to now is      131.7 secs

     total energy              =     -15.72441087 Ry
     estimated scf accuracy    <       0.00005467 Ry

     iteration # 12     ecut=    50.00 Ry     beta= 0.01
     Davidson diagonalization with overlap
     c_bands:  1 eigenvalues not converged
     ethr =  5.96E-08,  avg # of iterations =  4.5

     total cpu time spent up to now is      137.4 secs

     total energy              =     -15.72437611 Ry
     estimated scf accuracy    <       0.00008578 Ry

     iteration # 13     ecut=    50.00 Ry     beta= 0.01
     Davidson diagonalization with overlap
     ethr =  5.96E-08,  avg # of iterations =  5.7

     total cpu time spent up to now is      141.9 secs

     total energy              =     -15.72438167 Ry
     estimated scf accuracy    <       0.00001326 Ry

     iteration # 14     ecut=    50.00 Ry     beta= 0.01
     Davidson diagonalization with overlap
     ethr =  5.96E-08,  avg # of iterations =  3.0

     total cpu time spent up to now is      144.5 secs

     total energy              =     -15.72438307 Ry
     estimated scf accuracy    <       0.00000131 Ry

     iteration # 15     ecut=    50.00 Ry     beta= 0.01
     Davidson diagonalization with overlap
     c_bands:  1 eigenvalues not converged
     c_bands:  1 eigenvalues not converged
     ethr =  1.64E-08,  avg # of iterations =  6.8

     total cpu time spent up to now is      148.3 secs

     End of self-consistent calculation

          k = 0.0000 0.0000 0.0000 (  2891 PWs)   bands (ev):

    -8.6432  -1.6639   1.7191   1.7191

          k =-0.1000 0.1000-0.1000 (  2885 PWs)   bands (ev):

    -8.5654  -2.0300   1.5963   1.5964

          k =-0.2000 0.2000-0.2000 (  2899 PWs)   bands (ev):

    -8.3392  -2.8554   1.3369   1.3369

          k =-0.3000 0.3000-0.3000 (  2920 PWs)   bands (ev):

    -7.9941  -3.7738   1.0882   1.0882

          k =-0.4000 0.4000-0.4000 (  2944 PWs)   bands (ev):

    -7.6156  -4.5389   0.9216   0.9217

          k = 0.5000-0.5000 0.5000 (  2914 PWs)   bands (ev):

    -7.4238  -4.8655   0.8639   0.8639

          k = 0.0000 0.2000 0.0000 (  2898 PWs)   bands (ev):

    -8.5390  -2.1299   1.3941   1.3941

          k =-0.1000 0.3000-0.1000 (  2908 PWs)   bands (ev):

    -8.3605  -2.7579   1.0606   1.1104

          k =-0.2000 0.4000-0.2000 (  2916 PWs)   bands (ev):

    -8.0494  -3.6018   0.6546   0.8743

          k =-0.3000 0.5000-0.3000 (  2922 PWs)   bands (ev):

    -7.6646  -4.4022   0.3185   0.7431

          k = 0.6000-0.4000 0.6000 (  2915 PWs)   bands (ev):

    -7.3742  -4.8963   0.1228   0.7353

          k = 0.5000-0.3000 0.5000 (  2924 PWs)   bands (ev):

    -7.4445  -4.7835   0.0919   0.8488

          k = 0.4000-0.2000 0.4000 (  2925 PWs)   bands (ev):

    -7.7969  -4.1503   0.2367   1.0646

          k = 0.3000-0.1000 0.3000 (  2904 PWs)   bands (ev):

    -8.1676  -3.3136   0.5618   1.3370

          k = 0.2000 0.0000 0.2000 (  2882 PWs)   bands (ev):

    -8.4374  -2.5160   1.0544   1.5659

          k = 0.0000 0.4000 0.0000 (  2890 PWs)   bands (ev):

    -8.2293  -3.1026   0.8130   0.8130

          k =-0.1000 0.5000-0.1000 (  2912 PWs)   bands (ev):

    -7.9576  -3.7436   0.4228   0.5705

          k =-0.2000 0.6000-0.2000 (  2934 PWs)   bands (ev):

    -7.5833  -4.4608  -0.0459   0.4418

          k = 0.7000-0.3000 0.7000 (  2927 PWs)   bands (ev):

    -7.2244  -5.0272  -0.3976   0.4467

          k = 0.6000-0.2000 0.6000 (  2921 PWs)   bands (ev):

    -7.1655  -5.1111  -0.5480   0.5825

          k = 0.5000-0.1000 0.5000 (  2930 PWs)   bands (ev):

    -7.4765  -4.6437  -0.4562   0.8250

          k = 0.4000 0.0000 0.4000 (  2910 PWs)   bands (ev):

    -7.8629  -3.9645  -0.0893   1.1158

          k = 0.0000 0.6000 0.0000 (  2914 PWs)   bands (ev):

    -7.7239  -4.1821   0.3113   0.3113

          k =-0.1000 0.7000-0.1000 (  2920 PWs)   bands (ev):

    -7.3711  -4.7646  -0.0477   0.1639

          k = 0.8000-0.2000 0.8000 (  2921 PWs)   bands (ev):

    -6.9732  -5.3158  -0.5029   0.1538

          k = 0.7000-0.1000 0.7000 (  2926 PWs)   bands (ev):

    -6.8007  -5.5267  -0.7952   0.2814

          k = 0.6000-0.0000 0.6000 (  2930 PWs)   bands (ev):

    -7.0836  -5.1753  -0.8001   0.5245

          k = 0.0000 0.8000 0.0000 (  2926 PWs)   bands (ev):

    -7.0391  -5.2334  -0.0107  -0.0107

          k = 0.9000-0.1000 0.9000 (  2930 PWs)   bands (ev):

    -6.6253  -5.7365  -0.2925  -0.0493

          k = 0.8000 0.0000 0.8000 (  2936 PWs)   bands (ev):

    -6.4316  -5.9395  -0.6608   0.0539

          k = 0.0000-1.0000 0.0000 (  2954 PWs)   bands (ev):

    -6.1988  -6.1988  -0.1208  -0.1208

          k =-0.2000 0.4000 0.0000 (  2909 PWs)   bands (ev):

    -8.1364  -3.3593   0.4710   1.0127

          k =-0.3000 0.5000-0.1000 (  2919 PWs)   bands (ev):

    -7.7918  -4.1024   0.0013   0.7985

          k = 0.6000-0.4000 0.8000 (  2937 PWs)   bands (ev):

    -7.4066  -4.7747  -0.2810   0.6113

          k = 0.5000-0.3000 0.7000 (  2928 PWs)   bands (ev):

    -7.2049  -5.0797  -0.3739   0.5412

          k =-0.2000 0.6000 0.0000 (  2926 PWs)   bands (ev):

    -7.6473  -4.3264  -0.0006   0.3950

          k = 0.7000-0.3000 0.9000 (  2930 PWs)   bands (ev):

    -7.2546  -4.9418  -0.3999   0.2268

          k = 0.6000-0.2000 0.8000 (  2928 PWs)   bands (ev):

    -6.9453  -5.3586  -0.6620   0.1968

          k = 0.5000-0.1000 0.7000 (  2928 PWs)   bands (ev):

    -7.0472  -5.2267  -0.7106   0.3264

          k = 0.4000 0.0000 0.6000 (  2922 PWs)   bands (ev):

    -7.4257  -4.6964  -0.4953   0.5677

          k = 0.8000-0.2000 1.0000 (  2918 PWs)   bands (ev):

    -6.9898  -5.2902  -0.2608  -0.0545

          k = 0.7000-0.1000 0.9000 (  2926 PWs)   bands (ev):

    -6.6037  -5.7456  -0.5944  -0.1074

          k = 0.6000 0.0000 0.8000 (  2938 PWs)   bands (ev):

    -6.6568  -5.6820  -0.8040   0.0477

          k =-0.2000-1.0000 0.0000 (  2924 PWs)   bands (ev):

    -6.1921  -6.1921  -0.2797  -0.2797

          k = 0.6000-0.2000 1.0000 (  2913 PWs)   bands (ev):

    -6.8529  -5.4505  -0.6404  -0.0622

          k = 0.5000-0.1000 0.9000 (  2930 PWs)   bands (ev):

    -6.5899  -5.7519  -0.7122  -0.1955

          k =-0.4000-1.0000 0.0000 (  2938 PWs)   bands (ev):

    -6.1814  -6.1814  -0.4922  -0.4922

     highest occupied level (ev):     1.7191

!    total energy              =     -15.72438493 Ry
     estimated scf accuracy    <       0.00000062 Ry

     The total energy is the sum of the following terms:
     one-electron contribution =       0.63453202 Ry
     hartree contribution      =       1.69608018 Ry
     xc contribution           =      -4.27537686 Ry
     ewald contribution        =     -13.77962028 Ry

     convergence has been achieved in  15 iterations
     Writing meta-gga kinetic term

     Writing all to output data dir ./input_pw/Ge/10/pwscf.save/
     Writing meta-gga kinetic term
 
     init_run     :      5.81s CPU     12.10s WALL (       1 calls)
     electrons    :     97.87s CPU    136.21s WALL (       1 calls)

     Called by init_run:
     wfcinit      :      5.67s CPU     11.79s WALL (       1 calls)
     potinit      :      0.05s CPU      0.12s WALL (       1 calls)
     hinit0       :      0.07s CPU      0.16s WALL (       1 calls)

     Called by electrons:
     c_bands      :     85.47s CPU    118.78s WALL (      16 calls)
     sum_band     :     11.07s CPU     15.59s WALL (      16 calls)
     v_of_rho     :      0.68s CPU      1.01s WALL (      16 calls)
     mix_rho      :      0.67s CPU      0.88s WALL (      16 calls)

     Called by c_bands:
     init_us_2    :      0.54s CPU      0.78s WALL (    1551 calls)
     init_us_2:cp :      0.53s CPU      0.77s WALL (    1551 calls)
     cegterg      :     84.81s CPU    117.79s WALL (     752 calls)

     Called by *egterg:
     cdiaghg      :      0.32s CPU      0.43s WALL (    4042 calls)
     h_psi        :     88.16s CPU    126.39s WALL (    4136 calls)
     g_psi        :      0.10s CPU      0.14s WALL (    3337 calls)

     Called by h_psi:
     h_psi:calbec :      0.49s CPU      0.73s WALL (    4136 calls)
     vloc_psi     :     21.84s CPU     31.52s WALL (    4136 calls)
     add_vuspsi   :      0.36s CPU      0.48s WALL (    4136 calls)
     h_psi_meta   :     65.34s CPU     93.46s WALL (    4136 calls)

     General routines
     calbec       :      0.47s CPU      0.70s WALL (    4136 calls)
     fft          :      0.13s CPU      0.29s WALL (     191 calls)
     ffts         :      0.20s CPU      0.21s WALL (     294 calls)
     fftw         :     79.68s CPU    114.68s WALL (  120648 calls)
     interpolate  :      0.00s CPU      0.00s WALL (      16 calls)
 
     Parallel routines
 
     PWSCF        :   1m43.72s CPU   2m28.36s WALL

 
   This run was terminated on:  11:39:28  14Mar2023            

=------------------------------------------------------------------------------=
   JOB DONE.
=------------------------------------------------------------------------------=
