
     Program PWSCF v.7.0 starts on  7Jul2023 at 14:25:49 

     This program is part of the open-source Quantum ESPRESSO suite
     for quantum simulation of materials; please cite
         "P. Giannozzi et al., J. Phys.:Condens. Matter 21 395502 (2009);
         "P. Giannozzi et al., J. Phys.:Condens. Matter 29 465901 (2017);
         "P. Giannozzi et al., J. Chem. Phys. 152 154105 (2020);
          URL http://www.quantum-espresso.org", 
     in publications or presentations arising from this work. More details at
     http://www.quantum-espresso.org/quote

     Parallel version (MPI), running on     1 processors

     MPI processes distributed on     1 nodes
     27035 MiB available memory on the printing compute node when the environment starts
 
     Waiting for input...
     Reading input from standard input
Warning: card &CELL ignored
Warning: card / ignored

     Current dimensions of program PWSCF are:
     Max number of different atomic species (ntypx) = 10
     Max number of k-points (npk) =  40000
     Max angular momentum in pseudopotentials (lmaxx) =  4
     file Ge.SCAN.UPF2: wavefunction(s)  0D renormalized

     WARNING: the MGGA functional with ID    5 has been 
     read together with other dft terms, but it should 
     stand alone in order to work properly. The other 
     terms will be ignored.

     Subspace diagonalization in iterative solution of the eigenvalue problem:
     a serial algorithm will be used

 
     G-vector sticks info
     --------------------
     sticks:   dense  smooth     PW     G-vecs:    dense   smooth      PW
     Sum        1039    1039    313                22219    22219    3695
 
     Using Slab Decomposition
 


     bravais-lattice index     =            2
     lattice parameter (alat)  =      12.2884  a.u.
     unit-cell volume          =     463.8972 (a.u.)^3
     number of atoms/cell      =            2
     number of atomic types    =            1
     number of electrons       =         8.00
     number of Kohn-Sham states=            4
     kinetic-energy cutoff     =      50.0000  Ry
     charge density cutoff     =     200.0000  Ry
     scf convergence threshold =      2.0E-05
     mixing beta               =       0.2000
     number of iterations used =            8  local-TF  mixing
     Exchange-correlation= SLA  PW  SCAN SCAN
                           (   0   0   0   0   0 263 267)

     celldm(1)=  12.288360  celldm(2)=   0.000000  celldm(3)=   0.000000
     celldm(4)=   0.000000  celldm(5)=   0.000000  celldm(6)=   0.000000

     crystal axes: (cart. coord. in units of alat)
               a(1) = (  -0.500000   0.000000   0.500000 )  
               a(2) = (   0.000000   0.500000   0.500000 )  
               a(3) = (  -0.500000   0.500000   0.000000 )  

     reciprocal axes: (cart. coord. in units 2 pi/alat)
               b(1) = ( -1.000000 -1.000000  1.000000 )  
               b(2) = (  1.000000  1.000000  1.000000 )  
               b(3) = ( -1.000000  1.000000 -1.000000 )  


     PseudoPot. # 1 for Ge read from file:
     ~/Documents/TA/PWDFT.jl/pseudopotentials/scan_upf/Ge.SCAN.UPF2
     MD5 check sum: Not computed, couldn't open file
     Pseudo is Norm-conserving, Zval =  4.0
     Generated by new atomic code, or converted to UPF format
     Using radial grid of 1557 points,  2 beta functions with: 
                l(1) =   0
                l(2) =   1

     atomic species   valence    mass     pseudopotential
        Ge             4.00    72.64000     Ge( 1.00)

     48 Sym. Ops., with inversion, found (24 have fractional translation)



   Cartesian axes

     site n.     atom                  positions (alat units)
         1           Ge  tau(   1) = (   0.0000000   0.0000000   0.0000000  )
         2           Ge  tau(   2) = (   0.2500000   0.2500000   0.2500000  )

     number of k points=    47
                       cart. coord. in units 2pi/alat
        k(    1) = (   0.0000000   0.0000000   0.0000000), wk =   0.0020000
        k(    2) = (  -0.1000000   0.1000000  -0.1000000), wk =   0.0160000
        k(    3) = (  -0.2000000   0.2000000  -0.2000000), wk =   0.0160000
        k(    4) = (  -0.3000000   0.3000000  -0.3000000), wk =   0.0160000
        k(    5) = (  -0.4000000   0.4000000  -0.4000000), wk =   0.0160000
        k(    6) = (   0.5000000  -0.5000000   0.5000000), wk =   0.0080000
        k(    7) = (   0.0000000   0.2000000   0.0000000), wk =   0.0120000
        k(    8) = (  -0.1000000   0.3000000  -0.1000000), wk =   0.0480000
        k(    9) = (  -0.2000000   0.4000000  -0.2000000), wk =   0.0480000
        k(   10) = (  -0.3000000   0.5000000  -0.3000000), wk =   0.0480000
        k(   11) = (   0.6000000  -0.4000000   0.6000000), wk =   0.0480000
        k(   12) = (   0.5000000  -0.3000000   0.5000000), wk =   0.0480000
        k(   13) = (   0.4000000  -0.2000000   0.4000000), wk =   0.0480000
        k(   14) = (   0.3000000  -0.1000000   0.3000000), wk =   0.0480000
        k(   15) = (   0.2000000   0.0000000   0.2000000), wk =   0.0240000
        k(   16) = (   0.0000000   0.4000000   0.0000000), wk =   0.0120000
        k(   17) = (  -0.1000000   0.5000000  -0.1000000), wk =   0.0480000
        k(   18) = (  -0.2000000   0.6000000  -0.2000000), wk =   0.0480000
        k(   19) = (   0.7000000  -0.3000000   0.7000000), wk =   0.0480000
        k(   20) = (   0.6000000  -0.2000000   0.6000000), wk =   0.0480000
        k(   21) = (   0.5000000  -0.1000000   0.5000000), wk =   0.0480000
        k(   22) = (   0.4000000   0.0000000   0.4000000), wk =   0.0240000
        k(   23) = (   0.0000000   0.6000000   0.0000000), wk =   0.0120000
        k(   24) = (  -0.1000000   0.7000000  -0.1000000), wk =   0.0480000
        k(   25) = (   0.8000000  -0.2000000   0.8000000), wk =   0.0480000
        k(   26) = (   0.7000000  -0.1000000   0.7000000), wk =   0.0480000
        k(   27) = (   0.6000000  -0.0000000   0.6000000), wk =   0.0240000
        k(   28) = (   0.0000000   0.8000000   0.0000000), wk =   0.0120000
        k(   29) = (   0.9000000  -0.1000000   0.9000000), wk =   0.0480000
        k(   30) = (   0.8000000   0.0000000   0.8000000), wk =   0.0240000
        k(   31) = (   0.0000000  -1.0000000   0.0000000), wk =   0.0060000
        k(   32) = (  -0.2000000   0.4000000   0.0000000), wk =   0.0480000
        k(   33) = (  -0.3000000   0.5000000  -0.1000000), wk =   0.0960000
        k(   34) = (   0.6000000  -0.4000000   0.8000000), wk =   0.0960000
        k(   35) = (   0.5000000  -0.3000000   0.7000000), wk =   0.0480000
        k(   36) = (  -0.2000000   0.6000000   0.0000000), wk =   0.0480000
        k(   37) = (   0.7000000  -0.3000000   0.9000000), wk =   0.0960000
        k(   38) = (   0.6000000  -0.2000000   0.8000000), wk =   0.0960000
        k(   39) = (   0.5000000  -0.1000000   0.7000000), wk =   0.0960000
        k(   40) = (   0.4000000   0.0000000   0.6000000), wk =   0.0480000
        k(   41) = (   0.8000000  -0.2000000   1.0000000), wk =   0.0480000
        k(   42) = (   0.7000000  -0.1000000   0.9000000), wk =   0.0960000
        k(   43) = (   0.6000000   0.0000000   0.8000000), wk =   0.0480000
        k(   44) = (  -0.2000000  -1.0000000   0.0000000), wk =   0.0240000
        k(   45) = (   0.6000000  -0.2000000   1.0000000), wk =   0.0480000
        k(   46) = (   0.5000000  -0.1000000   0.9000000), wk =   0.0480000
        k(   47) = (  -0.4000000  -1.0000000   0.0000000), wk =   0.0240000

     Dense  grid:    22219 G-vectors     FFT dimensions: (  40,  40,  40)

     Estimated max dynamical RAM per process >      41.05 MB

     WARNING: libxc functional with ID  263 depends
      on external parameters: check the user_guide of
      QE if you need to modify them or to check their
      default values.

     Initial potential from superposition of free atoms

     starting charge       7.9987, renormalised to       8.0000
     Starting wfcs are   18 randomized atomic wfcs

     total cpu time spent up to now is       12.5 secs

     Self-consistent Calculation

     iteration #  1     ecut=    50.00 Ry     beta= 0.20
     Davidson diagonalization with overlap
     ethr =  1.00E-02,  avg # of iterations =  1.4

     Threshold (ethr) on eigenvalues was too large:
     Diagonalizing with lowered threshold

     Davidson diagonalization with overlap
     ethr =  2.17E-04,  avg # of iterations =  6.4

     total cpu time spent up to now is       38.0 secs

     total energy              =     -15.70931110 Ry
     estimated scf accuracy    <       0.02288667 Ry

     iteration #  2     ecut=    50.00 Ry     beta= 0.20
     Davidson diagonalization with overlap
     ethr =  2.86E-04,  avg # of iterations =  1.5

     total cpu time spent up to now is       45.6 secs

     total energy              =     -15.73965471 Ry
     estimated scf accuracy    <       0.01722308 Ry

     iteration #  3     ecut=    50.00 Ry     beta= 0.20
     Davidson diagonalization with overlap
     ethr =  2.15E-04,  avg # of iterations =  1.3

     total cpu time spent up to now is       53.3 secs

     total energy              =     -15.74072928 Ry
     estimated scf accuracy    <       0.00101232 Ry

     iteration #  4     ecut=    50.00 Ry     beta= 0.20
     Davidson diagonalization with overlap
     ethr =  1.27E-05,  avg # of iterations =  8.4

     total cpu time spent up to now is       76.4 secs

     total energy              =     -15.74229977 Ry
     estimated scf accuracy    <       0.00104171 Ry

     iteration #  5     ecut=    50.00 Ry     beta= 0.20
     Davidson diagonalization with overlap
     ethr =  1.27E-05,  avg # of iterations =  1.9

     total cpu time spent up to now is       84.9 secs

     total energy              =     -15.74236550 Ry
     estimated scf accuracy    <       0.00036890 Ry

     iteration #  6     ecut=    50.00 Ry     beta= 0.20
     Davidson diagonalization with overlap
     ethr =  4.61E-06,  avg # of iterations =  5.4

     total cpu time spent up to now is       97.2 secs

     total energy              =     -15.74254782 Ry
     estimated scf accuracy    <       0.00010902 Ry

     iteration #  7     ecut=    50.00 Ry     beta= 0.20
     Davidson diagonalization with overlap
     ethr =  1.36E-06,  avg # of iterations =  5.4

     total cpu time spent up to now is      107.4 secs

     total energy              =     -15.74263003 Ry
     estimated scf accuracy    <       0.00002896 Ry

     iteration #  8     ecut=    50.00 Ry     beta= 0.20
     Davidson diagonalization with overlap
     ethr =  3.62E-07,  avg # of iterations =  6.6

     total cpu time spent up to now is      117.6 secs

     End of self-consistent calculation

          k = 0.0000 0.0000 0.0000 (  2733 PWs)   bands (ev):

    -8.5327  -0.9521   2.0630   2.0630

          k =-0.1000 0.1000-0.1000 (  2746 PWs)   bands (ev):

    -8.4501  -1.3949   1.9313   1.9314

          k =-0.2000 0.2000-0.2000 (  2761 PWs)   bands (ev):

    -8.2098  -2.3433   1.6552   1.6553

          k =-0.3000 0.3000-0.3000 (  2785 PWs)   bands (ev):

    -7.8419  -3.3629   1.3923   1.3923

          k =-0.4000 0.4000-0.4000 (  2770 PWs)   bands (ev):

    -7.4359  -4.2006   1.2169   1.2170

          k = 0.5000-0.5000 0.5000 (  2788 PWs)   bands (ev):

    -7.2283  -4.5577   1.1561   1.1562

          k = 0.0000 0.2000 0.0000 (  2758 PWs)   bands (ev):

    -8.4221  -1.5079   1.7128   1.7129

          k =-0.1000 0.3000-0.1000 (  2763 PWs)   bands (ev):

    -8.2326  -2.2243   1.3644   1.4108

          k =-0.2000 0.4000-0.2000 (  2773 PWs)   bands (ev):

    -7.9015  -3.1634   0.9450   1.1617

          k =-0.3000 0.5000-0.3000 (  2773 PWs)   bands (ev):

    -7.4899  -4.0410   0.5977   1.0246

          k = 0.6000-0.4000 0.6000 (  2776 PWs)   bands (ev):

    -7.1765  -4.5809   0.3930   1.0180

          k = 0.5000-0.3000 0.5000 (  2776 PWs)   bands (ev):

    -7.2525  -4.4577   0.3559   1.1394

          k = 0.4000-0.2000 0.4000 (  2773 PWs)   bands (ev):

    -7.6315  -3.7659   0.4988   1.3688

          k = 0.3000-0.1000 0.3000 (  2767 PWs)   bands (ev):

    -8.0274  -2.8460   0.8309   1.6581

          k = 0.2000 0.0000 0.2000 (  2755 PWs)   bands (ev):

    -8.3142  -1.9544   1.3483   1.9013

          k = 0.0000 0.4000 0.0000 (  2770 PWs)   bands (ev):

    -8.0935  -2.5988   1.0940   1.0940

          k =-0.1000 0.5000-0.1000 (  2773 PWs)   bands (ev):

    -7.8046  -3.3019   0.6823   0.8378

          k =-0.2000 0.6000-0.2000 (  2773 PWs)   bands (ev):

    -7.4053  -4.0837   0.1892   0.7030

          k = 0.7000-0.3000 0.7000 (  2771 PWs)   bands (ev):

    -7.0195  -4.6998  -0.1813   0.7097

          k = 0.6000-0.2000 0.6000 (  2776 PWs)   bands (ev):

    -6.9554  -4.7919  -0.3431   0.8549

          k = 0.5000-0.1000 0.5000 (  2767 PWs)   bands (ev):

    -7.2899  -4.2847  -0.2521   1.1130

          k = 0.4000 0.0000 0.4000 (  2774 PWs)   bands (ev):

    -7.7030  -3.5498   0.1330   1.4228

          k = 0.0000 0.6000 0.0000 (  2778 PWs)   bands (ev):

    -7.5567  -3.7719   0.5633   0.5633

          k =-0.1000 0.7000-0.1000 (  2772 PWs)   bands (ev):

    -7.1811  -4.3999   0.1808   0.4082

          k = 0.8000-0.2000 0.8000 (  2772 PWs)   bands (ev):

    -6.7551  -4.9932  -0.3055   0.3983

          k = 0.7000-0.1000 0.7000 (  2765 PWs)   bands (ev):

    -6.5678  -5.2224  -0.6184   0.5344

          k = 0.6000-0.0000 0.6000 (  2764 PWs)   bands (ev):

    -6.8703  -4.8475  -0.6241   0.7929

          k = 0.0000 0.8000 0.0000 (  2790 PWs)   bands (ev):

    -6.8284  -4.9013   0.2236   0.2236

          k = 0.9000-0.1000 0.9000 (  2780 PWs)   bands (ev):

    -6.3868  -5.4391  -0.0796   0.1833

          k = 0.8000 0.0000 0.8000 (  2772 PWs)   bands (ev):

    -6.1762  -5.6586  -0.4765   0.2928

          k = 0.0000-1.0000 0.0000 (  2778 PWs)   bands (ev):

    -5.9328  -5.9328   0.1076   0.1076

          k =-0.2000 0.4000 0.0000 (  2775 PWs)   bands (ev):

    -7.9945  -2.8875   0.7284   1.3141

          k =-0.3000 0.5000-0.1000 (  2771 PWs)   bands (ev):

    -7.6273  -3.6996   0.2350   1.0854

          k = 0.6000-0.4000 0.8000 (  2772 PWs)   bands (ev):

    -7.2144  -4.4317  -0.0555   0.8847

          k = 0.5000-0.3000 0.7000 (  2776 PWs)   bands (ev):

    -6.9965  -4.7642  -0.1502   0.8093

          k =-0.2000 0.6000 0.0000 (  2768 PWs)   bands (ev):

    -7.4744  -3.9311   0.2293   0.6530

          k = 0.7000-0.3000 0.9000 (  2766 PWs)   bands (ev):

    -7.0549  -4.5946  -0.1940   0.4728

          k = 0.6000-0.2000 0.8000 (  2772 PWs)   bands (ev):

    -6.7221  -5.0453  -0.4720   0.4407

          k = 0.5000-0.1000 0.7000 (  2769 PWs)   bands (ev):

    -6.8312  -4.9036  -0.5257   0.5794

          k = 0.4000 0.0000 0.6000 (  2771 PWs)   bands (ev):

    -7.2367  -4.3341  -0.2983   0.8377

          k = 0.8000-0.2000 1.0000 (  2769 PWs)   bands (ev):

    -6.7746  -4.9623  -0.0460   0.1734

          k = 0.7000-0.1000 0.9000 (  2770 PWs)   bands (ev):

    -6.3611  -5.4497  -0.4051   0.1168

          k = 0.6000 0.0000 0.8000 (  2771 PWs)   bands (ev):

    -6.4151  -5.3842  -0.6298   0.2821

          k =-0.2000-1.0000 0.0000 (  2782 PWs)   bands (ev):

    -5.9247  -5.9247  -0.0661  -0.0661

          k = 0.6000-0.2000 1.0000 (  2767 PWs)   bands (ev):

    -6.6260  -5.1353  -0.4538   0.1622

          k = 0.5000-0.1000 0.9000 (  2768 PWs)   bands (ev):

    -6.3445  -5.4570  -0.5312   0.0195

          k =-0.4000-1.0000 0.0000 (  2768 PWs)   bands (ev):

    -5.9114  -5.9114  -0.2972  -0.2972

     highest occupied level (ev):     2.0630

!    total energy              =     -15.74266064 Ry
     estimated scf accuracy    <       0.00000037 Ry

     The total energy is the sum of the following terms:
     one-electron contribution =       0.96399782 Ry
     hartree contribution      =       1.63435866 Ry
     xc contribution           =      -4.31330800 Ry
     ewald contribution        =     -14.02770913 Ry

     convergence has been achieved in   8 iterations
     Writing meta-gga kinetic term

     Writing all to output data dir ./input_pw/Ge/10/pwscf.save/
     Writing meta-gga kinetic term
 
     init_run     :      6.09s CPU     12.46s WALL (       1 calls)
     electrons    :     60.86s CPU    105.15s WALL (       1 calls)

     Called by init_run:
     wfcinit      :      5.95s CPU     12.22s WALL (       1 calls)
     potinit      :      0.04s CPU      0.09s WALL (       1 calls)
     hinit0       :      0.07s CPU      0.11s WALL (       1 calls)

     Called by electrons:
     c_bands      :     52.81s CPU     90.84s WALL (       9 calls)
     sum_band     :      7.33s CPU     13.07s WALL (       9 calls)
     v_of_rho     :      0.41s CPU      0.74s WALL (       9 calls)
     mix_rho      :      0.33s CPU      0.55s WALL (       9 calls)

     Called by c_bands:
     init_us_2    :      0.34s CPU      0.74s WALL (     893 calls)
     init_us_2:cp :      0.34s CPU      0.71s WALL (     893 calls)
     cegterg      :     52.40s CPU     90.12s WALL (     423 calls)

     Called by *egterg:
     cdiaghg      :      0.20s CPU      0.40s WALL (    2176 calls)
     h_psi        :     56.85s CPU     99.85s WALL (    2270 calls)
     g_psi        :      0.06s CPU      0.12s WALL (    1800 calls)

     Called by h_psi:
     h_psi:calbec :      0.32s CPU      0.48s WALL (    2270 calls)
     vloc_psi     :     14.09s CPU     24.76s WALL (    2270 calls)
     add_vuspsi   :      0.22s CPU      0.39s WALL (    2270 calls)
     h_psi_meta   :     42.11s CPU     73.95s WALL (    2270 calls)

     General routines
     calbec       :      0.31s CPU      0.48s WALL (    2270 calls)
     fft          :      0.08s CPU      0.19s WALL (     107 calls)
     ffts         :      0.11s CPU      0.19s WALL (     145 calls)
     fftw         :     50.42s CPU     88.97s WALL (   67848 calls)
     interpolate  :      0.00s CPU      0.00s WALL (       9 calls)
 
     Parallel routines
 
     PWSCF        :   1m 7.00s CPU   1m57.68s WALL

 
   This run was terminated on:  14:27:47   7Jul2023            

=------------------------------------------------------------------------------=
   JOB DONE.
=------------------------------------------------------------------------------=
