
     Program PWSCF v.7.0 starts on 14Mar2023 at 11:36:59 

     This program is part of the open-source Quantum ESPRESSO suite
     for quantum simulation of materials; please cite
         "P. Giannozzi et al., J. Phys.:Condens. Matter 21 395502 (2009);
         "P. Giannozzi et al., J. Phys.:Condens. Matter 29 465901 (2017);
         "P. Giannozzi et al., J. Chem. Phys. 152 154105 (2020);
          URL http://www.quantum-espresso.org", 
     in publications or presentations arising from this work. More details at
     http://www.quantum-espresso.org/quote

     Parallel version (MPI), running on     1 processors

     MPI processes distributed on     1 nodes
     27051 MiB available memory on the printing compute node when the environment starts
 
     Waiting for input...
     Reading input from standard input
Warning: card &CELL ignored
Warning: card / ignored

     Current dimensions of program PWSCF are:
     Max number of different atomic species (ntypx) = 10
     Max number of k-points (npk) =  40000
     Max angular momentum in pseudopotentials (lmaxx) =  4
     file Ge.SCAN.UPF2: wavefunction(s)  0D renormalized

     WARNING: the MGGA functional with ID    5 has been 
     read together with other dft terms, but it should 
     stand alone in order to work properly. The other 
     terms will be ignored.

     Subspace diagonalization in iterative solution of the eigenvalue problem:
     a serial algorithm will be used

 
     G-vector sticks info
     --------------------
     sticks:   dense  smooth     PW     G-vecs:    dense   smooth      PW
     Sum         637     637    199                10417    10417    1837
 
     Using Slab Decomposition
 


     bravais-lattice index     =            2
     lattice parameter (alat)  =       9.5468  a.u.
     unit-cell volume          =     217.5272 (a.u.)^3
     number of atoms/cell      =            2
     number of atomic types    =            1
     number of electrons       =         8.00
     number of Kohn-Sham states=            4
     kinetic-energy cutoff     =      50.0000  Ry
     charge density cutoff     =     200.0000  Ry
     scf convergence threshold =      1.0E-06
     mixing beta               =       0.0100
     number of iterations used =            8  local-TF  mixing
     Exchange-correlation= SLA  PW  SCAN SCAN
                           (   0   0   0   0   0 263 267)

     celldm(1)=   9.546800  celldm(2)=   0.000000  celldm(3)=   0.000000
     celldm(4)=   0.000000  celldm(5)=   0.000000  celldm(6)=   0.000000

     crystal axes: (cart. coord. in units of alat)
               a(1) = (  -0.500000   0.000000   0.500000 )  
               a(2) = (   0.000000   0.500000   0.500000 )  
               a(3) = (  -0.500000   0.500000   0.000000 )  

     reciprocal axes: (cart. coord. in units 2 pi/alat)
               b(1) = ( -1.000000 -1.000000  1.000000 )  
               b(2) = (  1.000000  1.000000  1.000000 )  
               b(3) = ( -1.000000  1.000000 -1.000000 )  


     PseudoPot. # 1 for Ge read from file:
     ~/Documents/TA/PWDFT.jl/pseudopotentials/scan_upf/Ge.SCAN.UPF2
     MD5 check sum: Not computed, couldn't open file
     Pseudo is Norm-conserving, Zval =  4.0
     Generated by new atomic code, or converted to UPF format
     Using radial grid of 1557 points,  2 beta functions with: 
                l(1) =   0
                l(2) =   1

     atomic species   valence    mass     pseudopotential
        Ge             4.00    72.64000     Ge( 1.00)

     48 Sym. Ops., with inversion, found (24 have fractional translation)



   Cartesian axes

     site n.     atom                  positions (alat units)
         1           Ge  tau(   1) = (   0.0000000   0.0000000   0.0000000  )
         2           Ge  tau(   2) = (   0.2500000   0.2500000   0.2500000  )

     number of k points=    47
                       cart. coord. in units 2pi/alat
        k(    1) = (   0.0000000   0.0000000   0.0000000), wk =   0.0020000
        k(    2) = (  -0.1000000   0.1000000  -0.1000000), wk =   0.0160000
        k(    3) = (  -0.2000000   0.2000000  -0.2000000), wk =   0.0160000
        k(    4) = (  -0.3000000   0.3000000  -0.3000000), wk =   0.0160000
        k(    5) = (  -0.4000000   0.4000000  -0.4000000), wk =   0.0160000
        k(    6) = (   0.5000000  -0.5000000   0.5000000), wk =   0.0080000
        k(    7) = (   0.0000000   0.2000000   0.0000000), wk =   0.0120000
        k(    8) = (  -0.1000000   0.3000000  -0.1000000), wk =   0.0480000
        k(    9) = (  -0.2000000   0.4000000  -0.2000000), wk =   0.0480000
        k(   10) = (  -0.3000000   0.5000000  -0.3000000), wk =   0.0480000
        k(   11) = (   0.6000000  -0.4000000   0.6000000), wk =   0.0480000
        k(   12) = (   0.5000000  -0.3000000   0.5000000), wk =   0.0480000
        k(   13) = (   0.4000000  -0.2000000   0.4000000), wk =   0.0480000
        k(   14) = (   0.3000000  -0.1000000   0.3000000), wk =   0.0480000
        k(   15) = (   0.2000000   0.0000000   0.2000000), wk =   0.0240000
        k(   16) = (   0.0000000   0.4000000   0.0000000), wk =   0.0120000
        k(   17) = (  -0.1000000   0.5000000  -0.1000000), wk =   0.0480000
        k(   18) = (  -0.2000000   0.6000000  -0.2000000), wk =   0.0480000
        k(   19) = (   0.7000000  -0.3000000   0.7000000), wk =   0.0480000
        k(   20) = (   0.6000000  -0.2000000   0.6000000), wk =   0.0480000
        k(   21) = (   0.5000000  -0.1000000   0.5000000), wk =   0.0480000
        k(   22) = (   0.4000000   0.0000000   0.4000000), wk =   0.0240000
        k(   23) = (   0.0000000   0.6000000   0.0000000), wk =   0.0120000
        k(   24) = (  -0.1000000   0.7000000  -0.1000000), wk =   0.0480000
        k(   25) = (   0.8000000  -0.2000000   0.8000000), wk =   0.0480000
        k(   26) = (   0.7000000  -0.1000000   0.7000000), wk =   0.0480000
        k(   27) = (   0.6000000  -0.0000000   0.6000000), wk =   0.0240000
        k(   28) = (   0.0000000   0.8000000   0.0000000), wk =   0.0120000
        k(   29) = (   0.9000000  -0.1000000   0.9000000), wk =   0.0480000
        k(   30) = (   0.8000000   0.0000000   0.8000000), wk =   0.0240000
        k(   31) = (   0.0000000  -1.0000000   0.0000000), wk =   0.0060000
        k(   32) = (  -0.2000000   0.4000000   0.0000000), wk =   0.0480000
        k(   33) = (  -0.3000000   0.5000000  -0.1000000), wk =   0.0960000
        k(   34) = (   0.6000000  -0.4000000   0.8000000), wk =   0.0960000
        k(   35) = (   0.5000000  -0.3000000   0.7000000), wk =   0.0480000
        k(   36) = (  -0.2000000   0.6000000   0.0000000), wk =   0.0480000
        k(   37) = (   0.7000000  -0.3000000   0.9000000), wk =   0.0960000
        k(   38) = (   0.6000000  -0.2000000   0.8000000), wk =   0.0960000
        k(   39) = (   0.5000000  -0.1000000   0.7000000), wk =   0.0960000
        k(   40) = (   0.4000000   0.0000000   0.6000000), wk =   0.0480000
        k(   41) = (   0.8000000  -0.2000000   1.0000000), wk =   0.0480000
        k(   42) = (   0.7000000  -0.1000000   0.9000000), wk =   0.0960000
        k(   43) = (   0.6000000   0.0000000   0.8000000), wk =   0.0480000
        k(   44) = (  -0.2000000  -1.0000000   0.0000000), wk =   0.0240000
        k(   45) = (   0.6000000  -0.2000000   1.0000000), wk =   0.0480000
        k(   46) = (   0.5000000  -0.1000000   0.9000000), wk =   0.0480000
        k(   47) = (  -0.4000000  -1.0000000   0.0000000), wk =   0.0240000

     Dense  grid:    10417 G-vectors     FFT dimensions: (  32,  32,  32)

     Estimated max dynamical RAM per process >      19.61 MB

     WARNING: libxc functional with ID  263 depends
      on external parameters: check the user_guide of
      QE if you need to modify them or to check their
      default values.

     Initial potential from superposition of free atoms

     starting charge       7.9987, renormalised to       8.0000
     Starting wfcs are   18 randomized atomic wfcs

     total cpu time spent up to now is        3.8 secs

     Self-consistent Calculation

     iteration #  1     ecut=    50.00 Ry     beta= 0.01
     Davidson diagonalization with overlap
     ethr =  1.00E-02,  avg # of iterations =  1.9

     Threshold (ethr) on eigenvalues was too large:
     Diagonalizing with lowered threshold

     Davidson diagonalization with overlap
     ethr =  6.26E-04,  avg # of iterations =  5.7

     total cpu time spent up to now is       11.2 secs

     total energy              =     -15.57826130 Ry
     estimated scf accuracy    <       0.05910806 Ry

     iteration #  2     ecut=    50.00 Ry     beta= 0.01
     Davidson diagonalization with overlap
     ethr =  7.39E-04,  avg # of iterations =  1.1

     total cpu time spent up to now is       13.4 secs

     total energy              =     -15.63161387 Ry
     estimated scf accuracy    <       0.05896784 Ry

     iteration #  3     ecut=    50.00 Ry     beta= 0.01
     Davidson diagonalization with overlap
     ethr =  7.37E-04,  avg # of iterations =  1.0

     total cpu time spent up to now is       15.4 secs

     total energy              =     -15.68713158 Ry
     estimated scf accuracy    <       0.04669395 Ry

     iteration #  4     ecut=    50.00 Ry     beta= 0.01
     Davidson diagonalization with overlap
     ethr =  5.84E-04,  avg # of iterations =  1.1

     total cpu time spent up to now is       17.5 secs

     total energy              =     -15.68961350 Ry
     estimated scf accuracy    <       0.00511938 Ry

     iteration #  5     ecut=    50.00 Ry     beta= 0.01
     Davidson diagonalization with overlap
     c_bands:  2 eigenvalues not converged
     ethr =  6.40E-05,  avg # of iterations =  7.8

     total cpu time spent up to now is       22.6 secs

     total energy              =     -15.69652215 Ry
     estimated scf accuracy    <       0.00900515 Ry

     iteration #  6     ecut=    50.00 Ry     beta= 0.01
     Davidson diagonalization with overlap
     ethr =  6.40E-05,  avg # of iterations =  1.7

     total cpu time spent up to now is       24.5 secs

     total energy              =     -15.69820311 Ry
     estimated scf accuracy    <       0.00916218 Ry

     iteration #  7     ecut=    50.00 Ry     beta= 0.01
     Davidson diagonalization with overlap
     ethr =  6.40E-05,  avg # of iterations =  1.1

     total cpu time spent up to now is       26.8 secs

     total energy              =     -15.69305431 Ry
     estimated scf accuracy    <       0.01606159 Ry

     iteration #  8     ecut=    50.00 Ry     beta= 0.01
     Davidson diagonalization with overlap
     ethr =  6.40E-05,  avg # of iterations =  2.0

     total cpu time spent up to now is       29.3 secs

     total energy              =     -15.69377799 Ry
     estimated scf accuracy    <       0.00021556 Ry

     iteration #  9     ecut=    50.00 Ry     beta= 0.01
     Davidson diagonalization with overlap
     ethr =  2.69E-06,  avg # of iterations = 13.7

     total cpu time spent up to now is       39.5 secs

     total energy              =     -15.69476842 Ry
     estimated scf accuracy    <       0.00030717 Ry

     iteration # 10     ecut=    50.00 Ry     beta= 0.01
     Davidson diagonalization with overlap
     ethr =  2.69E-06,  avg # of iterations =  1.6

     total cpu time spent up to now is       42.1 secs

     total energy              =     -15.69472904 Ry
     estimated scf accuracy    <       0.00006899 Ry

     iteration # 11     ecut=    50.00 Ry     beta= 0.01
     Davidson diagonalization with overlap
     ethr =  8.62E-07,  avg # of iterations =  4.9

     total cpu time spent up to now is       46.4 secs

     total energy              =     -15.69446980 Ry
     estimated scf accuracy    <       0.00014938 Ry

     iteration # 12     ecut=    50.00 Ry     beta= 0.01
     Davidson diagonalization with overlap
     ethr =  8.62E-07,  avg # of iterations =  6.9

     total cpu time spent up to now is       50.8 secs

     total energy              =     -15.69473621 Ry
     estimated scf accuracy    <       0.00039790 Ry

     iteration # 13     ecut=    50.00 Ry     beta= 0.01
     Davidson diagonalization with overlap
     ethr =  8.62E-07,  avg # of iterations =  1.1

     total cpu time spent up to now is       52.6 secs

     total energy              =     -15.69510003 Ry
     estimated scf accuracy    <       0.00034723 Ry

     iteration # 14     ecut=    50.00 Ry     beta= 0.01
     Davidson diagonalization with overlap
     ethr =  8.62E-07,  avg # of iterations =  5.7

     total cpu time spent up to now is       56.3 secs

     total energy              =     -15.69496733 Ry
     estimated scf accuracy    <       0.00072290 Ry

     iteration # 15     ecut=    50.00 Ry     beta= 0.01
     Davidson diagonalization with overlap
     ethr =  8.62E-07,  avg # of iterations =  1.9

     total cpu time spent up to now is       58.3 secs

     total energy              =     -15.69493640 Ry
     estimated scf accuracy    <       0.00050775 Ry

     iteration # 16     ecut=    50.00 Ry     beta= 0.01
     Davidson diagonalization with overlap
     ethr =  8.62E-07,  avg # of iterations =  1.0

     total cpu time spent up to now is       60.0 secs

     total energy              =     -15.69484192 Ry
     estimated scf accuracy    <       0.00040615 Ry

     iteration # 17     ecut=    50.00 Ry     beta= 0.01
     Davidson diagonalization with overlap
     ethr =  8.62E-07,  avg # of iterations =  4.9

     total cpu time spent up to now is       63.2 secs

     total energy              =     -15.69490731 Ry
     estimated scf accuracy    <       0.00000409 Ry

     iteration # 18     ecut=    50.00 Ry     beta= 0.01
     Davidson diagonalization with overlap
     c_bands:  3 eigenvalues not converged
     c_bands:  2 eigenvalues not converged
     ethr =  5.11E-08,  avg # of iterations = 16.6

     total cpu time spent up to now is       72.4 secs

     total energy              =     -15.69489408 Ry
     estimated scf accuracy    <       0.00010250 Ry

     iteration # 19     ecut=    50.00 Ry     beta= 0.01
     Davidson diagonalization with overlap
     ethr =  5.11E-08,  avg # of iterations =  7.7

     total cpu time spent up to now is       77.1 secs

     total energy              =     -15.69491019 Ry
     estimated scf accuracy    <       0.00000693 Ry

     iteration # 20     ecut=    50.00 Ry     beta= 0.01
     Davidson diagonalization with overlap
     ethr =  5.11E-08,  avg # of iterations =  1.8

     total cpu time spent up to now is       78.9 secs

     total energy              =     -15.69490721 Ry
     estimated scf accuracy    <       0.00001272 Ry

     iteration # 21     ecut=    50.00 Ry     beta= 0.01
     Davidson diagonalization with overlap
     ethr =  5.11E-08,  avg # of iterations =  1.0

     total cpu time spent up to now is       80.7 secs

     total energy              =     -15.69492812 Ry
     estimated scf accuracy    <       0.00000727 Ry

     iteration # 22     ecut=    50.00 Ry     beta= 0.01
     Davidson diagonalization with overlap
     ethr =  5.11E-08,  avg # of iterations =  6.8

     total cpu time spent up to now is       84.7 secs

     total energy              =     -15.69490073 Ry
     estimated scf accuracy    <       0.00008865 Ry

     iteration # 23     ecut=    50.00 Ry     beta= 0.01
     Davidson diagonalization with overlap
     ethr =  5.11E-08,  avg # of iterations =  6.1

     total cpu time spent up to now is       88.1 secs

     End of self-consistent calculation

          k = 0.0000 0.0000 0.0000 (  1291 PWs)   bands (ev):

    -6.2545   9.6950   9.6950   9.6950

          k =-0.1000 0.1000-0.1000 (  1303 PWs)   bands (ev):

    -6.0883   7.9952   9.3427   9.3427

          k =-0.2000 0.2000-0.2000 (  1315 PWs)   bands (ev):

    -5.5955   5.3757   8.7119   8.7119

          k =-0.3000 0.3000-0.3000 (  1305 PWs)   bands (ev):

    -4.8019   2.9263   8.1781   8.1781

          k =-0.4000 0.4000-0.4000 (  1299 PWs)   bands (ev):

    -3.8144   0.9163   7.8437   7.8437

          k = 0.5000-0.5000 0.5000 (  1308 PWs)   bands (ev):

    -3.1885  -0.0540   7.7311   7.7311

          k = 0.0000 0.2000 0.0000 (  1299 PWs)   bands (ev):

    -6.0326   8.4362   8.7091   8.7091

          k =-0.1000 0.3000-0.1000 (  1309 PWs)   bands (ev):

    -5.6474   6.2030   8.0219   8.3704

          k =-0.2000 0.4000-0.2000 (  1310 PWs)   bands (ev):

    -4.9491   3.7500   7.5289   7.7160

          k =-0.3000 0.5000-0.3000 (  1304 PWs)   bands (ev):

    -4.0019   1.5984   7.1012   7.3010

          k = 0.6000-0.4000 0.6000 (  1307 PWs)   bands (ev):

    -3.1282   0.1664   6.6659   7.3501

          k = 0.5000-0.3000 0.5000 (  1297 PWs)   bands (ev):

    -3.3616   0.5145   6.4672   7.6594

          k = 0.4000-0.2000 0.4000 (  1298 PWs)   bands (ev):

    -4.3387   2.2725   6.5402   8.1869

          k = 0.3000-0.1000 0.3000 (  1306 PWs)   bands (ev):

    -5.2162   4.5416   6.9178   8.8434

          k = 0.2000 0.0000 0.2000 (  1311 PWs)   bands (ev):

    -5.8127   6.8064   7.7837   9.3923

          k = 0.0000 0.4000 0.0000 (  1307 PWs)   bands (ev):

    -5.3697   6.1467   7.2907   7.2907

          k =-0.1000 0.5000-0.1000 (  1308 PWs)   bands (ev):

    -4.7723   4.3561   6.5959   6.7635

          k =-0.2000 0.6000-0.2000 (  1286 PWs)   bands (ev):

    -3.8941   2.3401   5.7318   6.5209

          k = 0.7000-0.3000 0.7000 (  1290 PWs)   bands (ev):

    -2.9141   0.6961   5.0213   6.5841

          k = 0.6000-0.2000 0.6000 (  1295 PWs)   bands (ev):

    -2.6979   0.3988   4.5910   6.9427

          k = 0.5000-0.1000 0.5000 (  1302 PWs)   bands (ev):

    -3.5853   1.7779   4.5249   7.5516

          k = 0.4000 0.0000 0.4000 (  1313 PWs)   bands (ev):

    -4.5259   3.4932   5.1093   8.2909

          k = 0.0000 0.6000 0.0000 (  1291 PWs)   bands (ev):

    -4.2751   3.6971   6.1760   6.1760

          k =-0.1000 0.7000-0.1000 (  1297 PWs)   bands (ev):

    -3.4803   2.3168   5.2830   5.8699

          k = 0.8000-0.2000 0.8000 (  1296 PWs)   bands (ev):

    -2.4863   0.9344   4.1358   5.8773

          k = 0.7000-0.1000 0.7000 (  1297 PWs)   bands (ev):

    -1.8994   0.2589   3.3700   6.1961

          k = 0.6000-0.0000 0.6000 (  1306 PWs)   bands (ev):

    -2.6252   1.0626   3.3263   6.7899

          k = 0.0000 0.8000 0.0000 (  1290 PWs)   bands (ev):

    -2.7682   1.3045   5.4850   5.4850

          k = 0.9000-0.1000 0.9000 (  1299 PWs)   bands (ev):

    -1.8083   0.1806   4.6585   5.4121

          k = 0.8000 0.0000 0.8000 (  1296 PWs)   bands (ev):

    -1.1397  -0.3994   3.5662   5.6577

          k = 0.0000-1.0000 0.0000 (  1298 PWs)   bands (ev):

    -0.8863  -0.8863   5.2518   5.2518

          k =-0.2000 0.4000 0.0000 (  1313 PWs)   bands (ev):

    -5.1569   5.0013   6.4172   8.1290

          k =-0.3000 0.5000-0.1000 (  1300 PWs)   bands (ev):

    -4.3664   3.0351   5.6267   7.5283

          k = 0.6000-0.4000 0.8000 (  1289 PWs)   bands (ev):

    -3.3789   1.1502   5.3466   6.9759

          k = 0.5000-0.3000 0.7000 (  1294 PWs)   bands (ev):

    -2.7445   0.2014   5.2810   6.7571

          k =-0.2000 0.6000 0.0000 (  1302 PWs)   bands (ev):

    -4.0781   3.1706   5.3630   6.4068

          k = 0.7000-0.3000 0.9000 (  1296 PWs)   bands (ev):

    -3.1333   1.6518   4.5311   5.9060

          k = 0.6000-0.2000 0.8000 (  1290 PWs)   bands (ev):

    -2.2492   0.4395   3.9889   5.8211

          k = 0.5000-0.1000 0.7000 (  1293 PWs)   bands (ev):

    -2.5231   0.8037   3.7591   6.1807

          k = 0.4000 0.0000 0.6000 (  1299 PWs)   bands (ev):

    -3.5053   2.1131   4.1429   6.8429

          k = 0.8000-0.2000 1.0000 (  1304 PWs)   bands (ev):

    -2.6063   1.1942   4.7638   5.2043

          k = 0.7000-0.1000 0.9000 (  1294 PWs)   bands (ev):

    -1.6168   0.1547   3.7765   5.0824

          k = 0.6000 0.0000 0.8000 (  1290 PWs)   bands (ev):

    -1.5993   0.1679   3.1996   5.4756

          k =-0.2000-1.0000 0.0000 (  1294 PWs)   bands (ev):

    -0.8047  -0.8047   4.6854   4.6854

          k = 0.6000-0.2000 1.0000 (  1294 PWs)   bands (ev):

    -2.1647   0.7868   3.7109   5.0739

          k = 0.5000-0.1000 0.9000 (  1288 PWs)   bands (ev):

    -1.4713   0.0993   3.4900   4.7143

          k =-0.4000-1.0000 0.0000 (  1286 PWs)   bands (ev):

    -0.6578  -0.6578   3.9690   3.9690

     highest occupied level (ev):     9.6950

!    total energy              =     -15.69490602 Ry
     estimated scf accuracy    <       0.00000081 Ry

     The total energy is the sum of the following terms:
     one-electron contribution =       6.49618528 Ry
     hartree contribution      =       0.89800008 Ry
     xc contribution           =      -5.03303724 Ry
     ewald contribution        =     -18.05605415 Ry

     convergence has been achieved in  23 iterations
     Writing meta-gga kinetic term

     Writing all to output data dir ./input_pw/Ge/1/pwscf.save/
     Writing meta-gga kinetic term
 
     init_run     :      1.77s CPU      3.77s WALL (       1 calls)
     electrons    :     48.91s CPU     84.32s WALL (       1 calls)

     Called by init_run:
     wfcinit      :      1.70s CPU      3.60s WALL (       1 calls)
     potinit      :      0.02s CPU      0.10s WALL (       1 calls)
     hinit0       :      0.05s CPU      0.05s WALL (       1 calls)

     Called by electrons:
     c_bands      :     42.73s CPU     72.83s WALL (      24 calls)
     sum_band     :      5.31s CPU      9.83s WALL (      24 calls)
     v_of_rho     :      0.51s CPU      0.97s WALL (      24 calls)
     mix_rho      :      0.34s CPU      0.66s WALL (      24 calls)

     Called by c_bands:
     init_us_2    :      0.40s CPU      0.74s WALL (    2303 calls)
     init_us_2:cp :      0.39s CPU      0.73s WALL (    2303 calls)
     cegterg      :     42.23s CPU     71.79s WALL (    1128 calls)

     Called by *egterg:
     cdiaghg      :      0.46s CPU      0.86s WALL (    6017 calls)
     h_psi        :     41.91s CPU     71.92s WALL (    6111 calls)
     g_psi        :      0.08s CPU      0.10s WALL (    4936 calls)

     Called by h_psi:
     h_psi:calbec :      0.38s CPU      0.72s WALL (    6111 calls)
     vloc_psi     :     10.23s CPU     17.31s WALL (    6111 calls)
     add_vuspsi   :      0.25s CPU      0.43s WALL (    6111 calls)
     h_psi_meta   :     30.90s CPU     53.25s WALL (    6111 calls)

     General routines
     calbec       :      0.36s CPU      0.68s WALL (    6111 calls)
     fft          :      0.06s CPU      0.11s WALL (     287 calls)
     ffts         :      0.08s CPU      0.21s WALL (     400 calls)
     fftw         :     36.20s CPU     62.75s WALL (  185336 calls)
     interpolate  :      0.00s CPU      0.00s WALL (      24 calls)
 
     Parallel routines
 
     PWSCF        :     50.71s CPU   1m28.14s WALL

 
   This run was terminated on:  11:38:27  14Mar2023            

=------------------------------------------------------------------------------=
   JOB DONE.
=------------------------------------------------------------------------------=
