
     Program PWSCF v.7.0 starts on  7Jul2023 at 14:25:49 

     This program is part of the open-source Quantum ESPRESSO suite
     for quantum simulation of materials; please cite
         "P. Giannozzi et al., J. Phys.:Condens. Matter 21 395502 (2009);
         "P. Giannozzi et al., J. Phys.:Condens. Matter 29 465901 (2017);
         "P. Giannozzi et al., J. Chem. Phys. 152 154105 (2020);
          URL http://www.quantum-espresso.org", 
     in publications or presentations arising from this work. More details at
     http://www.quantum-espresso.org/quote

     Parallel version (MPI), running on     1 processors

     MPI processes distributed on     1 nodes
     27393 MiB available memory on the printing compute node when the environment starts
 
     Waiting for input...
     Reading input from standard input
Warning: card &CELL ignored
Warning: card / ignored

     Current dimensions of program PWSCF are:
     Max number of different atomic species (ntypx) = 10
     Max number of k-points (npk) =  40000
     Max angular momentum in pseudopotentials (lmaxx) =  4
     file Ge.SCAN.UPF2: wavefunction(s)  0D renormalized

     WARNING: the MGGA functional with ID    5 has been 
     read together with other dft terms, but it should 
     stand alone in order to work properly. The other 
     terms will be ignored.

     Subspace diagonalization in iterative solution of the eigenvalue problem:
     a serial algorithm will be used

 
     G-vector sticks info
     --------------------
     sticks:   dense  smooth     PW     G-vecs:    dense   smooth      PW
     Sum         637     637    199                10369    10369    1837
 
     Using Slab Decomposition
 


     bravais-lattice index     =            2
     lattice parameter (alat)  =       9.5235  a.u.
     unit-cell volume          =     215.9369 (a.u.)^3
     number of atoms/cell      =            2
     number of atomic types    =            1
     number of electrons       =         8.00
     number of Kohn-Sham states=            4
     kinetic-energy cutoff     =      50.0000  Ry
     charge density cutoff     =     200.0000  Ry
     scf convergence threshold =      2.0E-05
     mixing beta               =       0.2000
     number of iterations used =            8  local-TF  mixing
     Exchange-correlation= SLA  PW  SCAN SCAN
                           (   0   0   0   0   0 263 267)

     celldm(1)=   9.523479  celldm(2)=   0.000000  celldm(3)=   0.000000
     celldm(4)=   0.000000  celldm(5)=   0.000000  celldm(6)=   0.000000

     crystal axes: (cart. coord. in units of alat)
               a(1) = (  -0.500000   0.000000   0.500000 )  
               a(2) = (   0.000000   0.500000   0.500000 )  
               a(3) = (  -0.500000   0.500000   0.000000 )  

     reciprocal axes: (cart. coord. in units 2 pi/alat)
               b(1) = ( -1.000000 -1.000000  1.000000 )  
               b(2) = (  1.000000  1.000000  1.000000 )  
               b(3) = ( -1.000000  1.000000 -1.000000 )  


     PseudoPot. # 1 for Ge read from file:
     ~/Documents/TA/PWDFT.jl/pseudopotentials/scan_upf/Ge.SCAN.UPF2
     MD5 check sum: Not computed, couldn't open file
     Pseudo is Norm-conserving, Zval =  4.0
     Generated by new atomic code, or converted to UPF format
     Using radial grid of 1557 points,  2 beta functions with: 
                l(1) =   0
                l(2) =   1

     atomic species   valence    mass     pseudopotential
        Ge             4.00    72.64000     Ge( 1.00)

     48 Sym. Ops., with inversion, found (24 have fractional translation)



   Cartesian axes

     site n.     atom                  positions (alat units)
         1           Ge  tau(   1) = (   0.0000000   0.0000000   0.0000000  )
         2           Ge  tau(   2) = (   0.2500000   0.2500000   0.2500000  )

     number of k points=    47
                       cart. coord. in units 2pi/alat
        k(    1) = (   0.0000000   0.0000000   0.0000000), wk =   0.0020000
        k(    2) = (  -0.1000000   0.1000000  -0.1000000), wk =   0.0160000
        k(    3) = (  -0.2000000   0.2000000  -0.2000000), wk =   0.0160000
        k(    4) = (  -0.3000000   0.3000000  -0.3000000), wk =   0.0160000
        k(    5) = (  -0.4000000   0.4000000  -0.4000000), wk =   0.0160000
        k(    6) = (   0.5000000  -0.5000000   0.5000000), wk =   0.0080000
        k(    7) = (   0.0000000   0.2000000   0.0000000), wk =   0.0120000
        k(    8) = (  -0.1000000   0.3000000  -0.1000000), wk =   0.0480000
        k(    9) = (  -0.2000000   0.4000000  -0.2000000), wk =   0.0480000
        k(   10) = (  -0.3000000   0.5000000  -0.3000000), wk =   0.0480000
        k(   11) = (   0.6000000  -0.4000000   0.6000000), wk =   0.0480000
        k(   12) = (   0.5000000  -0.3000000   0.5000000), wk =   0.0480000
        k(   13) = (   0.4000000  -0.2000000   0.4000000), wk =   0.0480000
        k(   14) = (   0.3000000  -0.1000000   0.3000000), wk =   0.0480000
        k(   15) = (   0.2000000   0.0000000   0.2000000), wk =   0.0240000
        k(   16) = (   0.0000000   0.4000000   0.0000000), wk =   0.0120000
        k(   17) = (  -0.1000000   0.5000000  -0.1000000), wk =   0.0480000
        k(   18) = (  -0.2000000   0.6000000  -0.2000000), wk =   0.0480000
        k(   19) = (   0.7000000  -0.3000000   0.7000000), wk =   0.0480000
        k(   20) = (   0.6000000  -0.2000000   0.6000000), wk =   0.0480000
        k(   21) = (   0.5000000  -0.1000000   0.5000000), wk =   0.0480000
        k(   22) = (   0.4000000   0.0000000   0.4000000), wk =   0.0240000
        k(   23) = (   0.0000000   0.6000000   0.0000000), wk =   0.0120000
        k(   24) = (  -0.1000000   0.7000000  -0.1000000), wk =   0.0480000
        k(   25) = (   0.8000000  -0.2000000   0.8000000), wk =   0.0480000
        k(   26) = (   0.7000000  -0.1000000   0.7000000), wk =   0.0480000
        k(   27) = (   0.6000000  -0.0000000   0.6000000), wk =   0.0240000
        k(   28) = (   0.0000000   0.8000000   0.0000000), wk =   0.0120000
        k(   29) = (   0.9000000  -0.1000000   0.9000000), wk =   0.0480000
        k(   30) = (   0.8000000   0.0000000   0.8000000), wk =   0.0240000
        k(   31) = (   0.0000000  -1.0000000   0.0000000), wk =   0.0060000
        k(   32) = (  -0.2000000   0.4000000   0.0000000), wk =   0.0480000
        k(   33) = (  -0.3000000   0.5000000  -0.1000000), wk =   0.0960000
        k(   34) = (   0.6000000  -0.4000000   0.8000000), wk =   0.0960000
        k(   35) = (   0.5000000  -0.3000000   0.7000000), wk =   0.0480000
        k(   36) = (  -0.2000000   0.6000000   0.0000000), wk =   0.0480000
        k(   37) = (   0.7000000  -0.3000000   0.9000000), wk =   0.0960000
        k(   38) = (   0.6000000  -0.2000000   0.8000000), wk =   0.0960000
        k(   39) = (   0.5000000  -0.1000000   0.7000000), wk =   0.0960000
        k(   40) = (   0.4000000   0.0000000   0.6000000), wk =   0.0480000
        k(   41) = (   0.8000000  -0.2000000   1.0000000), wk =   0.0480000
        k(   42) = (   0.7000000  -0.1000000   0.9000000), wk =   0.0960000
        k(   43) = (   0.6000000   0.0000000   0.8000000), wk =   0.0480000
        k(   44) = (  -0.2000000  -1.0000000   0.0000000), wk =   0.0240000
        k(   45) = (   0.6000000  -0.2000000   1.0000000), wk =   0.0480000
        k(   46) = (   0.5000000  -0.1000000   0.9000000), wk =   0.0480000
        k(   47) = (  -0.4000000  -1.0000000   0.0000000), wk =   0.0240000

     Dense  grid:    10369 G-vectors     FFT dimensions: (  32,  32,  32)

     Estimated max dynamical RAM per process >      19.53 MB

     WARNING: libxc functional with ID  263 depends
      on external parameters: check the user_guide of
      QE if you need to modify them or to check their
      default values.

     Initial potential from superposition of free atoms

     starting charge       7.9987, renormalised to       8.0000
     Starting wfcs are   18 randomized atomic wfcs

     total cpu time spent up to now is        3.9 secs

     Self-consistent Calculation

     iteration #  1     ecut=    50.00 Ry     beta= 0.20
     Davidson diagonalization with overlap
     ethr =  1.00E-02,  avg # of iterations =  1.9

     Threshold (ethr) on eigenvalues was too large:
     Diagonalizing with lowered threshold

     Davidson diagonalization with overlap
     ethr =  6.32E-04,  avg # of iterations =  5.7

     total cpu time spent up to now is       11.3 secs

     total energy              =     -15.62679172 Ry
     estimated scf accuracy    <       0.05967908 Ry

     iteration #  2     ecut=    50.00 Ry     beta= 0.20
     Davidson diagonalization with overlap
     ethr =  7.46E-04,  avg # of iterations =  1.6

     total cpu time spent up to now is       13.5 secs

     total energy              =     -15.67817552 Ry
     estimated scf accuracy    <       0.04609054 Ry

     iteration #  3     ecut=    50.00 Ry     beta= 0.20
     Davidson diagonalization with overlap
     ethr =  5.76E-04,  avg # of iterations =  1.2

     total cpu time spent up to now is       15.8 secs

     total energy              =     -15.68109633 Ry
     estimated scf accuracy    <       0.00376520 Ry

     iteration #  4     ecut=    50.00 Ry     beta= 0.20
     Davidson diagonalization with overlap
     ethr =  4.71E-05,  avg # of iterations =  8.9

     total cpu time spent up to now is       22.9 secs

     total energy              =     -15.68715980 Ry
     estimated scf accuracy    <       0.00425740 Ry

     iteration #  5     ecut=    50.00 Ry     beta= 0.20
     Davidson diagonalization with overlap
     ethr =  4.71E-05,  avg # of iterations =  2.0

     total cpu time spent up to now is       25.4 secs

     total energy              =     -15.68753836 Ry
     estimated scf accuracy    <       0.00022037 Ry

     iteration #  6     ecut=    50.00 Ry     beta= 0.20
     Davidson diagonalization with overlap
     ethr =  2.75E-06,  avg # of iterations = 11.8

     total cpu time spent up to now is       34.3 secs

     total energy              =     -15.68837832 Ry
     estimated scf accuracy    <       0.00007408 Ry

     iteration #  7     ecut=    50.00 Ry     beta= 0.20
     Davidson diagonalization with overlap
     ethr =  9.26E-07,  avg # of iterations =  4.5

     total cpu time spent up to now is       37.9 secs

     total energy              =     -15.68842787 Ry
     estimated scf accuracy    <       0.00009609 Ry

     iteration #  8     ecut=    50.00 Ry     beta= 0.20
     Davidson diagonalization with overlap
     ethr =  9.26E-07,  avg # of iterations =  3.4

     total cpu time spent up to now is       41.1 secs

     End of self-consistent calculation

          k = 0.0000 0.0000 0.0000 (  1243 PWs)   bands (ev):

    -6.2215   9.8091   9.8091   9.8091

          k =-0.1000 0.1000-0.1000 (  1297 PWs)   bands (ev):

    -6.0543   8.1004   9.4525   9.4526

          k =-0.2000 0.2000-0.2000 (  1302 PWs)   bands (ev):

    -5.5584   5.4659   8.8160   8.8161

          k =-0.3000 0.3000-0.3000 (  1293 PWs)   bands (ev):

    -4.7593   3.0014   8.2786   8.2786

          k =-0.4000 0.4000-0.4000 (  1293 PWs)   bands (ev):

    -3.7638   0.9773   7.9422   7.9422

          k = 0.5000-0.5000 0.5000 (  1308 PWs)   bands (ev):

    -3.1306  -0.0023   7.8290   7.8290

          k = 0.0000 0.2000 0.0000 (  1299 PWs)   bands (ev):

    -5.9983   8.5540   8.8113   8.8113

          k =-0.1000 0.3000-0.1000 (  1300 PWs)   bands (ev):

    -5.6107   6.3014   8.1184   8.4764

          k =-0.2000 0.4000-0.2000 (  1306 PWs)   bands (ev):

    -4.9078   3.8323   7.6221   7.8175

          k =-0.3000 0.5000-0.3000 (  1296 PWs)   bands (ev):

    -3.9534   1.6659   7.1981   7.3933

          k = 0.6000-0.4000 0.6000 (  1283 PWs)   bands (ev):

    -3.0707   0.2214   6.7590   7.4436

          k = 0.5000-0.3000 0.5000 (  1289 PWs)   bands (ev):

    -3.3070   0.5729   6.5576   7.7561

          k = 0.4000-0.2000 0.4000 (  1296 PWs)   bands (ev):

    -4.2929   2.3448   6.6296   8.2883

          k = 0.3000-0.1000 0.3000 (  1299 PWs)   bands (ev):

    -5.1766   4.6294   7.0077   8.9507

          k = 0.2000 0.0000 0.2000 (  1299 PWs)   bands (ev):

    -5.7770   6.9097   7.8769   9.5045

          k = 0.0000 0.4000 0.0000 (  1307 PWs)   bands (ev):

    -5.3313   6.2583   7.3810   7.3810

          k =-0.1000 0.5000-0.1000 (  1298 PWs)   bands (ev):

    -4.7301   4.4518   6.6849   6.8500

          k =-0.2000 0.6000-0.2000 (  1286 PWs)   bands (ev):

    -3.8457   2.4192   5.8163   6.6061

          k = 0.7000-0.3000 0.7000 (  1280 PWs)   bands (ev):

    -2.8568   0.7608   5.1009   6.6704

          k = 0.6000-0.2000 0.6000 (  1287 PWs)   bands (ev):

    -2.6379   0.4600   4.6666   7.0323

          k = 0.5000-0.1000 0.5000 (  1290 PWs)   bands (ev):

    -3.5341   1.8523   4.5973   7.6467

          k = 0.4000 0.0000 0.4000 (  1301 PWs)   bands (ev):

    -4.4817   3.5816   5.1819   8.3928

          k = 0.0000 0.6000 0.0000 (  1283 PWs)   bands (ev):

    -4.2297   3.7953   6.2581   6.2581

          k =-0.1000 0.7000-0.1000 (  1285 PWs)   bands (ev):

    -3.4297   2.4055   5.3573   5.9499

          k = 0.8000-0.2000 0.8000 (  1281 PWs)   bands (ev):

    -2.4278   1.0122   4.2009   5.9577

          k = 0.7000-0.1000 0.7000 (  1286 PWs)   bands (ev):

    -1.8340   0.3290   3.4288   6.2792

          k = 0.6000-0.0000 0.6000 (  1294 PWs)   bands (ev):

    -2.5663   1.1395   3.3838   6.8781

          k = 0.0000 0.8000 0.0000 (  1290 PWs)   bands (ev):

    -2.7131   1.3870   5.5622   5.5622

          k = 0.9000-0.1000 0.9000 (  1295 PWs)   bands (ev):

    -1.7465   0.2560   4.7273   5.4890

          k = 0.8000 0.0000 0.8000 (  1288 PWs)   bands (ev):

    -1.0698  -0.3295   3.6238   5.7365

          k = 0.0000-1.0000 0.0000 (  1298 PWs)   bands (ev):

    -0.8187  -0.8186   5.3275   5.3275

          k =-0.2000 0.4000 0.0000 (  1306 PWs)   bands (ev):

    -5.1170   5.0985   6.4997   8.2309

          k =-0.3000 0.5000-0.1000 (  1298 PWs)   bands (ev):

    -4.3212   3.1174   5.7075   7.6236

          k = 0.6000-0.4000 0.8000 (  1283 PWs)   bands (ev):

    -3.3256   1.2171   5.4288   7.0651

          k = 0.5000-0.3000 0.7000 (  1292 PWs)   bands (ev):

    -2.6841   0.2590   5.3640   6.8437

          k =-0.2000 0.6000 0.0000 (  1298 PWs)   bands (ev):

    -4.0312   3.2628   5.4378   6.4910

          k = 0.7000-0.3000 0.9000 (  1286 PWs)   bands (ev):

    -3.0795   1.7322   4.6019   5.9845

          k = 0.6000-0.2000 0.8000 (  1285 PWs)   bands (ev):

    -2.1866   0.5075   4.0571   5.8988

          k = 0.5000-0.1000 0.7000 (  1286 PWs)   bands (ev):

    -2.4632   0.8755   3.8239   6.2621

          k = 0.4000 0.0000 0.6000 (  1286 PWs)   bands (ev):

    -3.4538   2.1963   4.2079   6.9307

          k = 0.8000-0.2000 1.0000 (  1282 PWs)   bands (ev):

    -2.5495   1.2767   4.8341   5.2767

          k = 0.7000-0.1000 0.9000 (  1283 PWs)   bands (ev):

    -1.5517   0.2302   3.8365   5.1543

          k = 0.6000 0.0000 0.8000 (  1283 PWs)   bands (ev):

    -1.5320   0.2417   3.2542   5.5509

          k =-0.2000-1.0000 0.0000 (  1294 PWs)   bands (ev):

    -0.7355  -0.7355   4.7543   4.7544

          k = 0.6000-0.2000 1.0000 (  1281 PWs)   bands (ev):

    -2.1033   0.8663   3.7713   5.1441

          k = 0.5000-0.1000 0.9000 (  1274 PWs)   bands (ev):

    -1.4034   0.1735   3.5483   4.7811

          k =-0.4000-1.0000 0.0000 (  1278 PWs)   bands (ev):

    -0.5856  -0.5856   4.0298   4.0298

     highest occupied level (ev):     9.8091

!    total energy              =     -15.68845029 Ry
     estimated scf accuracy    <       0.00000208 Ry

     The total energy is the sum of the following terms:
     one-electron contribution =       6.56076854 Ry
     hartree contribution      =       0.89298646 Ry
     xc contribution           =      -5.04193547 Ry
     ewald contribution        =     -18.10026983 Ry

     convergence has been achieved in   8 iterations
     Writing meta-gga kinetic term

     Writing all to output data dir ./input_pw/Ge/1/pwscf.save/
     Writing meta-gga kinetic term
 
     init_run     :      1.83s CPU      3.84s WALL (       1 calls)
     electrons    :     18.39s CPU     37.23s WALL (       1 calls)

     Called by init_run:
     wfcinit      :      1.73s CPU      3.53s WALL (       1 calls)
     potinit      :      0.02s CPU      0.04s WALL (       1 calls)
     hinit0       :      0.07s CPU      0.24s WALL (       1 calls)

     Called by electrons:
     c_bands      :     16.09s CPU     32.52s WALL (       9 calls)
     sum_band     :      2.02s CPU      4.13s WALL (       9 calls)
     v_of_rho     :      0.20s CPU      0.38s WALL (       9 calls)
     mix_rho      :      0.09s CPU      0.20s WALL (       9 calls)

     Called by c_bands:
     init_us_2    :      0.16s CPU      0.30s WALL (     893 calls)
     init_us_2:cp :      0.16s CPU      0.30s WALL (     893 calls)
     cegterg      :     15.89s CPU     32.13s WALL (     423 calls)

     Called by *egterg:
     cdiaghg      :      0.19s CPU      0.43s WALL (    2300 calls)
     h_psi        :     16.78s CPU     33.70s WALL (    2394 calls)
     g_psi        :      0.03s CPU      0.05s WALL (    1924 calls)

     Called by h_psi:
     h_psi:calbec :      0.16s CPU      0.38s WALL (    2394 calls)
     vloc_psi     :      4.11s CPU      8.36s WALL (    2394 calls)
     add_vuspsi   :      0.11s CPU      0.17s WALL (    2394 calls)
     h_psi_meta   :     12.35s CPU     24.65s WALL (    2394 calls)

     General routines
     calbec       :      0.15s CPU      0.38s WALL (    2394 calls)
     fft          :      0.02s CPU      0.04s WALL (     107 calls)
     ffts         :      0.03s CPU      0.06s WALL (     125 calls)
     fftw         :     14.29s CPU     28.75s WALL (   73256 calls)
     interpolate  :      0.00s CPU      0.00s WALL (       9 calls)
 
     Parallel routines
 
     PWSCF        :     20.27s CPU     41.18s WALL

 
   This run was terminated on:  14:26:30   7Jul2023            

=------------------------------------------------------------------------------=
   JOB DONE.
=------------------------------------------------------------------------------=
