
     Program PWSCF v.7.0 starts on 29Mar2023 at 11:45:50 

     This program is part of the open-source Quantum ESPRESSO suite
     for quantum simulation of materials; please cite
         "P. Giannozzi et al., J. Phys.:Condens. Matter 21 395502 (2009);
         "P. Giannozzi et al., J. Phys.:Condens. Matter 29 465901 (2017);
         "P. Giannozzi et al., J. Chem. Phys. 152 154105 (2020);
          URL http://www.quantum-espresso.org", 
     in publications or presentations arising from this work. More details at
     http://www.quantum-espresso.org/quote

     Parallel version (MPI), running on     1 processors

     MPI processes distributed on     1 nodes
     23874 MiB available memory on the printing compute node when the environment starts
 
     Waiting for input...
     Reading input from standard input
Warning: card &CELL ignored
Warning: card / ignored

     Current dimensions of program PWSCF are:
     Max number of different atomic species (ntypx) = 10
     Max number of k-points (npk) =  40000
     Max angular momentum in pseudopotentials (lmaxx) =  4
     file Ge.SCAN.UPF2: wavefunction(s)  0D renormalized

     WARNING: the MGGA functional with ID    5 has been 
     read together with other dft terms, but it should 
     stand alone in order to work properly. The other 
     terms will be ignored.

     Subspace diagonalization in iterative solution of the eigenvalue problem:
     a serial algorithm will be used

 
     G-vector sticks info
     --------------------
     sticks:   dense  smooth     PW     G-vecs:    dense   smooth      PW
     Sum         637     637    199                10369    10369    1837
 
     Using Slab Decomposition
 


     bravais-lattice index     =            2
     lattice parameter (alat)  =       9.5235  a.u.
     unit-cell volume          =     215.9369 (a.u.)^3
     number of atoms/cell      =            2
     number of atomic types    =            1
     number of electrons       =         8.00
     number of Kohn-Sham states=            4
     kinetic-energy cutoff     =      50.0000  Ry
     charge density cutoff     =     200.0000  Ry
     scf convergence threshold =      1.0E-06
     mixing beta               =       0.0100
     number of iterations used =            8  local-TF  mixing
     Exchange-correlation= SLA  PW  SCAN SCAN
                           (   0   0   0   0   0 263 267)

     celldm(1)=   9.523479  celldm(2)=   0.000000  celldm(3)=   0.000000
     celldm(4)=   0.000000  celldm(5)=   0.000000  celldm(6)=   0.000000

     crystal axes: (cart. coord. in units of alat)
               a(1) = (  -0.500000   0.000000   0.500000 )  
               a(2) = (   0.000000   0.500000   0.500000 )  
               a(3) = (  -0.500000   0.500000   0.000000 )  

     reciprocal axes: (cart. coord. in units 2 pi/alat)
               b(1) = ( -1.000000 -1.000000  1.000000 )  
               b(2) = (  1.000000  1.000000  1.000000 )  
               b(3) = ( -1.000000  1.000000 -1.000000 )  


     PseudoPot. # 1 for Ge read from file:
     ~/Documents/TA/PWDFT.jl/pseudopotentials/scan_upf/Ge.SCAN.UPF2
     MD5 check sum: Not computed, couldn't open file
     Pseudo is Norm-conserving, Zval =  4.0
     Generated by new atomic code, or converted to UPF format
     Using radial grid of 1557 points,  2 beta functions with: 
                l(1) =   0
                l(2) =   1

     atomic species   valence    mass     pseudopotential
        Ge             4.00    72.64000     Ge( 1.00)

     48 Sym. Ops., with inversion, found (24 have fractional translation)



   Cartesian axes

     site n.     atom                  positions (alat units)
         1           Ge  tau(   1) = (   0.0000000   0.0000000   0.0000000  )
         2           Ge  tau(   2) = (   0.2500000   0.2500000   0.2500000  )

     number of k points=    47
                       cart. coord. in units 2pi/alat
        k(    1) = (   0.0000000   0.0000000   0.0000000), wk =   0.0020000
        k(    2) = (  -0.1000000   0.1000000  -0.1000000), wk =   0.0160000
        k(    3) = (  -0.2000000   0.2000000  -0.2000000), wk =   0.0160000
        k(    4) = (  -0.3000000   0.3000000  -0.3000000), wk =   0.0160000
        k(    5) = (  -0.4000000   0.4000000  -0.4000000), wk =   0.0160000
        k(    6) = (   0.5000000  -0.5000000   0.5000000), wk =   0.0080000
        k(    7) = (   0.0000000   0.2000000   0.0000000), wk =   0.0120000
        k(    8) = (  -0.1000000   0.3000000  -0.1000000), wk =   0.0480000
        k(    9) = (  -0.2000000   0.4000000  -0.2000000), wk =   0.0480000
        k(   10) = (  -0.3000000   0.5000000  -0.3000000), wk =   0.0480000
        k(   11) = (   0.6000000  -0.4000000   0.6000000), wk =   0.0480000
        k(   12) = (   0.5000000  -0.3000000   0.5000000), wk =   0.0480000
        k(   13) = (   0.4000000  -0.2000000   0.4000000), wk =   0.0480000
        k(   14) = (   0.3000000  -0.1000000   0.3000000), wk =   0.0480000
        k(   15) = (   0.2000000   0.0000000   0.2000000), wk =   0.0240000
        k(   16) = (   0.0000000   0.4000000   0.0000000), wk =   0.0120000
        k(   17) = (  -0.1000000   0.5000000  -0.1000000), wk =   0.0480000
        k(   18) = (  -0.2000000   0.6000000  -0.2000000), wk =   0.0480000
        k(   19) = (   0.7000000  -0.3000000   0.7000000), wk =   0.0480000
        k(   20) = (   0.6000000  -0.2000000   0.6000000), wk =   0.0480000
        k(   21) = (   0.5000000  -0.1000000   0.5000000), wk =   0.0480000
        k(   22) = (   0.4000000   0.0000000   0.4000000), wk =   0.0240000
        k(   23) = (   0.0000000   0.6000000   0.0000000), wk =   0.0120000
        k(   24) = (  -0.1000000   0.7000000  -0.1000000), wk =   0.0480000
        k(   25) = (   0.8000000  -0.2000000   0.8000000), wk =   0.0480000
        k(   26) = (   0.7000000  -0.1000000   0.7000000), wk =   0.0480000
        k(   27) = (   0.6000000  -0.0000000   0.6000000), wk =   0.0240000
        k(   28) = (   0.0000000   0.8000000   0.0000000), wk =   0.0120000
        k(   29) = (   0.9000000  -0.1000000   0.9000000), wk =   0.0480000
        k(   30) = (   0.8000000   0.0000000   0.8000000), wk =   0.0240000
        k(   31) = (   0.0000000  -1.0000000   0.0000000), wk =   0.0060000
        k(   32) = (  -0.2000000   0.4000000   0.0000000), wk =   0.0480000
        k(   33) = (  -0.3000000   0.5000000  -0.1000000), wk =   0.0960000
        k(   34) = (   0.6000000  -0.4000000   0.8000000), wk =   0.0960000
        k(   35) = (   0.5000000  -0.3000000   0.7000000), wk =   0.0480000
        k(   36) = (  -0.2000000   0.6000000   0.0000000), wk =   0.0480000
        k(   37) = (   0.7000000  -0.3000000   0.9000000), wk =   0.0960000
        k(   38) = (   0.6000000  -0.2000000   0.8000000), wk =   0.0960000
        k(   39) = (   0.5000000  -0.1000000   0.7000000), wk =   0.0960000
        k(   40) = (   0.4000000   0.0000000   0.6000000), wk =   0.0480000
        k(   41) = (   0.8000000  -0.2000000   1.0000000), wk =   0.0480000
        k(   42) = (   0.7000000  -0.1000000   0.9000000), wk =   0.0960000
        k(   43) = (   0.6000000   0.0000000   0.8000000), wk =   0.0480000
        k(   44) = (  -0.2000000  -1.0000000   0.0000000), wk =   0.0240000
        k(   45) = (   0.6000000  -0.2000000   1.0000000), wk =   0.0480000
        k(   46) = (   0.5000000  -0.1000000   0.9000000), wk =   0.0480000
        k(   47) = (  -0.4000000  -1.0000000   0.0000000), wk =   0.0240000

     Dense  grid:    10369 G-vectors     FFT dimensions: (  32,  32,  32)

     Estimated max dynamical RAM per process >      19.53 MB

     WARNING: libxc functional with ID  263 depends
      on external parameters: check the user_guide of
      QE if you need to modify them or to check their
      default values.

     Initial potential from superposition of free atoms

     starting charge       7.9987, renormalised to       8.0000
     Starting wfcs are   18 randomized atomic wfcs

     total cpu time spent up to now is        4.2 secs

     Self-consistent Calculation

     iteration #  1     ecut=    50.00 Ry     beta= 0.01
     Davidson diagonalization with overlap
     ethr =  1.00E-02,  avg # of iterations =  1.9

     Threshold (ethr) on eigenvalues was too large:
     Diagonalizing with lowered threshold

     Davidson diagonalization with overlap
     ethr =  6.32E-04,  avg # of iterations =  5.7

     total cpu time spent up to now is       11.7 secs

     total energy              =     -15.57205896 Ry
     estimated scf accuracy    <       0.05967908 Ry

     iteration #  2     ecut=    50.00 Ry     beta= 0.01
     Davidson diagonalization with overlap
     ethr =  7.46E-04,  avg # of iterations =  1.1

     total cpu time spent up to now is       13.9 secs

     total energy              =     -15.62839058 Ry
     estimated scf accuracy    <       0.05952877 Ry

     iteration #  3     ecut=    50.00 Ry     beta= 0.01
     Davidson diagonalization with overlap
     ethr =  7.44E-04,  avg # of iterations =  1.0

     total cpu time spent up to now is       16.1 secs

     total energy              =     -15.68076994 Ry
     estimated scf accuracy    <       0.04611407 Ry

     iteration #  4     ecut=    50.00 Ry     beta= 0.01
     Davidson diagonalization with overlap
     ethr =  5.76E-04,  avg # of iterations =  1.1

     total cpu time spent up to now is       18.3 secs

     total energy              =     -15.68309696 Ry
     estimated scf accuracy    <       0.00524682 Ry

     iteration #  5     ecut=    50.00 Ry     beta= 0.01
     Davidson diagonalization with overlap
     c_bands:  3 eigenvalues not converged
     ethr =  6.56E-05,  avg # of iterations =  7.5

     total cpu time spent up to now is       24.3 secs

     total energy              =     -15.68965075 Ry
     estimated scf accuracy    <       0.00948109 Ry

     iteration #  6     ecut=    50.00 Ry     beta= 0.01
     Davidson diagonalization with overlap
     ethr =  6.56E-05,  avg # of iterations =  1.7

     total cpu time spent up to now is       26.6 secs

     total energy              =     -15.68692652 Ry
     estimated scf accuracy    <       0.00764740 Ry

     iteration #  7     ecut=    50.00 Ry     beta= 0.01
     Davidson diagonalization with overlap
     ethr =  6.56E-05,  avg # of iterations =  1.7

     total cpu time spent up to now is       29.1 secs

     total energy              =     -15.68758819 Ry
     estimated scf accuracy    <       0.00014254 Ry

     iteration #  8     ecut=    50.00 Ry     beta= 0.01
     Davidson diagonalization with overlap
     c_bands:  3 eigenvalues not converged
     c_bands:  1 eigenvalues not converged
     c_bands:  2 eigenvalues not converged
     ethr =  1.78E-06,  avg # of iterations = 13.1

     total cpu time spent up to now is       38.8 secs

     total energy              =     -15.68859355 Ry
     estimated scf accuracy    <       0.00029178 Ry

     iteration #  9     ecut=    50.00 Ry     beta= 0.01
     Davidson diagonalization with overlap
     ethr =  1.78E-06,  avg # of iterations =  2.3

     total cpu time spent up to now is       41.6 secs

     total energy              =     -15.68835060 Ry
     estimated scf accuracy    <       0.00080897 Ry

     iteration # 10     ecut=    50.00 Ry     beta= 0.01
     Davidson diagonalization with overlap
     ethr =  1.78E-06,  avg # of iterations =  4.1

     total cpu time spent up to now is       45.5 secs

     total energy              =     -15.68844415 Ry
     estimated scf accuracy    <       0.00000623 Ry

     iteration # 11     ecut=    50.00 Ry     beta= 0.01
     Davidson diagonalization with overlap
     c_bands:  2 eigenvalues not converged
     c_bands:  2 eigenvalues not converged
     ethr =  7.79E-08,  avg # of iterations = 14.2

     total cpu time spent up to now is       56.9 secs

     total energy              =     -15.68849272 Ry
     estimated scf accuracy    <       0.00009635 Ry

     iteration # 12     ecut=    50.00 Ry     beta= 0.01
     Davidson diagonalization with overlap
     ethr =  7.79E-08,  avg # of iterations =  1.4

     total cpu time spent up to now is       59.4 secs

     total energy              =     -15.68853561 Ry
     estimated scf accuracy    <       0.00008718 Ry

     iteration # 13     ecut=    50.00 Ry     beta= 0.01
     Davidson diagonalization with overlap
     ethr =  7.79E-08,  avg # of iterations =  3.9

     total cpu time spent up to now is       62.7 secs

     total energy              =     -15.68846153 Ry
     estimated scf accuracy    <       0.00017852 Ry

     iteration # 14     ecut=    50.00 Ry     beta= 0.01
     Davidson diagonalization with overlap
     ethr =  7.79E-08,  avg # of iterations =  5.7

     total cpu time spent up to now is       67.7 secs

     total energy              =     -15.68845943 Ry
     estimated scf accuracy    <       0.00002027 Ry

     iteration # 15     ecut=    50.00 Ry     beta= 0.01
     Davidson diagonalization with overlap
     ethr =  7.79E-08,  avg # of iterations =  5.4

     total cpu time spent up to now is       72.6 secs

     End of self-consistent calculation

          k = 0.0000 0.0000 0.0000 (  1243 PWs)   bands (ev):

    -6.2252   9.7985   9.7985   9.7985

          k =-0.1000 0.1000-0.1000 (  1297 PWs)   bands (ev):

    -6.0581   8.0924   9.4429   9.4429

          k =-0.2000 0.2000-0.2000 (  1302 PWs)   bands (ev):

    -5.5623   5.4597   8.8075   8.8075

          k =-0.3000 0.3000-0.3000 (  1293 PWs)   bands (ev):

    -4.7636   2.9961   8.2705   8.2705

          k =-0.4000 0.4000-0.4000 (  1293 PWs)   bands (ev):

    -3.7685   0.9729   7.9343   7.9343

          k = 0.5000-0.5000 0.5000 (  1308 PWs)   bands (ev):

    -3.1359  -0.0060   7.8212   7.8212

          k = 0.0000 0.2000 0.0000 (  1299 PWs)   bands (ev):

    -6.0021   8.5445   8.8032   8.8032

          k =-0.1000 0.3000-0.1000 (  1300 PWs)   bands (ev):

    -5.6145   6.2943   8.1111   8.4682

          k =-0.2000 0.4000-0.2000 (  1306 PWs)   bands (ev):

    -4.9119   3.8265   7.6151   7.8100

          k =-0.3000 0.5000-0.3000 (  1296 PWs)   bands (ev):

    -3.9579   1.6610   7.1910   7.3863

          k = 0.6000-0.4000 0.6000 (  1283 PWs)   bands (ev):

    -3.0759   0.2175   6.7523   7.4364

          k = 0.5000-0.3000 0.5000 (  1289 PWs)   bands (ev):

    -3.3119   0.5687   6.5512   7.7484

          k = 0.4000-0.2000 0.4000 (  1296 PWs)   bands (ev):

    -4.2972   2.3397   6.6233   8.2800

          k = 0.3000-0.1000 0.3000 (  1299 PWs)   bands (ev):

    -5.1806   4.6232   7.0015   8.9415

          k = 0.2000 0.0000 0.2000 (  1299 PWs)   bands (ev):

    -5.7809   6.9020   7.8703   9.4944

          k = 0.0000 0.4000 0.0000 (  1307 PWs)   bands (ev):

    -5.3353   6.2498   7.3744   7.3744

          k =-0.1000 0.5000-0.1000 (  1298 PWs)   bands (ev):

    -4.7342   4.4447   6.6787   6.8438

          k =-0.2000 0.6000-0.2000 (  1286 PWs)   bands (ev):

    -3.8502   2.4134   5.8106   6.6000

          k = 0.7000-0.3000 0.7000 (  1280 PWs)   bands (ev):

    -2.8619   0.7560   5.0957   6.6640

          k = 0.6000-0.2000 0.6000 (  1287 PWs)   bands (ev):

    -2.6432   0.4555   4.6616   7.0256

          k = 0.5000-0.1000 0.5000 (  1290 PWs)   bands (ev):

    -3.5387   1.8468   4.5927   7.6393

          k = 0.4000 0.0000 0.4000 (  1301 PWs)   bands (ev):

    -4.4860   3.5751   5.1775   8.3845

          k = 0.0000 0.6000 0.0000 (  1283 PWs)   bands (ev):

    -4.2341   3.7879   6.2522   6.2522

          k =-0.1000 0.7000-0.1000 (  1285 PWs)   bands (ev):

    -3.4343   2.3987   5.3525   5.9442

          k = 0.8000-0.2000 0.8000 (  1281 PWs)   bands (ev):

    -2.4329   1.0061   4.1969   5.9519

          k = 0.7000-0.1000 0.7000 (  1286 PWs)   bands (ev):

    -1.8396   0.3235   3.4253   6.2732

          k = 0.6000-0.0000 0.6000 (  1294 PWs)   bands (ev):

    -2.5715   1.1336   3.3806   6.8715

          k = 0.0000 0.8000 0.0000 (  1290 PWs)   bands (ev):

    -2.7180   1.3805   5.5568   5.5568

          k = 0.9000-0.1000 0.9000 (  1295 PWs)   bands (ev):

    -1.7517   0.2499   4.7228   5.4835

          k = 0.8000 0.0000 0.8000 (  1288 PWs)   bands (ev):

    -1.0757  -0.3351   3.6205   5.7309

          k = 0.0000-1.0000 0.0000 (  1298 PWs)   bands (ev):

    -0.8242  -0.8242   5.3221   5.3221

          k =-0.2000 0.4000 0.0000 (  1306 PWs)   bands (ev):

    -5.1210   5.0914   6.4943   8.2229

          k =-0.3000 0.5000-0.1000 (  1298 PWs)   bands (ev):

    -4.3255   3.1114   5.7021   7.6164

          k = 0.6000-0.4000 0.8000 (  1283 PWs)   bands (ev):

    -3.3305   1.2123   5.4233   7.0586

          k = 0.5000-0.3000 0.7000 (  1292 PWs)   bands (ev):

    -2.6895   0.2547   5.3584   6.8375

          k =-0.2000 0.6000 0.0000 (  1298 PWs)   bands (ev):

    -4.0357   3.2559   5.4330   6.4851

          k = 0.7000-0.3000 0.9000 (  1286 PWs)   bands (ev):

    -3.0843   1.7261   4.5975   5.9792

          k = 0.6000-0.2000 0.8000 (  1285 PWs)   bands (ev):

    -2.1920   0.5023   4.0528   5.8936

          k = 0.5000-0.1000 0.7000 (  1286 PWs)   bands (ev):

    -2.4684   0.8700   3.8200   6.2565

          k = 0.4000 0.0000 0.6000 (  1286 PWs)   bands (ev):

    -3.4585   2.1900   4.2041   6.9244

          k = 0.8000-0.2000 1.0000 (  1282 PWs)   bands (ev):

    -2.5545   1.2703   4.8296   5.2719

          k = 0.7000-0.1000 0.9000 (  1283 PWs)   bands (ev):

    -1.5572   0.2241   3.8330   5.1496

          k = 0.6000 0.0000 0.8000 (  1283 PWs)   bands (ev):

    -1.5378   0.2358   3.2512   5.5459

          k =-0.2000-1.0000 0.0000 (  1294 PWs)   bands (ev):

    -0.7412  -0.7412   4.7499   4.7499

          k = 0.6000-0.2000 1.0000 (  1281 PWs)   bands (ev):

    -2.1085   0.8600   3.7678   5.1397

          k = 0.5000-0.1000 0.9000 (  1274 PWs)   bands (ev):

    -1.4091   0.1675   3.5449   4.7770

          k =-0.4000-1.0000 0.0000 (  1278 PWs)   bands (ev):

    -0.5915  -0.5915   4.0262   4.0262

     highest occupied level (ev):     9.7985

!    total energy              =     -15.68846421 Ry
     estimated scf accuracy    <       0.00000076 Ry

     The total energy is the sum of the following terms:
     one-electron contribution =       6.56139554 Ry
     hartree contribution      =       0.89197995 Ry
     xc contribution           =      -5.04156987 Ry
     ewald contribution        =     -18.10026983 Ry

     convergence has been achieved in  15 iterations
     Writing meta-gga kinetic term

     Writing all to output data dir ./input_pw/Ge/1/pwscf.save/
     Writing meta-gga kinetic term
 
     init_run     :      1.86s CPU      4.18s WALL (       1 calls)
     electrons    :     33.21s CPU     68.38s WALL (       1 calls)

     Called by init_run:
     wfcinit      :      1.75s CPU      3.91s WALL (       1 calls)
     potinit      :      0.03s CPU      0.04s WALL (       1 calls)
     hinit0       :      0.07s CPU      0.20s WALL (       1 calls)

     Called by electrons:
     c_bands      :     28.96s CPU     59.53s WALL (      16 calls)
     sum_band     :      3.67s CPU      7.63s WALL (      16 calls)
     v_of_rho     :      0.35s CPU      0.68s WALL (      16 calls)
     mix_rho      :      0.22s CPU      0.54s WALL (      16 calls)

     Called by c_bands:
     init_us_2    :      0.28s CPU      0.63s WALL (    1551 calls)
     init_us_2:cp :      0.27s CPU      0.62s WALL (    1551 calls)
     cegterg      :     28.62s CPU     58.75s WALL (     752 calls)

     Called by *egterg:
     cdiaghg      :      0.33s CPU      0.69s WALL (    4085 calls)
     h_psi        :     28.94s CPU     59.69s WALL (    4179 calls)
     g_psi        :      0.05s CPU      0.08s WALL (    3380 calls)

     Called by h_psi:
     h_psi:calbec :      0.27s CPU      0.57s WALL (    4179 calls)
     vloc_psi     :      7.07s CPU     14.96s WALL (    4179 calls)
     add_vuspsi   :      0.18s CPU      0.43s WALL (    4179 calls)
     h_psi_meta   :     21.31s CPU     43.55s WALL (    4179 calls)

     General routines
     calbec       :      0.26s CPU      0.55s WALL (    4179 calls)
     fft          :      0.04s CPU      0.10s WALL (     191 calls)
     ffts         :      0.05s CPU      0.13s WALL (     248 calls)
     fftw         :     24.84s CPU     51.48s WALL (  125192 calls)
     interpolate  :      0.00s CPU      0.02s WALL (      16 calls)
 
     Parallel routines
 
     PWSCF        :     35.11s CPU   1m12.67s WALL

 
   This run was terminated on:  11:47: 3  29Mar2023            

=------------------------------------------------------------------------------=
   JOB DONE.
=------------------------------------------------------------------------------=
