
     Program PWSCF v.7.0 starts on 21Feb2023 at 12:49:41 

     This program is part of the open-source Quantum ESPRESSO suite
     for quantum simulation of materials; please cite
         "P. Giannozzi et al., J. Phys.:Condens. Matter 21 395502 (2009);
         "P. Giannozzi et al., J. Phys.:Condens. Matter 29 465901 (2017);
         "P. Giannozzi et al., J. Chem. Phys. 152 154105 (2020);
          URL http://www.quantum-espresso.org", 
     in publications or presentations arising from this work. More details at
     http://www.quantum-espresso.org/quote

     Parallel version (MPI), running on     1 processors

     MPI processes distributed on     1 nodes
     2986 MiB available memory on the printing compute node when the environment starts
 
     Waiting for input...
     Reading input from standard input
Warning: card &CELL ignored
Warning: card / ignored

     Current dimensions of program PWSCF are:
     Max number of different atomic species (ntypx) = 10
     Max number of k-points (npk) =  40000
     Max angular momentum in pseudopotentials (lmaxx) =  4
     file Si.SCAN.UPF2: wavefunction(s)  0D renormalized

     WARNING: the MGGA functional with ID    5 has been 
     read together with other dft terms, but it should 
     stand alone in order to work properly. The other 
     terms will be ignored.

     Subspace diagonalization in iterative solution of the eigenvalue problem:
     a serial algorithm will be used

 
     G-vector sticks info
     --------------------
     sticks:   dense  smooth     PW     G-vecs:    dense   smooth      PW
     Sum         463     463    151                 6615     6615    1243
 
     Using Slab Decomposition
 


     bravais-lattice index     =            2
     lattice parameter (alat)  =       8.1985  a.u.
     unit-cell volume          =     137.7664 (a.u.)^3
     number of atoms/cell      =            2
     number of atomic types    =            1
     number of electrons       =         8.00
     number of Kohn-Sham states=            4
     kinetic-energy cutoff     =      50.0000  Ry
     charge density cutoff     =     200.0000  Ry
     scf convergence threshold =      1.0E-06
     mixing beta               =       0.0100
     number of iterations used =            8  local-TF  mixing
     Exchange-correlation= SLA  PW   SCAN SCAN
                           (   0   0   0   0   0 263 267)

     celldm(1)=   8.198500  celldm(2)=   0.000000  celldm(3)=   0.000000
     celldm(4)=   0.000000  celldm(5)=   0.000000  celldm(6)=   0.000000

     crystal axes: (cart. coord. in units of alat)
               a(1) = (  -0.500000   0.000000   0.500000 )  
               a(2) = (   0.000000   0.500000   0.500000 )  
               a(3) = (  -0.500000   0.500000   0.000000 )  

     reciprocal axes: (cart. coord. in units 2 pi/alat)
               b(1) = ( -1.000000 -1.000000  1.000000 )  
               b(2) = (  1.000000  1.000000  1.000000 )  
               b(3) = ( -1.000000  1.000000 -1.000000 )  


     PseudoPot. # 1 for Si read from file:
     ~/Documents/TA/PWDFT.jl/pseudopotentials/scan_upf/Si.SCAN.UPF2
     MD5 check sum: Not computed, couldn't open file
     Pseudo is Norm-conserving, Zval =  4.0
     Generated by new atomic code, or converted to UPF format
     Using radial grid of 1475 points,  2 beta functions with: 
                l(1) =   0
                l(2) =   1

     atomic species   valence    mass     pseudopotential
        Si             4.00    28.08550     Si( 1.00)

     48 Sym. Ops., with inversion, found (24 have fractional translation)



   Cartesian axes

     site n.     atom                  positions (alat units)
         1           Si  tau(   1) = (   0.0000000   0.0000000   0.0000000  )
         2           Si  tau(   2) = (   0.2500000   0.2500000   0.2500000  )

     number of k points=    47
                       cart. coord. in units 2pi/alat
        k(    1) = (   0.0000000   0.0000000   0.0000000), wk =   0.0020000
        k(    2) = (  -0.1000000   0.1000000  -0.1000000), wk =   0.0160000
        k(    3) = (  -0.2000000   0.2000000  -0.2000000), wk =   0.0160000
        k(    4) = (  -0.3000000   0.3000000  -0.3000000), wk =   0.0160000
        k(    5) = (  -0.4000000   0.4000000  -0.4000000), wk =   0.0160000
        k(    6) = (   0.5000000  -0.5000000   0.5000000), wk =   0.0080000
        k(    7) = (   0.0000000   0.2000000   0.0000000), wk =   0.0120000
        k(    8) = (  -0.1000000   0.3000000  -0.1000000), wk =   0.0480000
        k(    9) = (  -0.2000000   0.4000000  -0.2000000), wk =   0.0480000
        k(   10) = (  -0.3000000   0.5000000  -0.3000000), wk =   0.0480000
        k(   11) = (   0.6000000  -0.4000000   0.6000000), wk =   0.0480000
        k(   12) = (   0.5000000  -0.3000000   0.5000000), wk =   0.0480000
        k(   13) = (   0.4000000  -0.2000000   0.4000000), wk =   0.0480000
        k(   14) = (   0.3000000  -0.1000000   0.3000000), wk =   0.0480000
        k(   15) = (   0.2000000   0.0000000   0.2000000), wk =   0.0240000
        k(   16) = (   0.0000000   0.4000000   0.0000000), wk =   0.0120000
        k(   17) = (  -0.1000000   0.5000000  -0.1000000), wk =   0.0480000
        k(   18) = (  -0.2000000   0.6000000  -0.2000000), wk =   0.0480000
        k(   19) = (   0.7000000  -0.3000000   0.7000000), wk =   0.0480000
        k(   20) = (   0.6000000  -0.2000000   0.6000000), wk =   0.0480000
        k(   21) = (   0.5000000  -0.1000000   0.5000000), wk =   0.0480000
        k(   22) = (   0.4000000   0.0000000   0.4000000), wk =   0.0240000
        k(   23) = (   0.0000000   0.6000000   0.0000000), wk =   0.0120000
        k(   24) = (  -0.1000000   0.7000000  -0.1000000), wk =   0.0480000
        k(   25) = (   0.8000000  -0.2000000   0.8000000), wk =   0.0480000
        k(   26) = (   0.7000000  -0.1000000   0.7000000), wk =   0.0480000
        k(   27) = (   0.6000000  -0.0000000   0.6000000), wk =   0.0240000
        k(   28) = (   0.0000000   0.8000000   0.0000000), wk =   0.0120000
        k(   29) = (   0.9000000  -0.1000000   0.9000000), wk =   0.0480000
        k(   30) = (   0.8000000   0.0000000   0.8000000), wk =   0.0240000
        k(   31) = (   0.0000000  -1.0000000   0.0000000), wk =   0.0060000
        k(   32) = (  -0.2000000   0.4000000   0.0000000), wk =   0.0480000
        k(   33) = (  -0.3000000   0.5000000  -0.1000000), wk =   0.0960000
        k(   34) = (   0.6000000  -0.4000000   0.8000000), wk =   0.0960000
        k(   35) = (   0.5000000  -0.3000000   0.7000000), wk =   0.0480000
        k(   36) = (  -0.2000000   0.6000000   0.0000000), wk =   0.0480000
        k(   37) = (   0.7000000  -0.3000000   0.9000000), wk =   0.0960000
        k(   38) = (   0.6000000  -0.2000000   0.8000000), wk =   0.0960000
        k(   39) = (   0.5000000  -0.1000000   0.7000000), wk =   0.0960000
        k(   40) = (   0.4000000   0.0000000   0.6000000), wk =   0.0480000
        k(   41) = (   0.8000000  -0.2000000   1.0000000), wk =   0.0480000
        k(   42) = (   0.7000000  -0.1000000   0.9000000), wk =   0.0960000
        k(   43) = (   0.6000000   0.0000000   0.8000000), wk =   0.0480000
        k(   44) = (  -0.2000000  -1.0000000   0.0000000), wk =   0.0240000
        k(   45) = (   0.6000000  -0.2000000   1.0000000), wk =   0.0480000
        k(   46) = (   0.5000000  -0.1000000   0.9000000), wk =   0.0480000
        k(   47) = (  -0.4000000  -1.0000000   0.0000000), wk =   0.0240000

     Dense  grid:     6615 G-vectors     FFT dimensions: (  32,  32,  32)

     Estimated max dynamical RAM per process >      13.85 MB

     WARNING: libxc functional with ID  263 depends
      on external parameters: check the user_guide of
      QE if you need to modify them or to check their
      default values.

     Initial potential from superposition of free atoms

     starting charge       7.9990, renormalised to       8.0000
     Starting wfcs are   18 randomized atomic wfcs

     total cpu time spent up to now is        3.9 secs

     Self-consistent Calculation

     iteration #  1     ecut=    50.00 Ry     beta= 0.01
     Davidson diagonalization with overlap
     ethr =  1.00E-02,  avg # of iterations =  2.0

     total cpu time spent up to now is        6.6 secs

     total energy              =     -15.04097317 Ry
     estimated scf accuracy    <       0.15769897 Ry

     iteration #  2     ecut=    50.00 Ry     beta= 0.01
     Davidson diagonalization with overlap
     ethr =  1.97E-03,  avg # of iterations =  1.0

     total cpu time spent up to now is        8.6 secs

     total energy              =     -15.08286951 Ry
     estimated scf accuracy    <       0.16160563 Ry

     iteration #  3     ecut=    50.00 Ry     beta= 0.01
     Davidson diagonalization with overlap
     ethr =  1.97E-03,  avg # of iterations =  1.4

     total cpu time spent up to now is       10.7 secs

     total energy              =     -15.13655397 Ry
     estimated scf accuracy    <       0.27814210 Ry

     iteration #  4     ecut=    50.00 Ry     beta= 0.01
     Davidson diagonalization with overlap
     ethr =  1.97E-03,  avg # of iterations =  1.3

     total cpu time spent up to now is       12.7 secs

     total energy              =     -15.14513676 Ry
     estimated scf accuracy    <       0.01209365 Ry

     iteration #  5     ecut=    50.00 Ry     beta= 0.01
     Davidson diagonalization with overlap
     ethr =  1.51E-04,  avg # of iterations =  1.3

     total cpu time spent up to now is       14.8 secs

     total energy              =     -15.14612329 Ry
     estimated scf accuracy    <       0.00559084 Ry

     iteration #  6     ecut=    50.00 Ry     beta= 0.01
     Davidson diagonalization with overlap
     ethr =  6.99E-05,  avg # of iterations =  1.0

     total cpu time spent up to now is       16.7 secs

     total energy              =     -15.14479619 Ry
     estimated scf accuracy    <       0.00628327 Ry

     iteration #  7     ecut=    50.00 Ry     beta= 0.01
     Davidson diagonalization with overlap
     ethr =  6.99E-05,  avg # of iterations =  1.0

     total cpu time spent up to now is       18.7 secs

     total energy              =     -15.14503927 Ry
     estimated scf accuracy    <       0.00068445 Ry

     iteration #  8     ecut=    50.00 Ry     beta= 0.01
     Davidson diagonalization with overlap
     ethr =  8.56E-06,  avg # of iterations =  2.3

     total cpu time spent up to now is       21.4 secs

     total energy              =     -15.14523458 Ry
     estimated scf accuracy    <       0.00015897 Ry

     iteration #  9     ecut=    50.00 Ry     beta= 0.01
     Davidson diagonalization with overlap
     ethr =  1.99E-06,  avg # of iterations =  1.4

     total cpu time spent up to now is       23.5 secs

     total energy              =     -15.14523359 Ry
     estimated scf accuracy    <       0.00021617 Ry

     iteration # 10     ecut=    50.00 Ry     beta= 0.01
     Davidson diagonalization with overlap
     ethr =  1.99E-06,  avg # of iterations =  1.0

     total cpu time spent up to now is       25.5 secs

     total energy              =     -15.14530036 Ry
     estimated scf accuracy    <       0.00022191 Ry

     iteration # 11     ecut=    50.00 Ry     beta= 0.01
     Davidson diagonalization with overlap
     ethr =  1.99E-06,  avg # of iterations =  1.0

     total cpu time spent up to now is       27.5 secs

     total energy              =     -15.14532509 Ry
     estimated scf accuracy    <       0.00005129 Ry

     iteration # 12     ecut=    50.00 Ry     beta= 0.01
     Davidson diagonalization with overlap
     ethr =  6.41E-07,  avg # of iterations =  1.8

     total cpu time spent up to now is       29.4 secs

     total energy              =     -15.14533054 Ry
     estimated scf accuracy    <       0.00000871 Ry

     iteration # 13     ecut=    50.00 Ry     beta= 0.01
     Davidson diagonalization with overlap
     ethr =  1.09E-07,  avg # of iterations =  1.1

     total cpu time spent up to now is       31.4 secs

     total energy              =     -15.14532861 Ry
     estimated scf accuracy    <       0.00000997 Ry

     iteration # 14     ecut=    50.00 Ry     beta= 0.01
     Davidson diagonalization with overlap
     ethr =  1.09E-07,  avg # of iterations =  1.0

     total cpu time spent up to now is       33.4 secs

     total energy              =     -15.14532884 Ry
     estimated scf accuracy    <       0.00000161 Ry

     iteration # 15     ecut=    50.00 Ry     beta= 0.01
     Davidson diagonalization with overlap
     ethr =  2.01E-08,  avg # of iterations =  2.1

     total cpu time spent up to now is       36.2 secs

     End of self-consistent calculation

          k = 0.0000 0.0000 0.0000 (   869 PWs)   bands (ev):

    -3.0296  15.4470  15.4470  15.4470

          k =-0.1000 0.1000-0.1000 (   845 PWs)   bands (ev):

    -2.7976  13.7766  15.0908  15.0908

          k =-0.2000 0.2000-0.2000 (   833 PWs)   bands (ev):

    -2.1059  10.9098  14.5021  14.5021

          k =-0.3000 0.3000-0.3000 (   827 PWs)   bands (ev):

    -0.9708   7.9902  14.0596  14.0596

          k =-0.4000 0.4000-0.4000 (   820 PWs)   bands (ev):

     0.5532   5.3362  13.8207  13.8207

          k = 0.5000-0.5000 0.5000 (   832 PWs)   bands (ev):

     1.8615   3.6433  13.7499  13.7499

          k = 0.0000 0.2000 0.0000 (   841 PWs)   bands (ev):

    -2.7202  14.2789  14.2789  14.7955

          k =-0.1000 0.3000-0.1000 (   830 PWs)   bands (ev):

    -2.1816  11.9845  13.5370  14.5161

          k =-0.2000 0.4000-0.2000 (   832 PWs)   bands (ev):

    -1.1931   9.0991  13.0749  13.8807

          k =-0.3000 0.5000-0.3000 (   823 PWs)   bands (ev):

     0.2111   6.3517  12.9383  13.1933

          k = 0.6000-0.4000 0.6000 (   821 PWs)   bands (ev):

     1.8129   4.1183  12.6105  13.1174

          k = 0.5000-0.3000 0.5000 (   822 PWs)   bands (ev):

     1.3066   4.7528  12.2407  13.5662

          k = 0.4000-0.2000 0.4000 (   820 PWs)   bands (ev):

    -0.2995   7.2385  12.1631  14.2005

          k = 0.3000-0.1000 0.3000 (   830 PWs)   bands (ev):

    -1.5718  10.0680  12.4205  14.8906

          k = 0.2000 0.0000 0.2000 (   835 PWs)   bands (ev):

    -2.4122  12.7799  13.1601  15.3643

          k = 0.0000 0.4000 0.0000 (   833 PWs)   bands (ev):

    -1.7974  12.6706  12.6706  13.0525

          k =-0.1000 0.5000-0.1000 (   830 PWs)   bands (ev):

    -0.9609  10.3896  12.1061  12.4456

          k =-0.2000 0.6000-0.2000 (   816 PWs)   bands (ev):

     0.3047   7.7057  11.4126  11.8948

          k = 0.7000-0.3000 0.7000 (   822 PWs)   bands (ev):

     1.9025   5.2788  10.4776  12.0442

          k = 0.6000-0.2000 0.6000 (   827 PWs)   bands (ev):

     2.3960   4.6710   9.8333  12.5368

          k = 0.5000-0.1000 0.5000 (   819 PWs)   bands (ev):

     0.8023   6.8813   9.5536  13.3212

          k = 0.4000 0.0000 0.4000 (   831 PWs)   bands (ev):

    -0.5910   9.3640   9.8691  14.2549

          k = 0.0000 0.6000 0.0000 (   829 PWs)   bands (ev):

    -0.2782  10.4296  11.4261  11.4261

          k =-0.1000 0.7000-0.1000 (   821 PWs)   bands (ev):

     0.8389   8.6777  10.1156  11.1028

          k = 0.8000-0.2000 0.8000 (   814 PWs)   bands (ev):

     2.3372   6.6420   8.5700  11.1524

          k = 0.7000-0.1000 0.7000 (   821 PWs)   bands (ev):

     3.5981   5.1829   7.5786  11.5697

          k = 0.6000-0.0000 0.6000 (   812 PWs)   bands (ev):

     2.2789   6.6644   7.3148  12.3244

          k = 0.0000 0.8000 0.0000 (   806 PWs)   bands (ev):

     1.8046   7.3597  10.6598  10.6598

          k = 0.9000-0.1000 0.9000 (   813 PWs)   bands (ev):

     3.1688   5.9213   9.2432  10.5918

          k = 0.8000 0.0000 0.8000 (   810 PWs)   bands (ev):

     4.5608   4.9679   7.3392  10.9009

          k = 0.0000-1.0000 0.0000 (   806 PWs)   bands (ev):

     4.3911   4.3911  10.4019  10.4019

          k =-0.2000 0.4000 0.0000 (   833 PWs)   bands (ev):

    -1.4940  11.0704  11.5349  14.1553

          k =-0.3000 0.5000-0.1000 (   824 PWs)   bands (ev):

    -0.3658   8.4705  10.9643  13.3067

          k = 0.6000-0.4000 0.8000 (   817 PWs)   bands (ev):

     1.1489   5.8731  10.8973  12.4553

          k = 0.5000-0.3000 0.7000 (   824 PWs)   bands (ev):

     2.4532   4.1956  10.9682  12.0594

          k =-0.2000 0.6000 0.0000 (   826 PWs)   bands (ev):

     0.0160   9.5163  10.2612  11.6712

          k = 0.7000-0.3000 0.9000 (   822 PWs)   bands (ev):

     1.4025   7.2828   9.5715  10.7798

          k = 0.6000-0.2000 0.8000 (   824 PWs)   bands (ev):

     2.9864   5.1648   8.9645  10.7005

          k = 0.5000-0.1000 0.7000 (   819 PWs)   bands (ev):

     2.4675   5.8143   8.4810  11.2758

          k = 0.4000 0.0000 0.6000 (   818 PWs)   bands (ev):

     0.8860   7.9758   8.5753  12.2371

          k = 0.8000-0.2000 1.0000 (   815 PWs)   bands (ev):

     2.0798   7.3828   9.4896   9.8119

          k = 0.7000-0.1000 0.9000 (   814 PWs)   bands (ev):

     3.6437   6.0031   7.7364   9.7734

          k = 0.6000 0.0000 0.8000 (   818 PWs)   bands (ev):

     3.9773   5.7613   6.8141  10.3287

          k =-0.2000-1.0000 0.0000 (   812 PWs)   bands (ev):

     4.6173   4.6173   9.2883   9.2883

          k = 0.6000-0.2000 1.0000 (   828 PWs)   bands (ev):

     2.8721   6.8317   7.8411   9.4638

          k = 0.5000-0.1000 0.9000 (   824 PWs)   bands (ev):

     4.1599   5.5783   7.6282   8.9118

          k =-0.4000-1.0000 0.0000 (   812 PWs)   bands (ev):

     5.1378   5.1378   7.8860   7.8860

     highest occupied level (ev):    15.4470

!    total energy              =     -15.14532938 Ry
     estimated scf accuracy    <       0.00000012 Ry

     The total energy is the sum of the following terms:
     one-electron contribution =      10.96664887 Ry
     hartree contribution      =       0.60052221 Ry
     xc contribution           =      -5.68700339 Ry
     ewald contribution        =     -21.02549707 Ry

     convergence has been achieved in  15 iterations
     Writing meta-gga kinetic term

     Writing all to output data dir ./input_pw/Si/0/pwscf.save/
     Writing meta-gga kinetic term
 
     init_run     :      1.74s CPU      3.79s WALL (       1 calls)
     electrons    :     16.03s CPU     32.30s WALL (       1 calls)

     Called by init_run:
     wfcinit      :      1.64s CPU      3.57s WALL (       1 calls)
     potinit      :      0.02s CPU      0.04s WALL (       1 calls)
     hinit0       :      0.07s CPU      0.15s WALL (       1 calls)

     Called by electrons:
     c_bands      :     12.57s CPU     25.45s WALL (      15 calls)
     sum_band     :      3.02s CPU      6.01s WALL (      15 calls)
     v_of_rho     :      0.32s CPU      0.60s WALL (      16 calls)
     mix_rho      :      0.13s CPU      0.27s WALL (      15 calls)

     Called by c_bands:
     init_us_2    :      0.15s CPU      0.31s WALL (    1457 calls)
     init_us_2:cp :      0.15s CPU      0.30s WALL (    1457 calls)
     cegterg      :     12.37s CPU     25.13s WALL (     705 calls)

     Called by *egterg:
     cdiaghg      :      0.10s CPU      0.24s WALL (    1680 calls)
     h_psi        :     13.64s CPU     27.91s WALL (    1727 calls)
     g_psi        :      0.01s CPU      0.01s WALL (     975 calls)

     Called by h_psi:
     h_psi:calbec :      0.07s CPU      0.11s WALL (    1727 calls)
     vloc_psi     :      3.37s CPU      7.59s WALL (    1727 calls)
     add_vuspsi   :      0.05s CPU      0.11s WALL (    1727 calls)
     h_psi_meta   :     10.13s CPU     20.03s WALL (    1727 calls)

     General routines
     calbec       :      0.06s CPU      0.10s WALL (    1727 calls)
     fft          :      0.04s CPU      0.09s WALL (     189 calls)
     ffts         :      0.05s CPU      0.10s WALL (     244 calls)
     fftw         :     13.60s CPU     27.58s WALL (   69000 calls)
     interpolate  :      0.00s CPU      0.00s WALL (      16 calls)
 
     Parallel routines
 
     PWSCF        :     17.81s CPU     36.22s WALL

 
   This run was terminated on:  12:50:17  21Feb2023            

=------------------------------------------------------------------------------=
   JOB DONE.
=------------------------------------------------------------------------------=
