
     Program PWSCF v.7.0 starts on 29Mar2023 at 11:31: 6 

     This program is part of the open-source Quantum ESPRESSO suite
     for quantum simulation of materials; please cite
         "P. Giannozzi et al., J. Phys.:Condens. Matter 21 395502 (2009);
         "P. Giannozzi et al., J. Phys.:Condens. Matter 29 465901 (2017);
         "P. Giannozzi et al., J. Chem. Phys. 152 154105 (2020);
          URL http://www.quantum-espresso.org", 
     in publications or presentations arising from this work. More details at
     http://www.quantum-espresso.org/quote

     Parallel version (MPI), running on     1 processors

     MPI processes distributed on     1 nodes
     23586 MiB available memory on the printing compute node when the environment starts
 
     Waiting for input...
     Reading input from standard input
Warning: card &CELL ignored
Warning: card / ignored

     Current dimensions of program PWSCF are:
     Max number of different atomic species (ntypx) = 10
     Max number of k-points (npk) =  40000
     Max angular momentum in pseudopotentials (lmaxx) =  4
     file Si.SCAN.UPF2: wavefunction(s)  0D renormalized

     WARNING: the MGGA functional with ID    5 has been 
     read together with other dft terms, but it should 
     stand alone in order to work properly. The other 
     terms will be ignored.

     Subspace diagonalization in iterative solution of the eigenvalue problem:
     a serial algorithm will be used

 
     G-vector sticks info
     --------------------
     sticks:   dense  smooth     PW     G-vecs:    dense   smooth      PW
     Sum         475     475    151                 6735     6735    1243
 
     Using Slab Decomposition
 


     bravais-lattice index     =            2
     lattice parameter (alat)  =       8.2679  a.u.
     unit-cell volume          =     141.2962 (a.u.)^3
     number of atoms/cell      =            2
     number of atomic types    =            1
     number of electrons       =         8.00
     number of Kohn-Sham states=            4
     kinetic-energy cutoff     =      50.0000  Ry
     charge density cutoff     =     200.0000  Ry
     scf convergence threshold =      1.0E-06
     mixing beta               =       0.0100
     number of iterations used =            8  local-TF  mixing
     Exchange-correlation= SLA  PW   SCAN SCAN
                           (   0   0   0   0   0 263 267)

     celldm(1)=   8.267930  celldm(2)=   0.000000  celldm(3)=   0.000000
     celldm(4)=   0.000000  celldm(5)=   0.000000  celldm(6)=   0.000000

     crystal axes: (cart. coord. in units of alat)
               a(1) = (  -0.500000   0.000000   0.500000 )  
               a(2) = (   0.000000   0.500000   0.500000 )  
               a(3) = (  -0.500000   0.500000   0.000000 )  

     reciprocal axes: (cart. coord. in units 2 pi/alat)
               b(1) = ( -1.000000 -1.000000  1.000000 )  
               b(2) = (  1.000000  1.000000  1.000000 )  
               b(3) = ( -1.000000  1.000000 -1.000000 )  


     PseudoPot. # 1 for Si read from file:
     ~/Documents/TA/PWDFT.jl/pseudopotentials/scan_upf/Si.SCAN.UPF2
     MD5 check sum: Not computed, couldn't open file
     Pseudo is Norm-conserving, Zval =  4.0
     Generated by new atomic code, or converted to UPF format
     Using radial grid of 1475 points,  2 beta functions with: 
                l(1) =   0
                l(2) =   1

     atomic species   valence    mass     pseudopotential
        Si             4.00    28.08550     Si( 1.00)

     48 Sym. Ops., with inversion, found (24 have fractional translation)



   Cartesian axes

     site n.     atom                  positions (alat units)
         1           Si  tau(   1) = (   0.0000000   0.0000000   0.0000000  )
         2           Si  tau(   2) = (   0.2500000   0.2500000   0.2500000  )

     number of k points=    47
                       cart. coord. in units 2pi/alat
        k(    1) = (   0.0000000   0.0000000   0.0000000), wk =   0.0020000
        k(    2) = (  -0.1000000   0.1000000  -0.1000000), wk =   0.0160000
        k(    3) = (  -0.2000000   0.2000000  -0.2000000), wk =   0.0160000
        k(    4) = (  -0.3000000   0.3000000  -0.3000000), wk =   0.0160000
        k(    5) = (  -0.4000000   0.4000000  -0.4000000), wk =   0.0160000
        k(    6) = (   0.5000000  -0.5000000   0.5000000), wk =   0.0080000
        k(    7) = (   0.0000000   0.2000000   0.0000000), wk =   0.0120000
        k(    8) = (  -0.1000000   0.3000000  -0.1000000), wk =   0.0480000
        k(    9) = (  -0.2000000   0.4000000  -0.2000000), wk =   0.0480000
        k(   10) = (  -0.3000000   0.5000000  -0.3000000), wk =   0.0480000
        k(   11) = (   0.6000000  -0.4000000   0.6000000), wk =   0.0480000
        k(   12) = (   0.5000000  -0.3000000   0.5000000), wk =   0.0480000
        k(   13) = (   0.4000000  -0.2000000   0.4000000), wk =   0.0480000
        k(   14) = (   0.3000000  -0.1000000   0.3000000), wk =   0.0480000
        k(   15) = (   0.2000000   0.0000000   0.2000000), wk =   0.0240000
        k(   16) = (   0.0000000   0.4000000   0.0000000), wk =   0.0120000
        k(   17) = (  -0.1000000   0.5000000  -0.1000000), wk =   0.0480000
        k(   18) = (  -0.2000000   0.6000000  -0.2000000), wk =   0.0480000
        k(   19) = (   0.7000000  -0.3000000   0.7000000), wk =   0.0480000
        k(   20) = (   0.6000000  -0.2000000   0.6000000), wk =   0.0480000
        k(   21) = (   0.5000000  -0.1000000   0.5000000), wk =   0.0480000
        k(   22) = (   0.4000000   0.0000000   0.4000000), wk =   0.0240000
        k(   23) = (   0.0000000   0.6000000   0.0000000), wk =   0.0120000
        k(   24) = (  -0.1000000   0.7000000  -0.1000000), wk =   0.0480000
        k(   25) = (   0.8000000  -0.2000000   0.8000000), wk =   0.0480000
        k(   26) = (   0.7000000  -0.1000000   0.7000000), wk =   0.0480000
        k(   27) = (   0.6000000  -0.0000000   0.6000000), wk =   0.0240000
        k(   28) = (   0.0000000   0.8000000   0.0000000), wk =   0.0120000
        k(   29) = (   0.9000000  -0.1000000   0.9000000), wk =   0.0480000
        k(   30) = (   0.8000000   0.0000000   0.8000000), wk =   0.0240000
        k(   31) = (   0.0000000  -1.0000000   0.0000000), wk =   0.0060000
        k(   32) = (  -0.2000000   0.4000000   0.0000000), wk =   0.0480000
        k(   33) = (  -0.3000000   0.5000000  -0.1000000), wk =   0.0960000
        k(   34) = (   0.6000000  -0.4000000   0.8000000), wk =   0.0960000
        k(   35) = (   0.5000000  -0.3000000   0.7000000), wk =   0.0480000
        k(   36) = (  -0.2000000   0.6000000   0.0000000), wk =   0.0480000
        k(   37) = (   0.7000000  -0.3000000   0.9000000), wk =   0.0960000
        k(   38) = (   0.6000000  -0.2000000   0.8000000), wk =   0.0960000
        k(   39) = (   0.5000000  -0.1000000   0.7000000), wk =   0.0960000
        k(   40) = (   0.4000000   0.0000000   0.6000000), wk =   0.0480000
        k(   41) = (   0.8000000  -0.2000000   1.0000000), wk =   0.0480000
        k(   42) = (   0.7000000  -0.1000000   0.9000000), wk =   0.0960000
        k(   43) = (   0.6000000   0.0000000   0.8000000), wk =   0.0480000
        k(   44) = (  -0.2000000  -1.0000000   0.0000000), wk =   0.0240000
        k(   45) = (   0.6000000  -0.2000000   1.0000000), wk =   0.0480000
        k(   46) = (   0.5000000  -0.1000000   0.9000000), wk =   0.0480000
        k(   47) = (  -0.4000000  -1.0000000   0.0000000), wk =   0.0240000

     Dense  grid:     6735 G-vectors     FFT dimensions: (  32,  32,  32)

     Estimated max dynamical RAM per process >      14.05 MB

     WARNING: libxc functional with ID  263 depends
      on external parameters: check the user_guide of
      QE if you need to modify them or to check their
      default values.

     Initial potential from superposition of free atoms

     starting charge       7.9990, renormalised to       8.0000
     Starting wfcs are   18 randomized atomic wfcs

     total cpu time spent up to now is        4.1 secs

     Self-consistent Calculation

     iteration #  1     ecut=    50.00 Ry     beta= 0.01
     Davidson diagonalization with overlap
     ethr =  1.00E-02,  avg # of iterations =  2.0

     total cpu time spent up to now is        7.0 secs

     total energy              =     -15.09206794 Ry
     estimated scf accuracy    <       0.15320063 Ry

     iteration #  2     ecut=    50.00 Ry     beta= 0.01
     Davidson diagonalization with overlap
     ethr =  1.92E-03,  avg # of iterations =  1.0

     total cpu time spent up to now is        9.1 secs

     total energy              =     -15.13300932 Ry
     estimated scf accuracy    <       0.15703198 Ry

     iteration #  3     ecut=    50.00 Ry     beta= 0.01
     Davidson diagonalization with overlap
     ethr =  1.92E-03,  avg # of iterations =  1.5

     total cpu time spent up to now is       11.3 secs

     total energy              =     -15.18986371 Ry
     estimated scf accuracy    <       0.27137953 Ry

     iteration #  4     ecut=    50.00 Ry     beta= 0.01
     Davidson diagonalization with overlap
     ethr =  1.92E-03,  avg # of iterations =  1.3

     total cpu time spent up to now is       13.4 secs

     total energy              =     -15.19822797 Ry
     estimated scf accuracy    <       0.01277674 Ry

     iteration #  5     ecut=    50.00 Ry     beta= 0.01
     Davidson diagonalization with overlap
     ethr =  1.60E-04,  avg # of iterations =  1.2

     total cpu time spent up to now is       15.5 secs

     total energy              =     -15.19908504 Ry
     estimated scf accuracy    <       0.00570329 Ry

     iteration #  6     ecut=    50.00 Ry     beta= 0.01
     Davidson diagonalization with overlap
     ethr =  7.13E-05,  avg # of iterations =  1.0

     total cpu time spent up to now is       17.6 secs

     total energy              =     -15.19764062 Ry
     estimated scf accuracy    <       0.00646770 Ry

     iteration #  7     ecut=    50.00 Ry     beta= 0.01
     Davidson diagonalization with overlap
     ethr =  7.13E-05,  avg # of iterations =  1.0

     total cpu time spent up to now is       19.7 secs

     total energy              =     -15.19792313 Ry
     estimated scf accuracy    <       0.00059490 Ry

     iteration #  8     ecut=    50.00 Ry     beta= 0.01
     Davidson diagonalization with overlap
     ethr =  7.44E-06,  avg # of iterations =  2.4

     total cpu time spent up to now is       22.3 secs

     total energy              =     -15.19810041 Ry
     estimated scf accuracy    <       0.00014463 Ry

     iteration #  9     ecut=    50.00 Ry     beta= 0.01
     Davidson diagonalization with overlap
     ethr =  1.81E-06,  avg # of iterations =  1.3

     total cpu time spent up to now is       24.4 secs

     total energy              =     -15.19808874 Ry
     estimated scf accuracy    <       0.00019917 Ry

     iteration # 10     ecut=    50.00 Ry     beta= 0.01
     Davidson diagonalization with overlap
     ethr =  1.81E-06,  avg # of iterations =  1.0

     total cpu time spent up to now is       26.5 secs

     total energy              =     -15.19816513 Ry
     estimated scf accuracy    <       0.00020880 Ry

     iteration # 11     ecut=    50.00 Ry     beta= 0.01
     Davidson diagonalization with overlap
     ethr =  1.81E-06,  avg # of iterations =  1.9

     total cpu time spent up to now is       29.0 secs

     total energy              =     -15.19819012 Ry
     estimated scf accuracy    <       0.00002959 Ry

     iteration # 12     ecut=    50.00 Ry     beta= 0.01
     Davidson diagonalization with overlap
     ethr =  3.70E-07,  avg # of iterations =  2.0

     total cpu time spent up to now is       31.6 secs

     total energy              =     -15.19819291 Ry
     estimated scf accuracy    <       0.00000879 Ry

     iteration # 13     ecut=    50.00 Ry     beta= 0.01
     Davidson diagonalization with overlap
     ethr =  1.10E-07,  avg # of iterations =  1.0

     total cpu time spent up to now is       33.7 secs

     total energy              =     -15.19819173 Ry
     estimated scf accuracy    <       0.00000832 Ry

     iteration # 14     ecut=    50.00 Ry     beta= 0.01
     Davidson diagonalization with overlap
     ethr =  1.04E-07,  avg # of iterations =  1.0

     total cpu time spent up to now is       35.9 secs

     total energy              =     -15.19819223 Ry
     estimated scf accuracy    <       0.00000390 Ry

     iteration # 15     ecut=    50.00 Ry     beta= 0.01
     Davidson diagonalization with overlap
     ethr =  4.88E-08,  avg # of iterations =  2.0

     total cpu time spent up to now is       38.4 secs

     End of self-consistent calculation

          k = 0.0000 0.0000 0.0000 (   869 PWs)   bands (ev):

    -3.1961  14.9917  14.9917  14.9917

          k =-0.1000 0.1000-0.1000 (   869 PWs)   bands (ev):

    -2.9683  13.3539  14.6423  14.6423

          k =-0.2000 0.2000-0.2000 (   854 PWs)   bands (ev):

    -2.2894  10.5331  14.0599  14.0599

          k =-0.3000 0.3000-0.3000 (   845 PWs)   bands (ev):

    -1.1761   7.6611  13.6175  13.6175

          k =-0.4000 0.4000-0.4000 (   847 PWs)   bands (ev):

     0.3145   5.0567  13.3750  13.3750

          k = 0.5000-0.5000 0.5000 (   832 PWs)   bands (ev):

     1.5723   3.4199  13.3020  13.3020

          k = 0.0000 0.2000 0.0000 (   869 PWs)   bands (ev):

    -2.8924  13.8514  13.8514  14.3341

          k =-0.1000 0.3000-0.1000 (   858 PWs)   bands (ev):

    -2.3636  11.5880  13.1212  14.0571

          k =-0.2000 0.4000-0.2000 (   850 PWs)   bands (ev):

    -1.3938   8.7495  12.6629  13.4282

          k =-0.3000 0.5000-0.3000 (   845 PWs)   bands (ev):

    -0.0183   6.0507  12.5232  12.7527

          k = 0.6000-0.4000 0.6000 (   844 PWs)   bands (ev):

     1.5348   3.8753  12.1853  12.6932

          k = 0.5000-0.3000 0.5000 (   840 PWs)   bands (ev):

     1.0484   4.4880  11.8292  13.1284

          k = 0.4000-0.2000 0.4000 (   843 PWs)   bands (ev):

    -0.5181   6.9212  11.7600  13.7481

          k = 0.3000-0.1000 0.3000 (   845 PWs)   bands (ev):

    -1.7653   9.7023  12.0196  14.4269

          k = 0.2000 0.0000 0.2000 (   859 PWs)   bands (ev):

    -2.5901  12.3646  12.7569  14.8980

          k = 0.0000 0.4000 0.0000 (   853 PWs)   bands (ev):

    -1.9864  12.2708  12.2708  12.5893

          k =-0.1000 0.5000-0.1000 (   846 PWs)   bands (ev):

    -1.1655  10.0063  11.7140  12.0165

          k =-0.2000 0.6000-0.2000 (   842 PWs)   bands (ev):

     0.0754   7.3724  11.0087  11.5037

          k = 0.7000-0.3000 0.7000 (   837 PWs)   bands (ev):

     1.6339   4.9993  10.0961  11.6476

          k = 0.6000-0.2000 0.6000 (   842 PWs)   bands (ev):

     2.1072   4.4145   9.4682  12.1285

          k = 0.5000-0.1000 0.5000 (   846 PWs)   bands (ev):

     0.5613   6.5668   9.1989  12.8948

          k = 0.4000 0.0000 0.4000 (   845 PWs)   bands (ev):

    -0.8032   8.9915   9.5263  13.8058

          k = 0.0000 0.6000 0.0000 (   833 PWs)   bands (ev):

    -0.4951  10.0029  11.0452  11.0452

          k =-0.1000 0.7000-0.1000 (   844 PWs)   bands (ev):

     0.6009   8.2843   9.7722  10.7260

          k = 0.8000-0.2000 0.8000 (   842 PWs)   bands (ev):

     2.0667   6.3019   8.2525  10.7734

          k = 0.7000-0.1000 0.7000 (   837 PWs)   bands (ev):

     3.2772   4.9065   7.2732  11.1820

          k = 0.6000-0.0000 0.6000 (   848 PWs)   bands (ev):

     2.0043   6.3278   7.0287  11.9213

          k = 0.0000 0.8000 0.0000 (   830 PWs)   bands (ev):

     1.5492   6.9959  10.2899  10.2899

          k = 0.9000-0.1000 0.9000 (   833 PWs)   bands (ev):

     2.8862   5.5826   8.9173  10.2224

          k = 0.8000 0.0000 0.8000 (   842 PWs)   bands (ev):

     4.2263   4.6550   7.0724  10.5257

          k = 0.0000-1.0000 0.0000 (   846 PWs)   bands (ev):

     4.0864   4.0864  10.0356  10.0356

          k =-0.2000 0.4000 0.0000 (   845 PWs)   bands (ev):

    -1.6888  10.6730  11.1605  13.7032

          k =-0.3000 0.5000-0.1000 (   845 PWs)   bands (ev):

    -0.5823   8.1269  10.5837  12.8803

          k = 0.6000-0.4000 0.8000 (   836 PWs)   bands (ev):

     0.8993   5.5804  10.5078  12.0563

          k = 0.5000-0.3000 0.7000 (   838 PWs)   bands (ev):

     2.1537   3.9588  10.5688  11.6770

          k =-0.2000 0.6000 0.0000 (   844 PWs)   bands (ev):

    -0.2070   9.1194   9.9088  11.2905

          k = 0.7000-0.3000 0.9000 (   840 PWs)   bands (ev):

     1.1512   6.9455   9.2061  10.4325

          k = 0.6000-0.2000 0.8000 (   840 PWs)   bands (ev):

     2.6874   4.8899   8.6106  10.3506

          k = 0.5000-0.1000 0.7000 (   840 PWs)   bands (ev):

     2.1870   5.5191   8.1440  10.9078

          k = 0.4000 0.0000 0.6000 (   843 PWs)   bands (ev):

     0.6444   7.6162   8.2581  11.8442

          k = 0.8000-0.2000 1.0000 (   848 PWs)   bands (ev):

     1.8175   7.0067   9.1524   9.4864

          k = 0.7000-0.1000 0.9000 (   844 PWs)   bands (ev):

     3.3433   5.6526   7.4569   9.4380

          k = 0.6000 0.0000 0.8000 (   840 PWs)   bands (ev):

     3.6524   5.4315   6.5579   9.9803

          k =-0.2000-1.0000 0.0000 (   840 PWs)   bands (ev):

     4.3036   4.3036   8.9604   8.9604

          k = 0.6000-0.2000 1.0000 (   840 PWs)   bands (ev):

     2.5877   6.4667   7.5450   9.1512

          k = 0.5000-0.1000 0.9000 (   842 PWs)   bands (ev):

     3.8288   5.2716   7.3186   8.6149

          k =-0.4000-1.0000 0.0000 (   844 PWs)   bands (ev):

     4.7953   4.7953   7.6083   7.6083

     highest occupied level (ev):    14.9917

!    total energy              =     -15.19819263 Ry
     estimated scf accuracy    <       0.00000008 Ry

     The total energy is the sum of the following terms:
     one-electron contribution =      10.68349836 Ry
     hartree contribution      =       0.61876078 Ry
     xc contribution           =      -5.65151581 Ry
     ewald contribution        =     -20.84893596 Ry

     convergence has been achieved in  15 iterations
     Writing meta-gga kinetic term

     Writing all to output data dir ./input_pw/Si/0/pwscf.save/
     Writing meta-gga kinetic term
 
     init_run     :      1.76s CPU      3.99s WALL (       1 calls)
     electrons    :     16.31s CPU     34.36s WALL (       1 calls)

     Called by init_run:
     wfcinit      :      1.65s CPU      3.70s WALL (       1 calls)
     potinit      :      0.02s CPU      0.10s WALL (       1 calls)
     hinit0       :      0.07s CPU      0.17s WALL (       1 calls)

     Called by electrons:
     c_bands      :     12.81s CPU     26.69s WALL (      15 calls)
     sum_band     :      3.06s CPU      6.64s WALL (      15 calls)
     v_of_rho     :      0.32s CPU      0.83s WALL (      16 calls)
     mix_rho      :      0.12s CPU      0.26s WALL (      15 calls)

     Called by c_bands:
     init_us_2    :      0.16s CPU      0.35s WALL (    1457 calls)
     init_us_2:cp :      0.15s CPU      0.35s WALL (    1457 calls)
     cegterg      :     12.61s CPU     26.36s WALL (     705 calls)

     Called by *egterg:
     cdiaghg      :      0.11s CPU      0.16s WALL (    1721 calls)
     h_psi        :     13.88s CPU     29.36s WALL (    1768 calls)
     g_psi        :      0.01s CPU      0.02s WALL (    1016 calls)

     Called by h_psi:
     h_psi:calbec :      0.07s CPU      0.10s WALL (    1768 calls)
     vloc_psi     :      3.40s CPU      7.01s WALL (    1768 calls)
     add_vuspsi   :      0.05s CPU      0.08s WALL (    1768 calls)
     h_psi_meta   :     10.32s CPU     22.10s WALL (    1768 calls)

     General routines
     calbec       :      0.06s CPU      0.10s WALL (    1768 calls)
     fft          :      0.04s CPU      0.06s WALL (     189 calls)
     ffts         :      0.05s CPU      0.06s WALL (     246 calls)
     fftw         :     13.78s CPU     29.45s WALL (   69200 calls)
     interpolate  :      0.00s CPU      0.00s WALL (      16 calls)
 
     Parallel routines
 
     PWSCF        :     18.11s CPU     38.44s WALL

 
   This run was terminated on:  11:31:44  29Mar2023            

=------------------------------------------------------------------------------=
   JOB DONE.
=------------------------------------------------------------------------------=
