
     Program PWSCF v.7.0 starts on 18Feb2023 at 14:46:57 

     This program is part of the open-source Quantum ESPRESSO suite
     for quantum simulation of materials; please cite
         "P. Giannozzi et al., J. Phys.:Condens. Matter 21 395502 (2009);
         "P. Giannozzi et al., J. Phys.:Condens. Matter 29 465901 (2017);
         "P. Giannozzi et al., J. Chem. Phys. 152 154105 (2020);
          URL http://www.quantum-espresso.org", 
     in publications or presentations arising from this work. More details at
     http://www.quantum-espresso.org/quote

     Parallel version (MPI), running on     1 processors

     MPI processes distributed on     1 nodes
     8121 MiB available memory on the printing compute node when the environment starts
 
     Waiting for input...
     Reading input from standard input

     Current dimensions of program PWSCF are:
     Max number of different atomic species (ntypx) = 10
     Max number of k-points (npk) =  40000
     Max angular momentum in pseudopotentials (lmaxx) =  4
     file Ge.SCAN.UPF: wavefunction(s)  0D renormalized

     WARNING: the MGGA functional with ID    5 has been 
     read together with other dft terms, but it should 
     stand alone in order to work properly. The other 
     terms will be ignored.

     Subspace diagonalization in iterative solution of the eigenvalue problem:
     a serial algorithm will be used

 
     G-vector sticks info
     --------------------
     sticks:   dense  smooth     PW     G-vecs:    dense   smooth      PW
     Sum         733     733    223                12939    12939    2229
 
     Using Slab Decomposition
 


     bravais-lattice index     =            2
     lattice parameter (alat)  =      10.2631  a.u.
     unit-cell volume          =     270.2562 (a.u.)^3
     number of atoms/cell      =            2
     number of atomic types    =            1
     number of electrons       =         8.00
     number of Kohn-Sham states=            4
     kinetic-energy cutoff     =      50.0000  Ry
     charge density cutoff     =     200.0000  Ry
     scf convergence threshold =      1.0E-06
     mixing beta               =       0.0100
     number of iterations used =            8  local-TF  mixing
     energy convergence thresh.=      1.0E-04
     force convergence thresh. =      1.0E-03
     press convergence thresh. =      5.0E-01
     Exchange-correlation=  SLA  PW  SCAN SCAN
                           (   0   0   0   0   0 263 267)
     nstep                     =           50


     celldm(1)=  10.263100  celldm(2)=   0.000000  celldm(3)=   0.000000
     celldm(4)=   0.000000  celldm(5)=   0.000000  celldm(6)=   0.000000

     crystal axes: (cart. coord. in units of alat)
               a(1) = (  -0.500000   0.000000   0.500000 )  
               a(2) = (   0.000000   0.500000   0.500000 )  
               a(3) = (  -0.500000   0.500000   0.000000 )  

     reciprocal axes: (cart. coord. in units 2 pi/alat)
               b(1) = ( -1.000000 -1.000000  1.000000 )  
               b(2) = (  1.000000  1.000000  1.000000 )  
               b(3) = ( -1.000000  1.000000 -1.000000 )  


     PseudoPot. # 1 for Ge read from file:
     ~/Documents/PWDFT.jl/pseudopotentials/scan_upf/Ge.SCAN.UPF
     MD5 check sum: Not computed, couldn't open file
     Pseudo is Norm-conserving, Zval =  4.0
     Generated by new atomic code, or converted to UPF format
     Using radial grid of 1557 points,  2 beta functions with: 
                l(1) =   0
                l(2) =   1

     atomic species   valence    mass     pseudopotential
        Ge             4.00    72.64000     Ge( 1.00)

     48 Sym. Ops., with inversion, found (24 have fractional translation)



   Cartesian axes

     site n.     atom                  positions (alat units)
         1           Ge  tau(   1) = (   0.0000000   0.0000000   0.0000000  )
         2           Ge  tau(   2) = (   0.2500000   0.2500000   0.2500000  )

     number of k points=    47
                       cart. coord. in units 2pi/alat
        k(    1) = (   0.0000000   0.0000000   0.0000000), wk =   0.0020000
        k(    2) = (  -0.1000000   0.1000000  -0.1000000), wk =   0.0160000
        k(    3) = (  -0.2000000   0.2000000  -0.2000000), wk =   0.0160000
        k(    4) = (  -0.3000000   0.3000000  -0.3000000), wk =   0.0160000
        k(    5) = (  -0.4000000   0.4000000  -0.4000000), wk =   0.0160000
        k(    6) = (   0.5000000  -0.5000000   0.5000000), wk =   0.0080000
        k(    7) = (   0.0000000   0.2000000   0.0000000), wk =   0.0120000
        k(    8) = (  -0.1000000   0.3000000  -0.1000000), wk =   0.0480000
        k(    9) = (  -0.2000000   0.4000000  -0.2000000), wk =   0.0480000
        k(   10) = (  -0.3000000   0.5000000  -0.3000000), wk =   0.0480000
        k(   11) = (   0.6000000  -0.4000000   0.6000000), wk =   0.0480000
        k(   12) = (   0.5000000  -0.3000000   0.5000000), wk =   0.0480000
        k(   13) = (   0.4000000  -0.2000000   0.4000000), wk =   0.0480000
        k(   14) = (   0.3000000  -0.1000000   0.3000000), wk =   0.0480000
        k(   15) = (   0.2000000   0.0000000   0.2000000), wk =   0.0240000
        k(   16) = (   0.0000000   0.4000000   0.0000000), wk =   0.0120000
        k(   17) = (  -0.1000000   0.5000000  -0.1000000), wk =   0.0480000
        k(   18) = (  -0.2000000   0.6000000  -0.2000000), wk =   0.0480000
        k(   19) = (   0.7000000  -0.3000000   0.7000000), wk =   0.0480000
        k(   20) = (   0.6000000  -0.2000000   0.6000000), wk =   0.0480000
        k(   21) = (   0.5000000  -0.1000000   0.5000000), wk =   0.0480000
        k(   22) = (   0.4000000   0.0000000   0.4000000), wk =   0.0240000
        k(   23) = (   0.0000000   0.6000000   0.0000000), wk =   0.0120000
        k(   24) = (  -0.1000000   0.7000000  -0.1000000), wk =   0.0480000
        k(   25) = (   0.8000000  -0.2000000   0.8000000), wk =   0.0480000
        k(   26) = (   0.7000000  -0.1000000   0.7000000), wk =   0.0480000
        k(   27) = (   0.6000000  -0.0000000   0.6000000), wk =   0.0240000
        k(   28) = (   0.0000000   0.8000000   0.0000000), wk =   0.0120000
        k(   29) = (   0.9000000  -0.1000000   0.9000000), wk =   0.0480000
        k(   30) = (   0.8000000   0.0000000   0.8000000), wk =   0.0240000
        k(   31) = (   0.0000000  -1.0000000   0.0000000), wk =   0.0060000
        k(   32) = (  -0.2000000   0.4000000   0.0000000), wk =   0.0480000
        k(   33) = (  -0.3000000   0.5000000  -0.1000000), wk =   0.0960000
        k(   34) = (   0.6000000  -0.4000000   0.8000000), wk =   0.0960000
        k(   35) = (   0.5000000  -0.3000000   0.7000000), wk =   0.0480000
        k(   36) = (  -0.2000000   0.6000000   0.0000000), wk =   0.0480000
        k(   37) = (   0.7000000  -0.3000000   0.9000000), wk =   0.0960000
        k(   38) = (   0.6000000  -0.2000000   0.8000000), wk =   0.0960000
        k(   39) = (   0.5000000  -0.1000000   0.7000000), wk =   0.0960000
        k(   40) = (   0.4000000   0.0000000   0.6000000), wk =   0.0480000
        k(   41) = (   0.8000000  -0.2000000   1.0000000), wk =   0.0480000
        k(   42) = (   0.7000000  -0.1000000   0.9000000), wk =   0.0960000
        k(   43) = (   0.6000000   0.0000000   0.8000000), wk =   0.0480000
        k(   44) = (  -0.2000000  -1.0000000   0.0000000), wk =   0.0240000
        k(   45) = (   0.6000000  -0.2000000   1.0000000), wk =   0.0480000
        k(   46) = (   0.5000000  -0.1000000   0.9000000), wk =   0.0480000
        k(   47) = (  -0.4000000  -1.0000000   0.0000000), wk =   0.0240000

     Dense  grid:    12939 G-vectors     FFT dimensions: (  36,  36,  36)

     Estimated max dynamical RAM per process >      25.12 MB

     WARNING: libxc functional with ID  263 depends
      on external parameters: check the user_guide of
      QE if you need to modify them or to check their
      default values.

     Initial potential from superposition of free atoms

     starting charge       7.9987, renormalised to       8.0000
     Starting wfcs are   18 randomized atomic wfcs

     total cpu time spent up to now is        2.3 secs

     Self-consistent Calculation

     iteration #  1     ecut=    50.00 Ry     beta= 0.01
     Davidson diagonalization with overlap
     ethr =  1.00E-02,  avg # of iterations =  1.9

     Threshold (ethr) on eigenvalues was too large:
     Diagonalizing with lowered threshold

     Davidson diagonalization with overlap
     ethr =  4.57E-04,  avg # of iterations =  6.0

     total cpu time spent up to now is        6.5 secs

     total energy              =     -15.70733785 Ry
     estimated scf accuracy    <       0.04534161 Ry

     iteration #  2     ecut=    50.00 Ry     beta= 0.01
     Davidson diagonalization with overlap
     ethr =  5.67E-04,  avg # of iterations =  1.0

     total cpu time spent up to now is        7.6 secs

     total energy              =     -15.75810187 Ry
     estimated scf accuracy    <       0.04520178 Ry

     iteration #  3     ecut=    50.00 Ry     beta= 0.01
     Davidson diagonalization with overlap
     ethr =  5.65E-04,  avg # of iterations =  1.4

     total cpu time spent up to now is        8.8 secs

     total energy              =     -15.80811205 Ry
     estimated scf accuracy    <       0.03340636 Ry

     iteration #  4     ecut=    50.00 Ry     beta= 0.01
     Davidson diagonalization with overlap
     ethr =  4.18E-04,  avg # of iterations =  1.2

     total cpu time spent up to now is       10.0 secs

     total energy              =     -15.81039326 Ry
     estimated scf accuracy    <       0.00398091 Ry

     iteration #  5     ecut=    50.00 Ry     beta= 0.01
     Davidson diagonalization with overlap
     ethr =  4.98E-05,  avg # of iterations =  6.8

     total cpu time spent up to now is       12.9 secs

     total energy              =     -15.81441948 Ry
     estimated scf accuracy    <       0.00634021 Ry

     iteration #  6     ecut=    50.00 Ry     beta= 0.01
     Davidson diagonalization with overlap
     ethr =  4.98E-05,  avg # of iterations =  1.4

     total cpu time spent up to now is       14.1 secs

     total energy              =     -15.81235402 Ry
     estimated scf accuracy    <       0.00587916 Ry

     iteration #  7     ecut=    50.00 Ry     beta= 0.01
     Davidson diagonalization with overlap
     ethr =  4.98E-05,  avg # of iterations =  2.3

     total cpu time spent up to now is       15.6 secs

     total energy              =     -15.81331264 Ry
     estimated scf accuracy    <       0.00016969 Ry

     iteration #  8     ecut=    50.00 Ry     beta= 0.01
     Davidson diagonalization with overlap
     c_bands:  3 eigenvalues not converged
     c_bands:  3 eigenvalues not converged
     ethr =  2.12E-06,  avg # of iterations = 11.5

     total cpu time spent up to now is       20.1 secs

     total energy              =     -15.81395107 Ry
     estimated scf accuracy    <       0.00048909 Ry

     iteration #  9     ecut=    50.00 Ry     beta= 0.01
     Davidson diagonalization with overlap
     ethr =  2.12E-06,  avg # of iterations =  1.9

     total cpu time spent up to now is       21.4 secs

     total energy              =     -15.81391677 Ry
     estimated scf accuracy    <       0.00039205 Ry

     iteration # 10     ecut=    50.00 Ry     beta= 0.01
     Davidson diagonalization with overlap
     ethr =  2.12E-06,  avg # of iterations =  1.1

     total cpu time spent up to now is       22.6 secs

     total energy              =     -15.81382696 Ry
     estimated scf accuracy    <       0.00026930 Ry

     iteration # 11     ecut=    50.00 Ry     beta= 0.01
     Davidson diagonalization with overlap
     ethr =  2.12E-06,  avg # of iterations =  4.1

     total cpu time spent up to now is       24.5 secs

     total energy              =     -15.81389769 Ry
     estimated scf accuracy    <       0.00001890 Ry

     iteration # 12     ecut=    50.00 Ry     beta= 0.01
     Davidson diagonalization with overlap
     ethr =  2.36E-07,  avg # of iterations =  7.4

     total cpu time spent up to now is       27.5 secs

     total energy              =     -15.81391670 Ry
     estimated scf accuracy    <       0.00003357 Ry

     iteration # 13     ecut=    50.00 Ry     beta= 0.01
     Davidson diagonalization with overlap
     ethr =  2.36E-07,  avg # of iterations =  1.2

     total cpu time spent up to now is       28.7 secs

     total energy              =     -15.81390996 Ry
     estimated scf accuracy    <       0.00002121 Ry

     iteration # 14     ecut=    50.00 Ry     beta= 0.01
     Davidson diagonalization with overlap
     ethr =  2.36E-07,  avg # of iterations =  1.1

     total cpu time spent up to now is       29.9 secs

     total energy              =     -15.81391195 Ry
     estimated scf accuracy    <       0.00000628 Ry

     iteration # 15     ecut=    50.00 Ry     beta= 0.01
     Davidson diagonalization with overlap
     ethr =  7.85E-08,  avg # of iterations =  2.3

     total cpu time spent up to now is       31.3 secs

     total energy              =     -15.81391250 Ry
     estimated scf accuracy    <       0.00000718 Ry

     iteration # 16     ecut=    50.00 Ry     beta= 0.01
     Davidson diagonalization with overlap
     ethr =  7.85E-08,  avg # of iterations =  1.0

     total cpu time spent up to now is       32.5 secs

     total energy              =     -15.81391269 Ry
     estimated scf accuracy    <       0.00000667 Ry

     iteration # 17     ecut=    50.00 Ry     beta= 0.01
     Davidson diagonalization with overlap
     ethr =  7.85E-08,  avg # of iterations =  1.0

     total cpu time spent up to now is       33.7 secs

     total energy              =     -15.81391227 Ry
     estimated scf accuracy    <       0.00000538 Ry

     iteration # 18     ecut=    50.00 Ry     beta= 0.01
     Davidson diagonalization with overlap
     ethr =  6.73E-08,  avg # of iterations =  1.1

     total cpu time spent up to now is       34.9 secs

     total energy              =     -15.81391262 Ry
     estimated scf accuracy    <       0.00000193 Ry

     iteration # 19     ecut=    50.00 Ry     beta= 0.01
     Davidson diagonalization with overlap
     ethr =  2.41E-08,  avg # of iterations =  3.9

     total cpu time spent up to now is       36.7 secs

     total energy              =     -15.81391356 Ry
     estimated scf accuracy    <       0.00000159 Ry

     iteration # 20     ecut=    50.00 Ry     beta= 0.01
     Davidson diagonalization with overlap
     ethr =  1.99E-08,  avg # of iterations =  1.2

     total cpu time spent up to now is       37.9 secs

     total energy              =     -15.81391310 Ry
     estimated scf accuracy    <       0.00000257 Ry

     iteration # 21     ecut=    50.00 Ry     beta= 0.01
     Davidson diagonalization with overlap
     ethr =  1.99E-08,  avg # of iterations =  4.5

     total cpu time spent up to now is       39.8 secs

     End of self-consistent calculation

          k = 0.0000 0.0000 0.0000 (  1639 PWs)   bands (ev):

    -7.0688   6.8301   6.8301   6.8301

          k =-0.1000 0.1000-0.1000 (  1606 PWs)   bands (ev):

    -6.9304   5.2198   6.5712   6.5712

          k =-0.2000 0.2000-0.2000 (  1606 PWs)   bands (ev):

    -6.5222   2.9833   6.0764   6.0764

          k =-0.3000 0.3000-0.3000 (  1615 PWs)   bands (ev):

    -5.8743   0.9409   5.6390   5.6390

          k =-0.4000 0.4000-0.4000 (  1616 PWs)   bands (ev):

    -5.0984  -0.6926   5.3588   5.3588

          k = 0.5000-0.5000 0.5000 (  1622 PWs)   bands (ev):

    -4.6455  -1.4341   5.2635   5.2635

          k = 0.0000 0.2000 0.0000 (  1599 PWs)   bands (ev):

    -6.8839   5.3436   6.1107   6.1107

          k =-0.1000 0.3000-0.1000 (  1609 PWs)   bands (ev):

    -6.5640   3.5733   5.5680   5.7043

          k =-0.2000 0.4000-0.2000 (  1607 PWs)   bands (ev):

    -5.9903   1.5635   5.1514   5.1606

          k =-0.3000 0.5000-0.3000 (  1610 PWs)   bands (ev):

    -5.2324  -0.1873   4.6486   4.9602

          k = 0.6000-0.4000 0.6000 (  1609 PWs)   bands (ev):

    -4.5806  -1.3005   4.3072   4.9827

          k = 0.5000-0.3000 0.5000 (  1616 PWs)   bands (ev):

    -4.7479  -1.0383   4.1717   5.2170

          k = 0.4000-0.2000 0.4000 (  1621 PWs)   bands (ev):

    -5.4989   0.3571   4.2702   5.6292

          k = 0.3000-0.1000 0.3000 (  1605 PWs)   bands (ev):

    -6.2093   2.2057   4.6361   6.1443

          k = 0.2000 0.0000 0.2000 (  1592 PWs)   bands (ev):

    -6.7015   4.0731   5.4039   6.5746

          k = 0.0000 0.4000 0.0000 (  1607 PWs)   bands (ev):

    -6.3324   3.2327   4.9925   4.9925

          k =-0.1000 0.5000-0.1000 (  1612 PWs)   bands (ev):

    -5.8389   1.8239   4.3583   4.5628

          k =-0.2000 0.6000-0.2000 (  1619 PWs)   bands (ev):

    -5.1266   0.2412   3.6098   4.3565

          k = 0.7000-0.3000 0.7000 (  1606 PWs)   bands (ev):

    -4.3702  -1.0303   3.0200   4.3956

          k = 0.6000-0.2000 0.6000 (  1596 PWs)   bands (ev):

    -4.2191  -1.2440   2.6923   4.6718

          k = 0.5000-0.1000 0.5000 (  1610 PWs)   bands (ev):

    -4.8901  -0.1969   2.7047   5.1458

          k = 0.4000 0.0000 0.4000 (  1610 PWs)   bands (ev):

    -5.6439   1.1709   3.2576   5.7170

          k = 0.0000 0.6000 0.0000 (  1620 PWs)   bands (ev):

    -5.4246   1.1448   4.0896   4.0896

          k =-0.1000 0.7000-0.1000 (  1625 PWs)   bands (ev):

    -4.7727   0.0129   3.3883   3.8372

          k = 0.8000-0.2000 0.8000 (  1619 PWs)   bands (ev):

    -3.9833  -1.0900   2.4811   3.8367

          k = 0.7000-0.1000 0.7000 (  1621 PWs)   bands (ev):

    -3.5631  -1.5834   1.8808   4.0869

          k = 0.6000-0.0000 0.6000 (  1608 PWs)   bands (ev):

    -4.1262  -0.9402   1.8590   4.5544

          k = 0.0000 0.8000 0.0000 (  1624 PWs)   bands (ev):

    -4.1802  -0.8351   3.5249   3.5249

          k = 0.9000-0.1000 0.9000 (  1623 PWs)   bands (ev):

    -3.4003  -1.7663   2.9049   3.4632

          k = 0.8000 0.0000 0.8000 (  1622 PWs)   bands (ev):

    -2.9219  -2.2100   2.0853   3.6586

          k = 0.0000-1.0000 0.0000 (  1604 PWs)   bands (ev):

    -2.6331  -2.6331   3.3337   3.3337

          k =-0.2000 0.4000 0.0000 (  1613 PWs)   bands (ev):

    -6.1583   2.4332   4.3092   5.5620

          k =-0.3000 0.5000-0.1000 (  1609 PWs)   bands (ev):

    -5.5130   0.8504   3.5858   5.1157

          k = 0.6000-0.4000 0.8000 (  1618 PWs)   bands (ev):

    -4.7341  -0.6320   3.2758   4.7080

          k = 0.5000-0.3000 0.7000 (  1608 PWs)   bands (ev):

    -4.2704  -1.3453   3.1909   4.5500

          k =-0.2000 0.6000 0.0000 (  1617 PWs)   bands (ev):

    -5.2684   0.7642   3.4547   4.2661

          k = 0.7000-0.3000 0.9000 (  1621 PWs)   bands (ev):

    -4.5089  -0.4557   2.7462   3.8993

          k = 0.6000-0.2000 0.8000 (  1613 PWs)   bands (ev):

    -3.8403  -1.3673   2.2823   3.8346

          k = 0.5000-0.1000 0.7000 (  1613 PWs)   bands (ev):

    -4.0492  -1.0937   2.1320   4.1061

          k = 0.4000 0.0000 0.6000 (  1607 PWs)   bands (ev):

    -4.8164  -0.0602   2.4870   4.6099

          k = 0.8000-0.2000 1.0000 (  1621 PWs)   bands (ev):

    -4.0602  -0.9376   2.9758   3.3501

          k = 0.7000-0.1000 0.9000 (  1625 PWs)   bands (ev):

    -3.2838  -1.7914   2.2374   3.2476

          k = 0.6000 0.0000 0.8000 (  1614 PWs)   bands (ev):

    -3.3111  -1.7434   1.7955   3.5541

          k =-0.2000-1.0000 0.0000 (  1624 PWs)   bands (ev):

    -2.5866  -2.5866   2.9269   2.9269

          k = 0.6000-0.2000 1.0000 (  1616 PWs)   bands (ev):

    -3.7348  -1.2648   2.1678   3.2717

          k = 0.5000-0.1000 0.9000 (  1608 PWs)   bands (ev):

    -3.2013  -1.8211   2.0027   2.9948

          k =-0.4000-1.0000 0.0000 (  1626 PWs)   bands (ev):

    -2.5063  -2.5063   2.4072   2.4072

     highest occupied level (ev):     6.8301

!    total energy              =     -15.81391375 Ry
     estimated scf accuracy    <       0.00000007 Ry

     The total energy is the sum of the following terms:
     one-electron contribution =       4.68943265 Ry
     hartree contribution      =       1.09134098 Ry
     xc contribution           =      -4.79883254 Ry
     ewald contribution        =     -16.79585484 Ry

     convergence has been achieved in  21 iterations
     Writing meta-gga kinetic term

     Forces acting on atoms (cartesian axes, Ry/au):

     atom    1 type  1   force =    -0.00000000   -0.00000000   -0.00000000
     atom    2 type  1   force =     0.00000000    0.00000000    0.00000000

     Total force =     0.000000     Total SCF correction =     0.000000


     Computing stress (Cartesian axis) and pressure

          total   stress  (Ry/bohr**3)                   (kbar)     P=      135.56
   0.00092153  -0.00000000  -0.00000000          135.56       -0.00       -0.00
  -0.00000000   0.00092153  -0.00000000           -0.00      135.56       -0.00
   0.00000000   0.00000000   0.00092153            0.00        0.00      135.56


     BFGS Geometry Optimization
     Energy error            =      0.0E+00 Ry
     Gradient error          =      2.3E-32 Ry/Bohr
     Cell gradient error     =      1.4E+02 kbar

     number of scf cycles    =   1
     number of bfgs steps    =   0

     enthalpy           new  =     -15.8139137471 Ry

     new trust radius        =       0.0757472758 bohr
     new conv_thr            =       0.0000010000 Ry

     new unit-cell volume =    289.36852 a.u.^3 (    42.87999 Ang^3 )
     density =      5.62601 g/cm^3

CELL_PARAMETERS (alat= 10.26310000)
  -0.511519117   0.000000000   0.511519117
  -0.000000000   0.511519117   0.511519117
  -0.511519117   0.511519117   0.000000000

ATOMIC_POSITIONS (alat)
Ge           -0.0000000000       -0.0000000000       -0.0000000000
Ge            0.2557595584        0.2557595584        0.2557595584



     Writing config-only to output data dir ./pwscf.save/
     NEW-OLD atomic charge density approx. for the potential
     extrapolated charge    8.52830, renormalised to    8.00000

     total cpu time spent up to now is       40.6 secs

     Self-consistent Calculation

     iteration #  1     ecut=    50.00 Ry     beta= 0.01
     Davidson diagonalization with overlap
     c_bands:  2 eigenvalues not converged
     c_bands:  2 eigenvalues not converged
     c_bands:  2 eigenvalues not converged
     c_bands:  2 eigenvalues not converged
     c_bands:  2 eigenvalues not converged
     c_bands:  3 eigenvalues not converged
     c_bands:  3 eigenvalues not converged
     c_bands:  2 eigenvalues not converged
     c_bands:  2 eigenvalues not converged
     c_bands:  3 eigenvalues not converged
     c_bands:  3 eigenvalues not converged
     c_bands:  1 eigenvalues not converged
     ethr =  1.00E-06,  avg # of iterations = 17.4

     total cpu time spent up to now is       48.0 secs

     total energy              =     -15.82277788 Ry
     estimated scf accuracy    <       0.00151734 Ry

     iteration #  2     ecut=    50.00 Ry     beta= 0.01
     Davidson diagonalization with overlap
     ethr =  1.90E-05,  avg # of iterations =  4.9

     total cpu time spent up to now is       50.3 secs

     total energy              =     -15.82502087 Ry
     estimated scf accuracy    <       0.00057026 Ry

     iteration #  3     ecut=    50.00 Ry     beta= 0.01
     Davidson diagonalization with overlap
     ethr =  7.13E-06,  avg # of iterations =  2.5

     total cpu time spent up to now is       51.7 secs

     total energy              =     -15.82541074 Ry
     estimated scf accuracy    <       0.00055959 Ry

     iteration #  4     ecut=    50.00 Ry     beta= 0.01
     Davidson diagonalization with overlap
     ethr =  6.99E-06,  avg # of iterations =  1.2

     total cpu time spent up to now is       52.9 secs

     total energy              =     -15.82572708 Ry
     estimated scf accuracy    <       0.00026851 Ry

     iteration #  5     ecut=    50.00 Ry     beta= 0.01
     Davidson diagonalization with overlap
     ethr =  3.36E-06,  avg # of iterations =  4.8

     total cpu time spent up to now is       55.2 secs

     total energy              =     -15.82592404 Ry
     estimated scf accuracy    <       0.00000914 Ry

     iteration #  6     ecut=    50.00 Ry     beta= 0.01
     Davidson diagonalization with overlap
     ethr =  1.14E-07,  avg # of iterations =  9.6

     total cpu time spent up to now is       59.0 secs

     total energy              =     -15.82595682 Ry
     estimated scf accuracy    <       0.00001120 Ry

     iteration #  7     ecut=    50.00 Ry     beta= 0.01
     Davidson diagonalization with overlap
     ethr =  1.14E-07,  avg # of iterations =  1.1

     total cpu time spent up to now is       60.2 secs

     total energy              =     -15.82595694 Ry
     estimated scf accuracy    <       0.00001125 Ry

     iteration #  8     ecut=    50.00 Ry     beta= 0.01
     Davidson diagonalization with overlap
     ethr =  1.14E-07,  avg # of iterations =  1.0

     total cpu time spent up to now is       61.4 secs

     total energy              =     -15.82595032 Ry
     estimated scf accuracy    <       0.00001132 Ry

     iteration #  9     ecut=    50.00 Ry     beta= 0.01
     Davidson diagonalization with overlap
     ethr =  1.14E-07,  avg # of iterations =  4.7

     total cpu time spent up to now is       63.6 secs

     total energy              =     -15.82595808 Ry
     estimated scf accuracy    <       0.00004151 Ry

     iteration # 10     ecut=    50.00 Ry     beta= 0.01
     Davidson diagonalization with overlap
     ethr =  1.14E-07,  avg # of iterations =  1.0

     total cpu time spent up to now is       64.8 secs

     total energy              =     -15.82594851 Ry
     estimated scf accuracy    <       0.00004257 Ry

     iteration # 11     ecut=    50.00 Ry     beta= 0.01
     Davidson diagonalization with overlap
     ethr =  1.14E-07,  avg # of iterations =  2.1

     total cpu time spent up to now is       66.2 secs

     total energy              =     -15.82593970 Ry
     estimated scf accuracy    <       0.00001413 Ry

     iteration # 12     ecut=    50.00 Ry     beta= 0.01
     Davidson diagonalization with overlap
     ethr =  1.14E-07,  avg # of iterations =  3.1

     total cpu time spent up to now is       68.0 secs

     total energy              =     -15.82594158 Ry
     estimated scf accuracy    <       0.00000377 Ry

     iteration # 13     ecut=    50.00 Ry     beta= 0.01
     Davidson diagonalization with overlap
     ethr =  4.71E-08,  avg # of iterations =  3.3

     total cpu time spent up to now is       69.6 secs

     total energy              =     -15.82594138 Ry
     estimated scf accuracy    <       0.00000224 Ry

     iteration # 14     ecut=    50.00 Ry     beta= 0.01
     Davidson diagonalization with overlap
     ethr =  2.79E-08,  avg # of iterations =  2.6

     total cpu time spent up to now is       71.1 secs

     End of self-consistent calculation

          k = 0.0000 0.0000 0.0000 (  1639 PWs)   bands (ev):

    -7.2923   6.0653   6.0653   6.0653

          k =-0.0977 0.0977-0.0977 (  1606 PWs)   bands (ev):

    -7.1619   4.4083   5.8280   5.8280

          k =-0.1955 0.1955-0.1955 (  1606 PWs)   bands (ev):

    -6.7780   2.2869   5.3680   5.3680

          k =-0.2932 0.2932-0.2932 (  1615 PWs)   bands (ev):

    -6.1716   0.3659   4.9568   4.9568

          k =-0.3910 0.3910-0.3910 (  1616 PWs)   bands (ev):

    -5.4537  -1.1599   4.6919   4.6919

          k = 0.4887-0.4887 0.4887 (  1622 PWs)   bands (ev):

    -5.0437  -1.8418   4.6016   4.6016

          k = 0.0000 0.1955 0.0000 (  1599 PWs)   bands (ev):

    -7.1181   4.4475   5.4092   5.4092

          k =-0.0977 0.2932-0.0977 (  1609 PWs)   bands (ev):

    -6.8170   2.8021   4.9045   4.9958

          k =-0.1955 0.3910-0.1955 (  1607 PWs)   bands (ev):

    -6.2788   0.9270   4.4654   4.5208

          k =-0.2932 0.4887-0.2932 (  1610 PWs)   bands (ev):

    -5.5738  -0.7063   3.9902   4.3289

          k = 0.5865-0.3910 0.5865 (  1609 PWs)   bands (ev):

    -4.9790  -1.7332   3.6726   4.3454

          k = 0.4887-0.2932 0.4887 (  1616 PWs)   bands (ev):

    -5.1301  -1.4932   3.5534   4.5608

          k = 0.3910-0.1955 0.3910 (  1621 PWs)   bands (ev):

    -5.8210  -0.1995   3.6588   4.9434

          k = 0.2932-0.0977 0.2932 (  1605 PWs)   bands (ev):

    -6.4841   1.5257   4.0219   5.4223

          k = 0.1955 0.0000 0.1955 (  1592 PWs)   bands (ev):

    -6.9464   3.2787   4.7583   5.8228

          k = 0.0000 0.3910 0.0000 (  1607 PWs)   bands (ev):

    -6.5987   2.4067   4.3702   4.3702

          k =-0.0977 0.4887-0.0977 (  1612 PWs)   bands (ev):

    -6.1349   1.0974   3.7620   3.9670

          k =-0.1955 0.5865-0.1955 (  1619 PWs)   bands (ev):

    -5.4694  -0.3657   3.0469   3.7711

          k = 0.6842-0.2932 0.6842 (  1606 PWs)   bands (ev):

    -4.7727  -1.5354   2.4895   3.8043

          k = 0.5865-0.1955 0.5865 (  1596 PWs)   bands (ev):

    -4.6373  -1.7283   2.1890   4.0591

          k = 0.4887-0.0977 0.4887 (  1610 PWs)   bands (ev):

    -5.2525  -0.7686   2.2203   4.4980

          k = 0.3910 0.0000 0.3910 (  1610 PWs)   bands (ev):

    -5.9542   0.5069   2.7562   5.0264

          k = 0.0000 0.5865 0.0000 (  1620 PWs)   bands (ev):

    -5.7445   0.4279   3.5248   3.5248

          k =-0.0977 0.6842-0.0977 (  1625 PWs)   bands (ev):

    -5.1332  -0.6340   2.8745   3.2872

          k = 0.7820-0.1955 0.7820 (  1619 PWs)   bands (ev):

    -4.3999  -1.6610   2.0335   3.2848

          k = 0.6842-0.0977 0.6842 (  1621 PWs)   bands (ev):

    -4.0208  -2.1095   1.4790   3.5167

          k = 0.5865 0.0000 0.5865 (  1608 PWs)   bands (ev):

    -4.5419  -1.5067   1.4609   3.9508

          k = 0.0000 0.7820 0.0000 (  1624 PWs)   bands (ev):

    -4.5750  -1.4350   2.9947   2.9947

          k = 0.8797-0.0977 0.8797 (  1623 PWs)   bands (ev):

    -3.8454  -2.3109   2.4280   2.9361

          k = 0.7820 0.0000 0.7820 (  1622 PWs)   bands (ev):

    -3.4142  -2.7186   1.6793   3.1180

          k = 0.0000-0.9775 0.0000 (  1604 PWs)   bands (ev):

    -3.1226  -3.1226   2.8150   2.8150

          k =-0.1955 0.3910 0.0000 (  1613 PWs)   bands (ev):

    -6.4357   1.6943   3.7373   4.8755

          k =-0.2932 0.4887-0.0977 (  1609 PWs)   bands (ev):

    -5.8315   0.2178   3.0401   4.4670

          k = 0.5865-0.3910 0.7820 (  1618 PWs)   bands (ev):

    -5.1097  -1.1523   2.7252   4.0951

          k = 0.4887-0.2932 0.6842 (  1608 PWs)   bands (ev):

    -4.6886  -1.8040   2.6362   3.9518

          k =-0.1955 0.5865-0.0000 (  1617 PWs)   bands (ev):

    -5.5996   0.0845   2.9378   3.6870

          k = 0.6842-0.2932 0.8797 (  1621 PWs)   bands (ev):

    -4.8917  -1.0547   2.2689   3.3531

          k = 0.5865-0.1955 0.7820 (  1613 PWs)   bands (ev):

    -4.2788  -1.8902   1.8302   3.2938

          k = 0.4887-0.0977 0.6842 (  1613 PWs)   bands (ev):

    -4.4713  -1.6389   1.6987   3.5429

          k = 0.3910-0.0000 0.5865 (  1607 PWs)   bands (ev):

    -5.1809  -0.6760   2.0390   4.0058

          k = 0.7820-0.1955 0.9775 (  1621 PWs)   bands (ev):

    -4.4660  -1.5333   2.4912   2.8443

          k = 0.6842-0.0977 0.8797 (  1625 PWs)   bands (ev):

    -3.7469  -2.3346   1.8170   2.7482

          k = 0.5865 0.0000 0.7820 (  1614 PWs)   bands (ev):

    -3.7828  -2.2799   1.4107   3.0318

          k =-0.1955-0.9775 0.0000 (  1624 PWs)   bands (ev):

    -3.0841  -3.0841   2.4488   2.4488

          k = 0.5865-0.1955 0.9775 (  1616 PWs)   bands (ev):

    -4.1707  -1.8378   1.7486   2.7786

          k = 0.4887-0.0977 0.8797 (  1608 PWs)   bands (ev):

    -3.6782  -2.3594   1.5983   2.5236

          k =-0.3910-0.9775 0.0000 (  1626 PWs)   bands (ev):

    -3.0185  -3.0185   1.9789   1.9789

     highest occupied level (ev):     6.0653

!    total energy              =     -15.82594120 Ry
     estimated scf accuracy    <       0.00000099 Ry

     The total energy is the sum of the following terms:
     one-electron contribution =       4.16602646 Ry
     hartree contribution      =       1.15380825 Ry
     xc contribution           =      -4.72815402 Ry
     ewald contribution        =     -16.41762188 Ry

     convergence has been achieved in  14 iterations
     Writing meta-gga kinetic term

     Forces acting on atoms (cartesian axes, Ry/au):

     atom    1 type  1   force =     0.00000000    0.00000000    0.00000000
     atom    2 type  1   force =     0.00000000    0.00000000    0.00000000

     Total force =     0.000000     Total SCF correction =     0.000000


     Computing stress (Cartesian axis) and pressure

          total   stress  (Ry/bohr**3)                   (kbar)     P=       55.21
   0.00037528   0.00000000  -0.00000000           55.21        0.00       -0.00
   0.00000000   0.00037528  -0.00000000            0.00       55.21       -0.00
   0.00000000   0.00000000   0.00037528            0.00        0.00       55.21

     Energy error            =      1.2E-02 Ry
     Gradient error          =      0.0E+00 Ry/Bohr
     Cell gradient error     =      5.5E+01 kbar

     number of scf cycles    =   2
     number of bfgs steps    =   1

     enthalpy           old  =     -15.8139137471 Ry
     enthalpy           new  =     -15.8259412017 Ry

     CASE: enthalpy          _new < enthalpy          _old

     new trust radius        =       0.0569113667 bohr
     new conv_thr            =       0.0000000100 Ry

     new unit-cell volume =    304.13444 a.u.^3 (    45.06807 Ang^3 )
     density =      5.35286 g/cm^3

CELL_PARAMETERS (alat= 10.26310000)
  -0.520075796   0.000000000   0.520075796
  -0.000000000   0.520075796   0.520075796
  -0.520075796   0.520075796   0.000000000

ATOMIC_POSITIONS (alat)
Ge           -0.0000000000       -0.0000000000       -0.0000000000
Ge            0.2600378980        0.2600378980        0.2600378980



     Writing config-only to output data dir ./pwscf.save/
     NEW-OLD atomic charge density approx. for the potential
     extrapolated charge    8.38834, renormalised to    8.00000

     total cpu time spent up to now is       72.0 secs

     Self-consistent Calculation

     iteration #  1     ecut=    50.00 Ry     beta= 0.01
     Davidson diagonalization with overlap
     c_bands:  1 eigenvalues not converged
     c_bands:  1 eigenvalues not converged
     c_bands:  2 eigenvalues not converged
     c_bands:  2 eigenvalues not converged
     c_bands:  1 eigenvalues not converged
     c_bands:  2 eigenvalues not converged
     ethr =  1.00E-06,  avg # of iterations = 16.0

     total cpu time spent up to now is       78.5 secs

     total energy              =     -15.82728971 Ry
     estimated scf accuracy    <       0.00087667 Ry

     iteration #  2     ecut=    50.00 Ry     beta= 0.01
     Davidson diagonalization with overlap
     ethr =  1.10E-05,  avg # of iterations =  5.0

     total cpu time spent up to now is       80.8 secs

     total energy              =     -15.82851834 Ry
     estimated scf accuracy    <       0.00027271 Ry

     iteration #  3     ecut=    50.00 Ry     beta= 0.01
     Davidson diagonalization with overlap
     ethr =  3.41E-06,  avg # of iterations =  2.9

     total cpu time spent up to now is       82.2 secs

     total energy              =     -15.82867348 Ry
     estimated scf accuracy    <       0.00026269 Ry

     iteration #  4     ecut=    50.00 Ry     beta= 0.01
     Davidson diagonalization with overlap
     ethr =  3.28E-06,  avg # of iterations =  1.0

     total cpu time spent up to now is       83.4 secs

     total energy              =     -15.82894443 Ry
     estimated scf accuracy    <       0.00018582 Ry

     iteration #  5     ecut=    50.00 Ry     beta= 0.01
     Davidson diagonalization with overlap
     ethr =  2.32E-06,  avg # of iterations =  4.5

     total cpu time spent up to now is       85.5 secs

     total energy              =     -15.82907697 Ry
     estimated scf accuracy    <       0.00000295 Ry

     iteration #  6     ecut=    50.00 Ry     beta= 0.01
     Davidson diagonalization with overlap
     ethr =  3.68E-08,  avg # of iterations = 10.9

     total cpu time spent up to now is       90.1 secs

     total energy              =     -15.82909632 Ry
     estimated scf accuracy    <       0.00000378 Ry

     iteration #  7     ecut=    50.00 Ry     beta= 0.01
     Davidson diagonalization with overlap
     ethr =  3.68E-08,  avg # of iterations =  1.3

     total cpu time spent up to now is       91.2 secs

     total energy              =     -15.82909666 Ry
     estimated scf accuracy    <       0.00000379 Ry

     iteration #  8     ecut=    50.00 Ry     beta= 0.01
     Davidson diagonalization with overlap
     ethr =  3.68E-08,  avg # of iterations =  1.0

     total cpu time spent up to now is       92.4 secs

     total energy              =     -15.82908685 Ry
     estimated scf accuracy    <       0.00000365 Ry

     iteration #  9     ecut=    50.00 Ry     beta= 0.01
     Davidson diagonalization with overlap
     ethr =  3.68E-08,  avg # of iterations =  2.3

     total cpu time spent up to now is       93.9 secs

     total energy              =     -15.82908742 Ry
     estimated scf accuracy    <       0.00000299 Ry

     iteration # 10     ecut=    50.00 Ry     beta= 0.01
     Davidson diagonalization with overlap
     ethr =  3.68E-08,  avg # of iterations =  1.0

     total cpu time spent up to now is       95.0 secs

     total energy              =     -15.82908767 Ry
     estimated scf accuracy    <       0.00000297 Ry

     iteration # 11     ecut=    50.00 Ry     beta= 0.01
     Davidson diagonalization with overlap
     ethr =  3.68E-08,  avg # of iterations =  1.0

     total cpu time spent up to now is       96.2 secs

     total energy              =     -15.82908793 Ry
     estimated scf accuracy    <       0.00000291 Ry

     iteration # 12     ecut=    50.00 Ry     beta= 0.01
     Davidson diagonalization with overlap
     ethr =  3.64E-08,  avg # of iterations =  1.0

     total cpu time spent up to now is       97.3 secs

     total energy              =     -15.82908763 Ry
     estimated scf accuracy    <       0.00000276 Ry

     iteration # 13     ecut=    50.00 Ry     beta= 0.01
     Davidson diagonalization with overlap
     ethr =  3.45E-08,  avg # of iterations =  1.0

     total cpu time spent up to now is       98.5 secs

     total energy              =     -15.82908588 Ry
     estimated scf accuracy    <       0.00000262 Ry

     iteration # 14     ecut=    50.00 Ry     beta= 0.01
     Davidson diagonalization with overlap
     ethr =  3.27E-08,  avg # of iterations =  1.9

     total cpu time spent up to now is       99.8 secs

     total energy              =     -15.82908440 Ry
     estimated scf accuracy    <       0.00000227 Ry

     iteration # 15     ecut=    50.00 Ry     beta= 0.01
     Davidson diagonalization with overlap
     ethr =  2.83E-08,  avg # of iterations =  1.9

     total cpu time spent up to now is      101.1 secs

     total energy              =     -15.82905864 Ry
     estimated scf accuracy    <       0.00000450 Ry

     iteration # 16     ecut=    50.00 Ry     beta= 0.01
     Davidson diagonalization with overlap
     ethr =  2.83E-08,  avg # of iterations =  8.6

     total cpu time spent up to now is      104.9 secs

     total energy              =     -15.82905325 Ry
     estimated scf accuracy    <       0.00001383 Ry

     iteration # 17     ecut=    50.00 Ry     beta= 0.01
     Davidson diagonalization with overlap
     ethr =  2.83E-08,  avg # of iterations =  8.0

     total cpu time spent up to now is      108.2 secs

     total energy              =     -15.82897684 Ry
     estimated scf accuracy    <       0.00002165 Ry

     iteration # 18     ecut=    50.00 Ry     beta= 0.01
     Davidson diagonalization with overlap
     ethr =  2.83E-08,  avg # of iterations = 10.5

     total cpu time spent up to now is      112.5 secs

     total energy              =     -15.82903457 Ry
     estimated scf accuracy    <       0.00005496 Ry

     iteration # 19     ecut=    50.00 Ry     beta= 0.01
     Davidson diagonalization with overlap
     c_bands:  1 eigenvalues not converged
     ethr =  2.83E-08,  avg # of iterations = 12.7

     total cpu time spent up to now is      117.8 secs

     total energy              =     -15.82907687 Ry
     estimated scf accuracy    <       0.00000685 Ry

     iteration # 20     ecut=    50.00 Ry     beta= 0.01
     Davidson diagonalization with overlap
     ethr =  2.83E-08,  avg # of iterations =  8.1

     total cpu time spent up to now is      121.4 secs

     total energy              =     -15.82908392 Ry
     estimated scf accuracy    <       0.00000160 Ry

     iteration # 21     ecut=    50.00 Ry     beta= 0.01
     Davidson diagonalization with overlap
     ethr =  2.00E-08,  avg # of iterations =  5.2

     total cpu time spent up to now is      123.7 secs

     total energy              =     -15.82908597 Ry
     estimated scf accuracy    <       0.00000143 Ry

     iteration # 22     ecut=    50.00 Ry     beta= 0.01
     Davidson diagonalization with overlap
     ethr =  1.79E-08,  avg # of iterations =  1.7

     total cpu time spent up to now is      124.9 secs

     total energy              =     -15.82908670 Ry
     estimated scf accuracy    <       0.00000117 Ry

     iteration # 23     ecut=    50.00 Ry     beta= 0.01
     Davidson diagonalization with overlap
     ethr =  1.47E-08,  avg # of iterations =  1.1

     total cpu time spent up to now is      126.1 secs

     total energy              =     -15.82908663 Ry
     estimated scf accuracy    <       0.00000094 Ry

     iteration # 24     ecut=    50.00 Ry     beta= 0.01
     Davidson diagonalization with overlap
     ethr =  1.17E-08,  avg # of iterations =  2.2

     total cpu time spent up to now is      127.4 secs

     total energy              =     -15.82908629 Ry
     estimated scf accuracy    <       0.00000056 Ry

     iteration # 25     ecut=    50.00 Ry     beta= 0.01
     Davidson diagonalization with overlap
     ethr =  7.05E-09,  avg # of iterations =  1.6

     total cpu time spent up to now is      128.7 secs

     total energy              =     -15.82908442 Ry
     estimated scf accuracy    <       0.00000048 Ry

     iteration # 26     ecut=    50.00 Ry     beta= 0.01
     Davidson diagonalization with overlap
     ethr =  5.95E-09,  avg # of iterations =  6.4

     total cpu time spent up to now is      131.4 secs

     total energy              =     -15.82908553 Ry
     estimated scf accuracy    <       0.00000093 Ry

     iteration # 27     ecut=    50.00 Ry     beta= 0.01
     Davidson diagonalization with overlap
     ethr =  5.95E-09,  avg # of iterations =  1.2

     total cpu time spent up to now is      132.5 secs

     total energy              =     -15.82908615 Ry
     estimated scf accuracy    <       0.00000055 Ry

     iteration # 28     ecut=    50.00 Ry     beta= 0.01
     Davidson diagonalization with overlap
     ethr =  5.95E-09,  avg # of iterations =  1.0

     total cpu time spent up to now is      133.7 secs

     total energy              =     -15.82908615 Ry
     estimated scf accuracy    <       0.00000054 Ry

     iteration # 29     ecut=    50.00 Ry     beta= 0.01
     Davidson diagonalization with overlap
     ethr =  5.95E-09,  avg # of iterations =  1.0

     total cpu time spent up to now is      134.9 secs

     total energy              =     -15.82908646 Ry
     estimated scf accuracy    <       0.00000061 Ry

     iteration # 30     ecut=    50.00 Ry     beta= 0.01
     Davidson diagonalization with overlap
     ethr =  5.95E-09,  avg # of iterations =  3.7

     total cpu time spent up to now is      137.0 secs

     total energy              =     -15.82908694 Ry
     estimated scf accuracy    <       0.00000014 Ry

     iteration # 31     ecut=    50.00 Ry     beta= 0.01
     Davidson diagonalization with overlap
     ethr =  1.74E-09,  avg # of iterations =  4.1

     total cpu time spent up to now is      138.9 secs

     total energy              =     -15.82908707 Ry
     estimated scf accuracy    <       0.00000011 Ry

     iteration # 32     ecut=    50.00 Ry     beta= 0.01
     Davidson diagonalization with overlap
     ethr =  1.36E-09,  avg # of iterations =  4.6

     total cpu time spent up to now is      141.0 secs

     total energy              =     -15.82908684 Ry
     estimated scf accuracy    <       0.00000008 Ry

     iteration # 33     ecut=    50.00 Ry     beta= 0.01
     Davidson diagonalization with overlap
     ethr =  9.82E-10,  avg # of iterations =  3.7

     total cpu time spent up to now is      142.8 secs

     total energy              =     -15.82908709 Ry
     estimated scf accuracy    <       0.00000018 Ry

     iteration # 34     ecut=    50.00 Ry     beta= 0.01
     Davidson diagonalization with overlap
     ethr =  9.82E-10,  avg # of iterations =  2.1

     total cpu time spent up to now is      144.2 secs

     total energy              =     -15.82908709 Ry
     estimated scf accuracy    <       0.00000010 Ry

     iteration # 35     ecut=    50.00 Ry     beta= 0.01
     Davidson diagonalization with overlap
     ethr =  9.82E-10,  avg # of iterations =  2.8

     total cpu time spent up to now is      145.8 secs

     total energy              =     -15.82908712 Ry
     estimated scf accuracy    <       0.00000005 Ry

     iteration # 36     ecut=    50.00 Ry     beta= 0.01
     Davidson diagonalization with overlap
     ethr =  6.56E-10,  avg # of iterations =  1.0

     total cpu time spent up to now is      146.9 secs

     total energy              =     -15.82908708 Ry
     estimated scf accuracy    <       0.00000007 Ry

     iteration # 37     ecut=    50.00 Ry     beta= 0.01
     Davidson diagonalization with overlap
     ethr =  6.56E-10,  avg # of iterations =  1.2

     total cpu time spent up to now is      148.1 secs

     total energy              =     -15.82908714 Ry
     estimated scf accuracy    <       0.00000005 Ry

     iteration # 38     ecut=    50.00 Ry     beta= 0.01
     Davidson diagonalization with overlap
     ethr =  6.38E-10,  avg # of iterations =  1.0

     total cpu time spent up to now is      149.2 secs

     total energy              =     -15.82908713 Ry
     estimated scf accuracy    <       0.00000007 Ry

     iteration # 39     ecut=    50.00 Ry     beta= 0.01
     Davidson diagonalization with overlap
     ethr =  6.38E-10,  avg # of iterations =  1.0

     total cpu time spent up to now is      150.4 secs

     total energy              =     -15.82908697 Ry
     estimated scf accuracy    <       0.00000005 Ry

     iteration # 40     ecut=    50.00 Ry     beta= 0.01
     Davidson diagonalization with overlap
     ethr =  6.17E-10,  avg # of iterations =  1.9

     total cpu time spent up to now is      151.7 secs

     total energy              =     -15.82908704 Ry
     estimated scf accuracy    <       0.00000008 Ry

     iteration # 41     ecut=    50.00 Ry     beta= 0.01
     Davidson diagonalization with overlap
     ethr =  6.17E-10,  avg # of iterations =  1.0

     total cpu time spent up to now is      152.9 secs

     total energy              =     -15.82908710 Ry
     estimated scf accuracy    <       0.00000008 Ry

     iteration # 42     ecut=    50.00 Ry     beta= 0.01
     Davidson diagonalization with overlap
     ethr =  6.17E-10,  avg # of iterations =  1.0

     total cpu time spent up to now is      154.0 secs

     total energy              =     -15.82908708 Ry
     estimated scf accuracy    <       0.00000006 Ry

     iteration # 43     ecut=    50.00 Ry     beta= 0.01
     Davidson diagonalization with overlap
     ethr =  6.17E-10,  avg # of iterations =  1.0

     total cpu time spent up to now is      155.1 secs

     total energy              =     -15.82908714 Ry
     estimated scf accuracy    <       0.00000006 Ry

     iteration # 44     ecut=    50.00 Ry     beta= 0.01
     Davidson diagonalization with overlap
     ethr =  6.17E-10,  avg # of iterations =  1.0

     total cpu time spent up to now is      156.3 secs

     total energy              =     -15.82908714 Ry
     estimated scf accuracy    <       0.00000004 Ry

     iteration # 45     ecut=    50.00 Ry     beta= 0.01
     Davidson diagonalization with overlap
     ethr =  5.05E-10,  avg # of iterations =  1.0

     total cpu time spent up to now is      157.4 secs

     total energy              =     -15.82908721 Ry
     estimated scf accuracy    <       0.00000004 Ry

     iteration # 46     ecut=    50.00 Ry     beta= 0.01
     Davidson diagonalization with overlap
     ethr =  4.97E-10,  avg # of iterations =  7.4

     total cpu time spent up to now is      160.5 secs

     total energy              =     -15.82908723 Ry
     estimated scf accuracy    <       0.00000006 Ry

     iteration # 47     ecut=    50.00 Ry     beta= 0.01
     Davidson diagonalization with overlap
     ethr =  4.97E-10,  avg # of iterations =  3.2

     total cpu time spent up to now is      162.2 secs

     total energy              =     -15.82908724 Ry
     estimated scf accuracy    <       0.00000002 Ry

     iteration # 48     ecut=    50.00 Ry     beta= 0.01
     Davidson diagonalization with overlap
     ethr =  2.81E-10,  avg # of iterations =  1.6

     total cpu time spent up to now is      163.4 secs

     total energy              =     -15.82908724 Ry
     estimated scf accuracy    <       0.00000002 Ry

     iteration # 49     ecut=    50.00 Ry     beta= 0.01
     Davidson diagonalization with overlap
     ethr =  2.76E-10,  avg # of iterations =  1.0

     total cpu time spent up to now is      164.6 secs

     total energy              =     -15.82908724 Ry
     estimated scf accuracy    <       0.00000002 Ry

     iteration # 50     ecut=    50.00 Ry     beta= 0.01
     Davidson diagonalization with overlap
     ethr =  2.76E-10,  avg # of iterations =  1.0

     total cpu time spent up to now is      165.7 secs

     total energy              =     -15.82908727 Ry
     estimated scf accuracy    <       0.00000003 Ry

     iteration # 51     ecut=    50.00 Ry     beta= 0.01
     Davidson diagonalization with overlap
     ethr =  2.76E-10,  avg # of iterations =  4.5

     total cpu time spent up to now is      167.9 secs

     total energy              =     -15.82908729 Ry
     estimated scf accuracy    <       0.00000003 Ry

     iteration # 52     ecut=    50.00 Ry     beta= 0.01
     Davidson diagonalization with overlap
     ethr =  2.76E-10,  avg # of iterations =  2.8

     total cpu time spent up to now is      169.4 secs

     total energy              =     -15.82908728 Ry
     estimated scf accuracy    <       0.00000002 Ry

     iteration # 53     ecut=    50.00 Ry     beta= 0.01
     Davidson diagonalization with overlap
     ethr =  2.53E-10,  avg # of iterations =  2.0

     total cpu time spent up to now is      170.8 secs

     total energy              =     -15.82908728 Ry
     estimated scf accuracy    <       0.00000002 Ry

     iteration # 54     ecut=    50.00 Ry     beta= 0.01
     Davidson diagonalization with overlap
     ethr =  2.44E-10,  avg # of iterations =  1.0

     total cpu time spent up to now is      171.9 secs

     total energy              =     -15.82908726 Ry
     estimated scf accuracy    <       0.00000002 Ry

     iteration # 55     ecut=    50.00 Ry     beta= 0.01
     Davidson diagonalization with overlap
     ethr =  2.28E-10,  avg # of iterations =  1.0

     total cpu time spent up to now is      173.1 secs

     total energy              =     -15.82908731 Ry
     estimated scf accuracy    <       0.00000002 Ry

     iteration # 56     ecut=    50.00 Ry     beta= 0.01
     Davidson diagonalization with overlap
     ethr =  2.28E-10,  avg # of iterations =  1.0

     total cpu time spent up to now is      174.2 secs

     total energy              =     -15.82908731 Ry
     estimated scf accuracy    <       0.00000002 Ry

     iteration # 57     ecut=    50.00 Ry     beta= 0.01
     Davidson diagonalization with overlap
     ethr =  2.20E-10,  avg # of iterations =  1.0

     total cpu time spent up to now is      175.4 secs

     total energy              =     -15.82908729 Ry
     estimated scf accuracy    <       0.00000002 Ry

     iteration # 58     ecut=    50.00 Ry     beta= 0.01
     Davidson diagonalization with overlap
     ethr =  2.20E-10,  avg # of iterations =  4.3

     total cpu time spent up to now is      177.7 secs

     total energy              =     -15.82908732 Ry
     estimated scf accuracy    <       0.00000001 Ry

     iteration # 59     ecut=    50.00 Ry     beta= 0.01
     Davidson diagonalization with overlap
     ethr =  1.76E-10,  avg # of iterations =  1.3

     total cpu time spent up to now is      178.9 secs

     End of self-consistent calculation

          k = 0.0000 0.0000 0.0000 (  1639 PWs)   bands (ev):

    -7.4512   5.5471   5.5471   5.5471

          k =-0.0961 0.0961-0.0961 (  1606 PWs)   bands (ev):

    -7.3265   3.8216   5.3239   5.3239

          k =-0.1923 0.1923-0.1923 (  1606 PWs)   bands (ev):

    -6.9596   1.7889   4.8870   4.8870

          k =-0.2884 0.2884-0.2884 (  1615 PWs)   bands (ev):

    -6.3819  -0.0442   4.4937   4.4937

          k =-0.3846 0.3846-0.3846 (  1616 PWs)   bands (ev):

    -5.7038  -1.4940   4.2394   4.2394

          k = 0.4807-0.4807 0.4807 (  1622 PWs)   bands (ev):

    -5.3223  -2.1354   4.1525   4.1525

          k = 0.0000 0.1923 0.0000 (  1599 PWs)   bands (ev):

    -7.2844   3.8047   4.9323   4.9323

          k =-0.0961 0.2884-0.0961 (  1609 PWs)   bands (ev):

    -6.9966   2.2501   4.4532   4.5165

          k =-0.1923 0.3846-0.1923 (  1607 PWs)   bands (ev):

    -6.4832   0.4728   3.9998   4.0856

          k =-0.2884 0.4807-0.2884 (  1610 PWs)   bands (ev):

    -5.8146  -1.0771   3.5425   3.8998

          k = 0.5768-0.3846 0.5768 (  1609 PWs)   bands (ev):

    -5.2581  -2.0446   3.2406   3.9125

          k = 0.4807-0.2884 0.4807 (  1616 PWs)   bands (ev):

    -5.3986  -1.8195   3.1324   4.1153

          k = 0.3846-0.1923 0.3846 (  1621 PWs)   bands (ev):

    -6.0484  -0.5967   3.2430   4.4782

          k = 0.2884-0.0961 0.2884 (  1605 PWs)   bands (ev):

    -6.6789   1.0406   3.6044   4.9328

          k = 0.1923 0.0000 0.1923 (  1592 PWs)   bands (ev):

    -7.1203   2.7108   4.3185   5.3136

          k = 0.0000 0.3846 0.0000 (  1607 PWs)   bands (ev):

    -6.7875   1.8244   3.9466   3.9466

          k =-0.0961 0.4807-0.0961 (  1612 PWs)   bands (ev):

    -6.3445   0.5838   3.3578   3.5615

          k =-0.1923 0.5768-0.1923 (  1619 PWs)   bands (ev):

    -5.7114  -0.7966   2.6661   3.3728

          k = 0.6730-0.2884 0.6730 (  1606 PWs)   bands (ev):

    -5.0553  -1.8964   2.1306   3.4021

          k = 0.5768-0.1923 0.5768 (  1596 PWs)   bands (ev):

    -4.9303  -2.0755   1.8487   3.6425

          k = 0.4807-0.0961 0.4807 (  1610 PWs)   bands (ev):

    -5.5078  -1.1750   1.8919   4.0580

          k = 0.3846 0.0000 0.3846 (  1610 PWs)   bands (ev):

    -6.1737   0.0373   2.4145   4.5578

          k = 0.0000 0.5768 0.0000 (  1620 PWs)   bands (ev):

    -5.9707  -0.0753   3.1404   3.1404

          k =-0.0961 0.6730-0.0961 (  1625 PWs)   bands (ev):

    -5.3876  -1.0881   2.5243   2.9128

          k = 0.7691-0.1923 0.7691 (  1619 PWs)   bands (ev):

    -4.6929  -2.0628   1.7284   2.9093

          k = 0.6730-0.0961 0.6730 (  1621 PWs)   bands (ev):

    -4.3411  -2.4814   1.2051   3.1288

          k = 0.5768 0.0000 0.5768 (  1608 PWs)   bands (ev):

    -4.8338  -1.9060   1.1892   3.5404

          k = 0.0000 0.7691 0.0000 (  1624 PWs)   bands (ev):

    -4.8534  -1.8561   2.6338   2.6338

          k = 0.8653-0.0961 0.8653 (  1623 PWs)   bands (ev):

    -4.1587  -2.6933   2.1026   2.5775

          k = 0.7691 0.0000 0.7691 (  1622 PWs)   bands (ev):

    -3.7588  -3.0765   1.4013   2.7501

          k = 0.0000-0.9614 0.0000 (  1604 PWs)   bands (ev):

    -3.4669  -3.4669   2.4620   2.4620

          k =-0.1923 0.3846 0.0000 (  1613 PWs)   bands (ev):

    -6.6322   1.1704   3.3476   4.4100

          k =-0.2884 0.4807-0.0961 (  1609 PWs)   bands (ev):

    -6.0566  -0.2318   2.6699   4.0263

          k = 0.5768-0.3846 0.7691 (  1618 PWs)   bands (ev):

    -5.3741  -1.5240   2.3523   3.6782

          k = 0.4807-0.2884 0.6730 (  1608 PWs)   bands (ev):

    -4.9813  -2.1339   2.2608   3.5445

          k =-0.1923 0.5768-0.0000 (  1617 PWs)   bands (ev):

    -5.8337  -0.3937   2.5855   3.2928

          k = 0.6730-0.2884 0.8653 (  1621 PWs)   bands (ev):

    -5.1614  -1.4770   1.9447   2.9805

          k = 0.5768-0.1923 0.7691 (  1613 PWs)   bands (ev):

    -4.5861  -2.2617   1.5241   2.9249

          k = 0.4807-0.0961 0.6730 (  1613 PWs)   bands (ev):

    -4.7675  -2.0251   1.4046   3.1591

          k = 0.3846-0.0000 0.5768 (  1607 PWs)   bands (ev):

    -5.4379  -1.1101   1.7338   3.5946

          k = 0.7691-0.1923 0.9614 (  1621 PWs)   bands (ev):

    -4.7520  -1.9510   2.1610   2.4990

          k = 0.6730-0.0961 0.8653 (  1625 PWs)   bands (ev):

    -4.0718  -2.7158   1.5296   2.4075

          k = 0.5768 0.0000 0.7691 (  1614 PWs)   bands (ev):

    -4.1129  -2.6571   1.1473   2.6756

          k =-0.1923-0.9614-0.0000 (  1624 PWs)   bands (ev):

    -3.4336  -3.4336   2.1226   2.1226

          k = 0.5768-0.1923 0.9614 (  1616 PWs)   bands (ev):

    -4.4768  -2.2397   1.4623   2.4415

          k = 0.4807-0.0961 0.8653 (  1608 PWs)   bands (ev):

    -4.0120  -2.7376   1.3222   2.2013

          k =-0.3846-0.9614 0.0000 (  1626 PWs)   bands (ev):

    -3.3771  -3.3771   1.6857   1.6857

     highest occupied level (ev):     5.5471

!    total energy              =     -15.82908733 Ry
     estimated scf accuracy    <          6.1E-09 Ry

     The total energy is the sum of the following terms:
     one-electron contribution =       3.79732233 Ry
     hartree contribution      =       1.19851382 Ry
     xc contribution           =      -4.67741661 Ry
     ewald contribution        =     -16.14750687 Ry

     convergence has been achieved in  59 iterations
     Writing meta-gga kinetic term

     Forces acting on atoms (cartesian axes, Ry/au):

     atom    1 type  1   force =     0.00000000    0.00000000    0.00000000
     atom    2 type  1   force =     0.00000000    0.00000000    0.00000000

     Total force =     0.000000     Total SCF correction =     0.000000


     Computing stress (Cartesian axis) and pressure

          total   stress  (Ry/bohr**3)                   (kbar)     P=       10.05
   0.00006834  -0.00000000  -0.00000000           10.05       -0.00       -0.00
  -0.00000000   0.00006834   0.00000000           -0.00       10.05        0.00
  -0.00000000   0.00000000   0.00006834           -0.00        0.00       10.05

     Energy error            =      3.1E-03 Ry
     Gradient error          =      4.0E-33 Ry/Bohr
     Cell gradient error     =      1.0E+01 kbar

     number of scf cycles    =   3
     number of bfgs steps    =   2

     enthalpy           old  =     -15.8259412017 Ry
     enthalpy           new  =     -15.8290873251 Ry

     CASE: enthalpy          _new < enthalpy          _old

     new trust radius        =       0.0133072094 bohr
     new conv_thr            =       0.0000000100 Ry

     new unit-cell volume =    307.62880 a.u.^3 (    45.58588 Ang^3 )
     density =      5.29206 g/cm^3

CELL_PARAMETERS (alat= 10.26310000)
  -0.522060021   0.000000000   0.522060021
  -0.000000000   0.522060021   0.522060021
  -0.522060021   0.522060021   0.000000000

ATOMIC_POSITIONS (alat)
Ge           -0.0000000000       -0.0000000000       -0.0000000000
Ge            0.2610300103        0.2610300103        0.2610300103



     Writing config-only to output data dir ./pwscf.save/
     NEW-OLD atomic charge density approx. for the potential
     extrapolated charge    8.09086, renormalised to    8.00000

     total cpu time spent up to now is      179.7 secs

     Self-consistent Calculation

     iteration #  1     ecut=    50.00 Ry     beta= 0.01
     Davidson diagonalization with overlap
     ethr =  1.00E-06,  avg # of iterations =  7.8

     total cpu time spent up to now is      182.8 secs

     total energy              =     -15.82911877 Ry
     estimated scf accuracy    <       0.00004965 Ry

     iteration #  2     ecut=    50.00 Ry     beta= 0.01
     Davidson diagonalization with overlap
     ethr =  6.21E-07,  avg # of iterations =  6.3

     total cpu time spent up to now is      185.6 secs

     total energy              =     -15.82918841 Ry
     estimated scf accuracy    <       0.00001472 Ry

     iteration #  3     ecut=    50.00 Ry     beta= 0.01
     Davidson diagonalization with overlap
     ethr =  1.84E-07,  avg # of iterations =  3.8

     total cpu time spent up to now is      187.3 secs

     total energy              =     -15.82920100 Ry
     estimated scf accuracy    <       0.00001345 Ry

     iteration #  4     ecut=    50.00 Ry     beta= 0.01
     Davidson diagonalization with overlap
     ethr =  1.68E-07,  avg # of iterations =  1.3

     total cpu time spent up to now is      188.5 secs

     total energy              =     -15.82921301 Ry
     estimated scf accuracy    <       0.00000787 Ry

     iteration #  5     ecut=    50.00 Ry     beta= 0.01
     Davidson diagonalization with overlap
     ethr =  9.84E-08,  avg # of iterations =  5.3

     total cpu time spent up to now is      190.9 secs

     total energy              =     -15.82922071 Ry
     estimated scf accuracy    <       0.00000017 Ry

     iteration #  6     ecut=    50.00 Ry     beta= 0.01
     Davidson diagonalization with overlap
     c_bands:  2 eigenvalues not converged
     ethr =  2.07E-09,  avg # of iterations = 10.8

     total cpu time spent up to now is      195.3 secs

     total energy              =     -15.82922146 Ry
     estimated scf accuracy    <       0.00000019 Ry

     iteration #  7     ecut=    50.00 Ry     beta= 0.01
     Davidson diagonalization with overlap
     ethr =  2.07E-09,  avg # of iterations =  1.3

     total cpu time spent up to now is      196.5 secs

     total energy              =     -15.82922089 Ry
     estimated scf accuracy    <       0.00000017 Ry

     iteration #  8     ecut=    50.00 Ry     beta= 0.01
     Davidson diagonalization with overlap
     ethr =  2.07E-09,  avg # of iterations =  3.2

     total cpu time spent up to now is      198.3 secs

     End of self-consistent calculation

          k = 0.0000 0.0000 0.0000 (  1639 PWs)   bands (ev):

    -7.4870   5.4314   5.4314   5.4314

          k =-0.0958 0.0958-0.0958 (  1606 PWs)   bands (ev):

    -7.3636   3.6860   5.2113   5.2113

          k =-0.1915 0.1915-0.1915 (  1606 PWs)   bands (ev):

    -7.0005   1.6750   4.7797   4.7797

          k =-0.2873 0.2873-0.2873 (  1615 PWs)   bands (ev):

    -6.4293  -0.1378   4.3905   4.3905

          k =-0.3831 0.3831-0.3831 (  1616 PWs)   bands (ev):

    -5.7601  -1.5703   4.1385   4.1385

          k = 0.4789-0.4789 0.4789 (  1622 PWs)   bands (ev):

    -5.3849  -2.2026   4.0524   4.0524

          k = 0.0000 0.1915 0.0000 (  1599 PWs)   bands (ev):

    -7.3220   3.6571   4.8258   4.8258

          k =-0.0958 0.2873-0.0958 (  1609 PWs)   bands (ev):

    -7.0371   2.1237   4.3524   4.4098

          k =-0.1915 0.3831-0.1915 (  1607 PWs)   bands (ev):

    -6.5292   0.3691   3.8962   3.9885

          k =-0.2873 0.4789-0.2873 (  1610 PWs)   bands (ev):

    -5.8689  -1.1617   3.4427   3.8040

          k = 0.5746-0.3831 0.5746 (  1609 PWs)   bands (ev):

    -5.3209  -2.1158   3.1443   3.8159

          k = 0.4789-0.2873 0.4789 (  1616 PWs)   bands (ev):

    -5.4590  -1.8941   3.0386   4.0160

          k = 0.3831-0.1915 0.3831 (  1621 PWs)   bands (ev):

    -6.0997  -0.6873   3.1503   4.3744

          k = 0.2873-0.0958 0.2873 (  1605 PWs)   bands (ev):

    -6.7229   0.9299   3.5113   4.8237

          k = 0.1915 0.0000 0.1915 (  1592 PWs)   bands (ev):

    -7.1595   2.5808   4.2203   5.2000

          k = 0.0000 0.3831 0.0000 (  1607 PWs)   bands (ev):

    -6.8301   1.6923   3.8520   3.8520

          k =-0.0958 0.4789-0.0958 (  1612 PWs)   bands (ev):

    -6.3918   0.4673   3.2678   3.4710

          k =-0.1915 0.5746-0.1915 (  1619 PWs)   bands (ev):

    -5.7660  -0.8946   2.5815   3.2839

          k = 0.6704-0.2873 0.6704 (  1606 PWs)   bands (ev):

    -5.1189  -1.9787   2.0510   3.3124

          k = 0.5746-0.1915 0.5746 (  1596 PWs)   bands (ev):

    -4.9962  -2.1547   1.7731   3.5496

          k = 0.4789-0.0958 0.4789 (  1610 PWs)   bands (ev):

    -5.5654  -1.2674   1.8189   3.9598

          k = 0.3831 0.0000 0.3831 (  1610 PWs)   bands (ev):

    -6.2232  -0.0694   2.3383   4.4533

          k = 0.0000 0.5746 0.0000 (  1620 PWs)   bands (ev):

    -6.0218  -0.1890   3.0546   3.0546

          k =-0.0958 0.6704-0.0958 (  1625 PWs)   bands (ev):

    -5.4450  -1.1907   2.4462   2.8293

          k = 0.7662-0.1915 0.7662 (  1619 PWs)   bands (ev):

    -4.7590  -2.1536   1.6604   2.8255

          k = 0.6704-0.0958 0.6704 (  1621 PWs)   bands (ev):

    -4.4131  -2.5656   1.1440   3.0423

          k = 0.5746 0.0000 0.5746 (  1608 PWs)   bands (ev):

    -4.8995  -1.9963   1.1286   3.4488

          k = 0.0000 0.7662 0.0000 (  1624 PWs)   bands (ev):

    -4.9162  -1.9511   2.5533   2.5533

          k = 0.8620-0.0958 0.8620 (  1623 PWs)   bands (ev):

    -4.2294  -2.7796   2.0300   2.4974

          k = 0.7662 0.0000 0.7662 (  1622 PWs)   bands (ev):

    -3.8363  -3.1574   1.3392   2.6680

          k = 0.0000-0.9577 0.0000 (  1604 PWs)   bands (ev):

    -3.5446  -3.5446   2.3833   2.3833

          k =-0.1915 0.3831 0.0000 (  1613 PWs)   bands (ev):

    -6.6765   1.0513   3.2606   4.3063

          k =-0.2873 0.4789-0.0958 (  1609 PWs)   bands (ev):

    -6.1074  -0.3341   2.5875   3.9281

          k = 0.5746-0.3831 0.7662 (  1618 PWs)   bands (ev):

    -5.4336  -1.6087   2.2695   3.5852

          k = 0.4789-0.2873 0.6704 (  1608 PWs)   bands (ev):

    -5.0470  -2.2094   2.1775   3.4536

          k =-0.1915 0.5746-0.0000 (  1617 PWs)   bands (ev):

    -5.8865  -0.5019   2.5069   3.2049

          k = 0.6704-0.2873 0.8620 (  1621 PWs)   bands (ev):

    -5.2222  -1.5726   1.8726   2.8973

          k = 0.5746-0.1915 0.7662 (  1613 PWs)   bands (ev):

    -4.6552  -2.3460   1.4560   2.8425

          k = 0.4789-0.0958 0.6704 (  1613 PWs)   bands (ev):

    -4.8341  -2.1126   1.3392   3.0734

          k = 0.3831-0.0000 0.5746 (  1607 PWs)   bands (ev):

    -5.4958  -1.2084   1.6657   3.5028

          k = 0.7662-0.1915 0.9577 (  1621 PWs)   bands (ev):

    -4.8165  -2.0452   2.0873   2.4219

          k = 0.6704-0.0958 0.8620 (  1625 PWs)   bands (ev):

    -4.1450  -2.8018   1.4654   2.3314

          k = 0.5746 0.0000 0.7662 (  1614 PWs)   bands (ev):

    -4.1871  -2.7423   1.0884   2.5961

          k =-0.1915-0.9577-0.0000 (  1624 PWs)   bands (ev):

    -3.5124  -3.5124   2.0498   2.0498

          k = 0.5746-0.1915 0.9577 (  1616 PWs)   bands (ev):

    -4.5458  -2.3304   1.3985   2.3662

          k = 0.4789-0.0958 0.8620 (  1608 PWs)   bands (ev):

    -4.0871  -2.8229   1.2605   2.1292

          k =-0.3831-0.9577 0.0000 (  1626 PWs)   bands (ev):

    -3.4579  -3.4579   1.6202   1.6202

     highest occupied level (ev):     5.4314

!    total energy              =     -15.82922097 Ry
     estimated scf accuracy    <          3.5E-09 Ry

     The total energy is the sum of the following terms:
     one-electron contribution =       3.71378702 Ry
     hartree contribution      =       1.20922860 Ry
     xc contribution           =      -4.66610249 Ry
     ewald contribution        =     -16.08613410 Ry

     convergence has been achieved in   8 iterations
     Writing meta-gga kinetic term

     Forces acting on atoms (cartesian axes, Ry/au):

     atom    1 type  1   force =    -0.00000000   -0.00000000   -0.00000000
     atom    2 type  1   force =    -0.00000000   -0.00000000    0.00000000

     Total force =     0.000000     Total SCF correction =     0.000000


     Computing stress (Cartesian axis) and pressure

          total   stress  (Ry/bohr**3)                   (kbar)     P=        1.28
   0.00000873   0.00000000  -0.00000000            1.28        0.00       -0.00
   0.00000000   0.00000873  -0.00000000            0.00        1.28       -0.00
   0.00000000  -0.00000000   0.00000873            0.00       -0.00        1.28

     Energy error            =      1.3E-04 Ry
     Gradient error          =      8.7E-32 Ry/Bohr
     Cell gradient error     =      1.3E+00 kbar

     number of scf cycles    =   4
     number of bfgs steps    =   3

     enthalpy           old  =     -15.8290873251 Ry
     enthalpy           new  =     -15.8292209662 Ry

     CASE: enthalpy          _new < enthalpy          _old

     new trust radius        =       0.0019695981 bohr
     new conv_thr            =       0.0000000100 Ry

     new unit-cell volume =    308.14727 a.u.^3 (    45.66271 Ang^3 )
     density =      5.28315 g/cm^3

CELL_PARAMETERS (alat= 10.26310000)
  -0.522353147   0.000000000   0.522353147
  -0.000000000   0.522353147   0.522353147
  -0.522353147   0.522353147   0.000000000

ATOMIC_POSITIONS (alat)
Ge           -0.0000000000       -0.0000000000       -0.0000000000
Ge            0.2611765733        0.2611765733        0.2611765733



     Writing config-only to output data dir ./pwscf.save/
     NEW-OLD atomic charge density approx. for the potential
     extrapolated charge    8.01346, renormalised to    8.00000

     total cpu time spent up to now is      199.1 secs

     Self-consistent Calculation

     iteration #  1     ecut=    50.00 Ry     beta= 0.01
     Davidson diagonalization with overlap
     ethr =  1.00E-06,  avg # of iterations =  1.0

     Threshold (ethr) on eigenvalues was too large:
     Diagonalizing with lowered threshold

     Davidson diagonalization with overlap
     ethr =  2.12E-08,  avg # of iterations =  7.0

     total cpu time spent up to now is      203.0 secs

     total energy              =     -15.82922098 Ry
     estimated scf accuracy    <       0.00000117 Ry

     iteration #  2     ecut=    50.00 Ry     beta= 0.01
     Davidson diagonalization with overlap
     ethr =  1.46E-08,  avg # of iterations =  5.8

     total cpu time spent up to now is      205.5 secs

     total energy              =     -15.82922246 Ry
     estimated scf accuracy    <       0.00000035 Ry

     iteration #  3     ecut=    50.00 Ry     beta= 0.01
     Davidson diagonalization with overlap
     ethr =  4.34E-09,  avg # of iterations =  3.8

     total cpu time spent up to now is      207.3 secs

     total energy              =     -15.82922270 Ry
     estimated scf accuracy    <       0.00000030 Ry

     iteration #  4     ecut=    50.00 Ry     beta= 0.01
     Davidson diagonalization with overlap
     ethr =  3.80E-09,  avg # of iterations =  1.2

     total cpu time spent up to now is      208.5 secs

     total energy              =     -15.82922298 Ry
     estimated scf accuracy    <       0.00000021 Ry

     iteration #  5     ecut=    50.00 Ry     beta= 0.01
     Davidson diagonalization with overlap
     ethr =  2.66E-09,  avg # of iterations =  4.8

     total cpu time spent up to now is      210.7 secs

     End of self-consistent calculation

          k = 0.0000 0.0000 0.0000 (  1639 PWs)   bands (ev):

    -7.4919   5.4144   5.4144   5.4144

          k =-0.0957 0.0957-0.0957 (  1606 PWs)   bands (ev):

    -7.3686   3.6659   5.1948   5.1948

          k =-0.1914 0.1914-0.1914 (  1606 PWs)   bands (ev):

    -7.0061   1.6582   4.7640   4.7640

          k =-0.2872 0.2872-0.2872 (  1615 PWs)   bands (ev):

    -6.4359  -0.1514   4.3754   4.3754

          k =-0.3829 0.3829-0.3829 (  1616 PWs)   bands (ev):

    -5.7681  -1.5813   4.1238   4.1238

          k = 0.4786-0.4786 0.4786 (  1622 PWs)   bands (ev):

    -5.3938  -2.2123   4.0378   4.0378

          k = 0.0000 0.1914 0.0000 (  1599 PWs)   bands (ev):

    -7.3271   3.6353   4.8102   4.8102

          k =-0.0957 0.2872-0.0957 (  1609 PWs)   bands (ev):

    -7.0426   2.1051   4.3377   4.3943

          k =-0.1914 0.3829-0.1914 (  1607 PWs)   bands (ev):

    -6.5356   0.3539   3.8811   3.9744

          k =-0.2872 0.4786-0.2872 (  1610 PWs)   bands (ev):

    -5.8765  -1.1740   3.4282   3.7901

          k = 0.5743-0.3829 0.5743 (  1609 PWs)   bands (ev):

    -5.3298  -2.1261   3.1303   3.8019

          k = 0.4786-0.2872 0.4786 (  1616 PWs)   bands (ev):

    -5.4675  -1.9048   3.0250   4.0016

          k = 0.3829-0.1914 0.3829 (  1621 PWs)   bands (ev):

    -6.1069  -0.7004   3.1369   4.3593

          k = 0.2872-0.0957 0.2872 (  1605 PWs)   bands (ev):

    -6.7289   0.9137   3.4978   4.8077

          k = 0.1914 0.0000 0.1914 (  1592 PWs)   bands (ev):

    -7.1649   2.5617   4.2060   5.1833

          k = 0.0000 0.3829 0.0000 (  1607 PWs)   bands (ev):

    -6.8360   1.6729   3.8383   3.8383

          k =-0.0957 0.4786-0.0957 (  1612 PWs)   bands (ev):

    -6.3984   0.4502   3.2547   3.4579

          k =-0.1914 0.5743-0.1914 (  1619 PWs)   bands (ev):

    -5.7737  -0.9088   2.5693   3.2711

          k = 0.6700-0.2872 0.6700 (  1606 PWs)   bands (ev):

    -5.1280  -1.9906   2.0395   3.2994

          k = 0.5743-0.1914 0.5743 (  1596 PWs)   bands (ev):

    -5.0056  -2.1662   1.7623   3.5361

          k = 0.4786-0.0957 0.4786 (  1610 PWs)   bands (ev):

    -5.5735  -1.2808   1.8085   3.9455

          k = 0.3829 0.0000 0.3829 (  1610 PWs)   bands (ev):

    -6.2302  -0.0849   2.3274   4.4380

          k = 0.0000 0.5743 0.0000 (  1620 PWs)   bands (ev):

    -6.0289  -0.2056   3.0422   3.0422

          k =-0.0957 0.6700-0.0957 (  1625 PWs)   bands (ev):

    -5.4531  -1.2056   2.4350   2.8173

          k = 0.7658-0.1914 0.7658 (  1619 PWs)   bands (ev):

    -4.7684  -2.1668   1.6507   2.8134

          k = 0.6700-0.0957 0.6700 (  1621 PWs)   bands (ev):

    -4.4234  -2.5778   1.1354   3.0298

          k = 0.5743 0.0000 0.5743 (  1608 PWs)   bands (ev):

    -4.9089  -2.0094   1.1200   3.4355

          k = 0.0000 0.7658 0.0000 (  1624 PWs)   bands (ev):

    -4.9252  -1.9650   2.5417   2.5417

          k = 0.8615-0.0957 0.8615 (  1623 PWs)   bands (ev):

    -4.2395  -2.7921   2.0196   2.4859

          k = 0.7658 0.0000 0.7658 (  1622 PWs)   bands (ev):

    -3.8475  -3.1690   1.3304   2.6562

          k = 0.0000-0.9572 0.0000 (  1604 PWs)   bands (ev):

    -3.5558  -3.5558   2.3720   2.3720

          k =-0.1914 0.3829 0.0000 (  1613 PWs)   bands (ev):

    -6.6826   1.0338   3.2480   4.2911

          k =-0.2872 0.4786-0.0957 (  1609 PWs)   bands (ev):

    -6.1145  -0.3490   2.5756   3.9138

          k = 0.5743-0.3829 0.7658 (  1618 PWs)   bands (ev):

    -5.4420  -1.6210   2.2576   3.5717

          k = 0.4786-0.2872 0.6700 (  1608 PWs)   bands (ev):

    -5.0564  -2.2202   2.1655   3.4404

          k =-0.1914 0.5743-0.0000 (  1617 PWs)   bands (ev):

    -5.8939  -0.5177   2.4956   3.1922

          k = 0.6700-0.2872 0.8615 (  1621 PWs)   bands (ev):

    -5.2308  -1.5865   1.8622   2.8853

          k = 0.5743-0.1914 0.7658 (  1613 PWs)   bands (ev):

    -4.6651  -2.3582   1.4463   2.8307

          k = 0.4786-0.0957 0.6700 (  1613 PWs)   bands (ev):

    -4.8436  -2.1253   1.3299   3.0610

          k = 0.3829-0.0000 0.5743 (  1607 PWs)   bands (ev):

    -5.5040  -1.2227   1.6560   3.4895

          k = 0.7658-0.1914 0.9572 (  1621 PWs)   bands (ev):

    -4.8256  -2.0589   2.0768   2.4108

          k = 0.6700-0.0957 0.8615 (  1625 PWs)   bands (ev):

    -4.1555  -2.8142   1.4563   2.3205

          k = 0.5743 0.0000 0.7658 (  1614 PWs)   bands (ev):

    -4.1978  -2.7546   1.0801   2.5846

          k =-0.1914-0.9572-0.0000 (  1624 PWs)   bands (ev):

    -3.5238  -3.5238   2.0394   2.0394

          k = 0.5743-0.1914 0.9572 (  1616 PWs)   bands (ev):

    -4.5556  -2.3435   1.3894   2.3554

          k = 0.4786-0.0957 0.8615 (  1608 PWs)   bands (ev):

    -4.0978  -2.8353   1.2518   2.1189

          k =-0.3829-0.9572 0.0000 (  1626 PWs)   bands (ev):

    -3.4696  -3.4696   1.6109   1.6109

     highest occupied level (ev):     5.4144

!    total energy              =     -15.82922315 Ry
     estimated scf accuracy    <          4.0E-09 Ry

     The total energy is the sum of the following terms:
     one-electron contribution =       3.70157685 Ry
     hartree contribution      =       1.21071046 Ry
     xc contribution           =      -4.66440332 Ry
     ewald contribution        =     -16.07710713 Ry

     convergence has been achieved in   5 iterations
     Writing meta-gga kinetic term

     Forces acting on atoms (cartesian axes, Ry/au):

     atom    1 type  1   force =     0.00000000    0.00000000   -0.00000000
     atom    2 type  1   force =    -0.00000000   -0.00000000    0.00000000

     Total force =     0.000000     Total SCF correction =     0.000000


     Computing stress (Cartesian axis) and pressure

          total   stress  (Ry/bohr**3)                   (kbar)     P=       -0.06
  -0.00000038   0.00000000   0.00000000           -0.06        0.00        0.00
  -0.00000000  -0.00000038   0.00000000           -0.00       -0.06        0.00
  -0.00000000  -0.00000000  -0.00000038           -0.00       -0.00       -0.06

     Energy error            =      2.2E-06 Ry
     Gradient error          =      6.3E-32 Ry/Bohr
     Cell gradient error     =      5.7E-02 kbar

     bfgs converged in   5 scf cycles and   4 bfgs steps
     (criteria: energy <  1.0E-04 Ry, force <  1.0E-03Ry/Bohr, cell <  5.0E-01kbar)

     End of BFGS Geometry Optimization

     Final enthalpy           =     -15.8292231524 Ry

     File ./pwscf.bfgs deleted, as requested
Begin final coordinates
     new unit-cell volume =    308.14727 a.u.^3 (    45.66271 Ang^3 )
     density =      5.28315 g/cm^3

CELL_PARAMETERS (alat= 10.26310000)
  -0.522353147   0.000000000   0.522353147
  -0.000000000   0.522353147   0.522353147
  -0.522353147   0.522353147   0.000000000

ATOMIC_POSITIONS (alat)
Ge           -0.0000000000       -0.0000000000       -0.0000000000
Ge            0.2611765733        0.2611765733        0.2611765733
End final coordinates



     Writing config-only to output data dir ./pwscf.save/

     Final scf calculation at the relaxed structure.
     The G-vectors are recalculated for the final unit cell
     Results may differ from those at the preceding step.
 
     G-vector sticks info
     --------------------
     sticks:   dense  smooth     PW     G-vecs:    dense   smooth      PW
     Sum         793     793    241                14649    14649    2445
 
     Using Slab Decomposition
 


     bravais-lattice index     =            2
     lattice parameter (alat)  =      10.2631  a.u.
     unit-cell volume          =     308.1473 (a.u.)^3
     number of atoms/cell      =            2
     number of atomic types    =            1
     number of electrons       =         8.00
     number of Kohn-Sham states=            4
     kinetic-energy cutoff     =      50.0000  Ry
     charge density cutoff     =     200.0000  Ry
     scf convergence threshold =      1.0E-08
     mixing beta               =       0.0100
     number of iterations used =            8  local-TF  mixing
     press convergence thresh. =      5.0E-01
     Exchange-correlation=  SLA  PW  SCAN SCAN
                           (   0   0   0   0   0 263 267)

     celldm(1)=  10.263100  celldm(2)=   0.000000  celldm(3)=   0.000000
     celldm(4)=   0.000000  celldm(5)=   0.000000  celldm(6)=   0.000000

[...]
      on external parameters: check the user_guide of
      QE if you need to modify them or to check their
      default values.

     Initial potential from superposition of free atoms

     starting charge       7.9987, renormalised to       8.0000
     Starting wfcs are   18 randomized atomic wfcs

     total cpu time spent up to now is      213.5 secs

     Self-consistent Calculation

     iteration #  1     ecut=    50.00 Ry     beta= 0.01
     Davidson diagonalization with overlap
     c_bands:  3 eigenvalues not converged
     c_bands:  4 eigenvalues not converged
     c_bands:  3 eigenvalues not converged
     c_bands:  4 eigenvalues not converged
     c_bands:  4 eigenvalues not converged
     c_bands:  4 eigenvalues not converged
     c_bands:  4 eigenvalues not converged
     c_bands:  3 eigenvalues not converged
     c_bands:  3 eigenvalues not converged
     c_bands:  4 eigenvalues not converged
     c_bands:  4 eigenvalues not converged
     c_bands:  4 eigenvalues not converged
     c_bands:  4 eigenvalues not converged
     c_bands:  3 eigenvalues not converged
     c_bands:  3 eigenvalues not converged
     c_bands:  3 eigenvalues not converged
     c_bands:  4 eigenvalues not converged
     c_bands:  4 eigenvalues not converged
     c_bands:  4 eigenvalues not converged
     c_bands:  4 eigenvalues not converged
     c_bands:  4 eigenvalues not converged
     c_bands:  3 eigenvalues not converged
     c_bands:  4 eigenvalues not converged
     c_bands:  4 eigenvalues not converged
     c_bands:  4 eigenvalues not converged
     c_bands:  4 eigenvalues not converged
     c_bands:  4 eigenvalues not converged
     c_bands:  4 eigenvalues not converged
     c_bands:  4 eigenvalues not converged
     c_bands:  4 eigenvalues not converged
     c_bands:  3 eigenvalues not converged
     c_bands:  3 eigenvalues not converged
     c_bands:  4 eigenvalues not converged
     c_bands:  4 eigenvalues not converged
     c_bands:  4 eigenvalues not converged
     c_bands:  4 eigenvalues not converged
     c_bands:  4 eigenvalues not converged
     c_bands:  4 eigenvalues not converged
     c_bands:  4 eigenvalues not converged
     c_bands:  4 eigenvalues not converged
     c_bands:  4 eigenvalues not converged
     c_bands:  4 eigenvalues not converged
     c_bands:  4 eigenvalues not converged
     c_bands:  4 eigenvalues not converged
     c_bands:  4 eigenvalues not converged
     c_bands:  4 eigenvalues not converged
     c_bands:  4 eigenvalues not converged
     ethr =  1.00E-06,  avg # of iterations = 20.0

     total cpu time spent up to now is      223.0 secs

     total energy              =     -15.74355567 Ry
     estimated scf accuracy    <       0.03938067 Ry

     iteration #  2     ecut=    50.00 Ry     beta= 0.01
     Davidson diagonalization with overlap
     ethr =  4.92E-04,  avg # of iterations =  1.0

     total cpu time spent up to now is      224.2 secs

     total energy              =     -15.82632925 Ry
     estimated scf accuracy    <       0.03887821 Ry

     iteration #  3     ecut=    50.00 Ry     beta= 0.01
     Davidson diagonalization with overlap
     ethr =  4.86E-04,  avg # of iterations =  1.1

     total cpu time spent up to now is      225.3 secs

     total energy              =     -15.82759853 Ry
     estimated scf accuracy    <       0.00306132 Ry

     iteration #  4     ecut=    50.00 Ry     beta= 0.01
     Davidson diagonalization with overlap
     c_bands:  1 eigenvalues not converged
     ethr =  3.83E-05,  avg # of iterations =  5.0

     total cpu time spent up to now is      227.5 secs

     total energy              =     -15.83011934 Ry
     estimated scf accuracy    <       0.00346070 Ry

     iteration #  5     ecut=    50.00 Ry     beta= 0.01
     Davidson diagonalization with overlap
     ethr =  3.83E-05,  avg # of iterations =  1.5

     total cpu time spent up to now is      228.7 secs

     total energy              =     -15.82862016 Ry
     estimated scf accuracy    <       0.00540804 Ry

     iteration #  6     ecut=    50.00 Ry     beta= 0.01
     Davidson diagonalization with overlap
     ethr =  3.83E-05,  avg # of iterations =  1.8

     total cpu time spent up to now is      229.9 secs

     total energy              =     -15.82867631 Ry
     estimated scf accuracy    <       0.00037523 Ry

     iteration #  7     ecut=    50.00 Ry     beta= 0.01
     Davidson diagonalization with overlap
     ethr =  4.69E-06,  avg # of iterations =  8.8

     total cpu time spent up to now is      233.5 secs

     total energy              =     -15.82927794 Ry
     estimated scf accuracy    <       0.00009276 Ry

     iteration #  8     ecut=    50.00 Ry     beta= 0.01
     Davidson diagonalization with overlap
     ethr =  1.16E-06,  avg # of iterations =  5.3

     total cpu time spent up to now is      235.7 secs

     total energy              =     -15.82933538 Ry
     estimated scf accuracy    <       0.00007545 Ry

     iteration #  9     ecut=    50.00 Ry     beta= 0.01
     Davidson diagonalization with overlap
     ethr =  9.43E-07,  avg # of iterations =  1.6

     total cpu time spent up to now is      237.0 secs

     total energy              =     -15.82932683 Ry
     estimated scf accuracy    <       0.00005549 Ry

     iteration # 10     ecut=    50.00 Ry     beta= 0.01
     Davidson diagonalization with overlap
     ethr =  6.94E-07,  avg # of iterations =  3.7

     total cpu time spent up to now is      238.7 secs

     total energy              =     -15.82934648 Ry
     estimated scf accuracy    <       0.00000291 Ry

     iteration # 11     ecut=    50.00 Ry     beta= 0.01
     Davidson diagonalization with overlap
     ethr =  3.64E-08,  avg # of iterations = 10.9

     total cpu time spent up to now is      242.8 secs

     total energy              =     -15.82935555 Ry
     estimated scf accuracy    <       0.00000288 Ry

     iteration # 12     ecut=    50.00 Ry     beta= 0.01
     Davidson diagonalization with overlap
     ethr =  3.60E-08,  avg # of iterations =  1.4

     total cpu time spent up to now is      243.9 secs

     total energy              =     -15.82935517 Ry
     estimated scf accuracy    <       0.00000187 Ry

     iteration # 13     ecut=    50.00 Ry     beta= 0.01
     Davidson diagonalization with overlap
     ethr =  2.34E-08,  avg # of iterations =  4.1

     total cpu time spent up to now is      245.7 secs

     total energy              =     -15.82935593 Ry
     estimated scf accuracy    <       0.00000118 Ry

     iteration # 14     ecut=    50.00 Ry     beta= 0.01
     Davidson diagonalization with overlap
     ethr =  1.47E-08,  avg # of iterations =  2.2

     total cpu time spent up to now is      247.1 secs

     total energy              =     -15.82935620 Ry
     estimated scf accuracy    <       0.00000161 Ry

     iteration # 15     ecut=    50.00 Ry     beta= 0.01
     Davidson diagonalization with overlap
     ethr =  1.47E-08,  avg # of iterations =  1.0

     total cpu time spent up to now is      248.2 secs

     total energy              =     -15.82935631 Ry
     estimated scf accuracy    <       0.00000184 Ry

     iteration # 16     ecut=    50.00 Ry     beta= 0.01
     Davidson diagonalization with overlap
     ethr =  1.47E-08,  avg # of iterations =  1.0

     total cpu time spent up to now is      249.4 secs

     total energy              =     -15.82935634 Ry
     estimated scf accuracy    <       0.00000136 Ry

     iteration # 17     ecut=    50.00 Ry     beta= 0.01
     Davidson diagonalization with overlap
     ethr =  1.47E-08,  avg # of iterations =  1.0

     total cpu time spent up to now is      250.5 secs

     total energy              =     -15.82935637 Ry
     estimated scf accuracy    <       0.00000162 Ry

     iteration # 18     ecut=    50.00 Ry     beta= 0.01
     Davidson diagonalization with overlap
     ethr =  1.47E-08,  avg # of iterations =  1.0

     total cpu time spent up to now is      251.7 secs

     total energy              =     -15.82935646 Ry
     estimated scf accuracy    <       0.00000089 Ry

     iteration # 19     ecut=    50.00 Ry     beta= 0.01
     Davidson diagonalization with overlap
     ethr =  1.11E-08,  avg # of iterations =  2.2

     total cpu time spent up to now is      253.0 secs

     total energy              =     -15.82935658 Ry
     estimated scf accuracy    <       0.00000008 Ry

     iteration # 20     ecut=    50.00 Ry     beta= 0.01
     Davidson diagonalization with overlap
     c_bands:  1 eigenvalues not converged
     ethr =  1.04E-09,  avg # of iterations = 12.7

     total cpu time spent up to now is      258.2 secs

     total energy              =     -15.82935691 Ry
     estimated scf accuracy    <       0.00000003 Ry

     iteration # 21     ecut=    50.00 Ry     beta= 0.01
     Davidson diagonalization with overlap
     ethr =  4.24E-10,  avg # of iterations =  5.2

     total cpu time spent up to now is      260.3 secs

     total energy              =     -15.82935692 Ry
     estimated scf accuracy    <       0.00000008 Ry

     iteration # 22     ecut=    50.00 Ry     beta= 0.01
     Davidson diagonalization with overlap
     ethr =  4.24E-10,  avg # of iterations =  1.2

     total cpu time spent up to now is      261.5 secs

     total energy              =     -15.82935693 Ry
     estimated scf accuracy    <       0.00000006 Ry

     iteration # 23     ecut=    50.00 Ry     beta= 0.01
     Davidson diagonalization with overlap
     ethr =  4.24E-10,  avg # of iterations =  1.0

     total cpu time spent up to now is      262.7 secs

     total energy              =     -15.82935693 Ry
     estimated scf accuracy    <       0.00000007 Ry

     iteration # 24     ecut=    50.00 Ry     beta= 0.01
     Davidson diagonalization with overlap
     ethr =  4.24E-10,  avg # of iterations =  1.0

     total cpu time spent up to now is      263.8 secs

     total energy              =     -15.82935693 Ry
     estimated scf accuracy    <       0.00000009 Ry

     iteration # 25     ecut=    50.00 Ry     beta= 0.01
     Davidson diagonalization with overlap
     ethr =  4.24E-10,  avg # of iterations =  1.1

     total cpu time spent up to now is      264.9 secs

     total energy              =     -15.82935695 Ry
     estimated scf accuracy    <       0.00000003 Ry

     iteration # 26     ecut=    50.00 Ry     beta= 0.01
     Davidson diagonalization with overlap
     ethr =  3.72E-10,  avg # of iterations =  1.1

     total cpu time spent up to now is      266.1 secs

     total energy              =     -15.82935695 Ry
     estimated scf accuracy    <       0.00000003 Ry

     iteration # 27     ecut=    50.00 Ry     beta= 0.01
     Davidson diagonalization with overlap
     ethr =  3.72E-10,  avg # of iterations =  1.0

     total cpu time spent up to now is      267.2 secs

     total energy              =     -15.82935695 Ry
     estimated scf accuracy    <       0.00000003 Ry

     iteration # 28     ecut=    50.00 Ry     beta= 0.01
     Davidson diagonalization with overlap
     ethr =  3.72E-10,  avg # of iterations =  1.0

     total cpu time spent up to now is      268.4 secs

     total energy              =     -15.82935695 Ry
     estimated scf accuracy    <       0.00000005 Ry

     iteration # 29     ecut=    50.00 Ry     beta= 0.01
     Davidson diagonalization with overlap
     ethr =  3.72E-10,  avg # of iterations =  1.0

     total cpu time spent up to now is      269.5 secs

     End of self-consistent calculation

          k = 0.0000 0.0000 0.0000 (  1837 PWs)   bands (ev):

    -7.4927   5.4146   5.4146   5.4146

          k =-0.0957 0.0957-0.0957 (  1847 PWs)   bands (ev):

    -7.3695   3.6656   5.1949   5.1949

          k =-0.1914 0.1914-0.1914 (  1847 PWs)   bands (ev):

    -7.0070   1.6578   4.7640   4.7640

          k =-0.2872 0.2872-0.2872 (  1853 PWs)   bands (ev):

    -6.4367  -0.1519   4.3754   4.3754

          k =-0.3829 0.3829-0.3829 (  1850 PWs)   bands (ev):

    -5.7689  -1.5818   4.1237   4.1237

          k = 0.4786-0.4786 0.4786 (  1850 PWs)   bands (ev):

    -5.3946  -2.2128   4.0378   4.0378

          k = 0.0000 0.1914 0.0000 (  1848 PWs)   bands (ev):

    -7.3279   3.6349   4.8102   4.8102

          k =-0.0957 0.2872-0.0957 (  1844 PWs)   bands (ev):

    -7.0435   2.1047   4.3377   4.3942

          k =-0.1914 0.3829-0.1914 (  1848 PWs)   bands (ev):

    -6.5365   0.3535   3.8809   3.9743

          k =-0.2872 0.4786-0.2872 (  1846 PWs)   bands (ev):

    -5.8773  -1.1745   3.4280   3.7900

          k = 0.5743-0.3829 0.5743 (  1841 PWs)   bands (ev):

    -5.3306  -2.1266   3.1301   3.8019

          k = 0.4786-0.2872 0.4786 (  1841 PWs)   bands (ev):

    -5.4683  -1.9054   3.0248   4.0015

          k = 0.3829-0.1914 0.3829 (  1854 PWs)   bands (ev):

    -6.1077  -0.7009   3.1367   4.3593

          k = 0.2872-0.0957 0.2872 (  1850 PWs)   bands (ev):

    -6.7298   0.9132   3.4977   4.8078

          k = 0.1914 0.0000 0.1914 (  1855 PWs)   bands (ev):

    -7.1658   2.5612   4.2059   5.1834

          k = 0.0000 0.3829 0.0000 (  1840 PWs)   bands (ev):

    -6.8368   1.6724   3.8382   3.8382

          k =-0.0957 0.4786-0.0957 (  1854 PWs)   bands (ev):

    -6.3992   0.4497   3.2546   3.4578

          k =-0.1914 0.5743-0.1914 (  1849 PWs)   bands (ev):

    -5.7744  -0.9094   2.5691   3.2710

          k = 0.6700-0.2872 0.6700 (  1832 PWs)   bands (ev):

    -5.1287  -1.9912   2.0393   3.2993

          k = 0.5743-0.1914 0.5743 (  1832 PWs)   bands (ev):

    -5.0064  -2.1667   1.7620   3.5361

          k = 0.4786-0.0957 0.4786 (  1840 PWs)   bands (ev):

    -5.5743  -1.2813   1.8082   3.9455

          k = 0.3829 0.0000 0.3829 (  1851 PWs)   bands (ev):

    -6.2310  -0.0854   2.3272   4.4380

          k = 0.0000 0.5743 0.0000 (  1840 PWs)   bands (ev):

    -6.0297  -0.2061   3.0421   3.0421

          k =-0.0957 0.6700-0.0957 (  1829 PWs)   bands (ev):

    -5.4539  -1.2061   2.4348   2.8171

          k = 0.7658-0.1914 0.7658 (  1842 PWs)   bands (ev):

    -4.7691  -2.1673   1.6505   2.8133

          k = 0.6700-0.0957 0.6700 (  1834 PWs)   bands (ev):

    -4.4241  -2.5784   1.1351   3.0297

          k = 0.5743 0.0000 0.5743 (  1838 PWs)   bands (ev):

    -4.9097  -2.0100   1.1198   3.4354

          k = 0.0000 0.7658 0.0000 (  1828 PWs)   bands (ev):

    -4.9259  -1.9655   2.5416   2.5416

          k = 0.8615-0.0957 0.8615 (  1820 PWs)   bands (ev):

    -4.2401  -2.7926   2.0194   2.4858

          k = 0.7658 0.0000 0.7658 (  1834 PWs)   bands (ev):

    -3.8482  -3.1696   1.3301   2.6561

          k = 0.0000-0.9572 0.0000 (  1804 PWs)   bands (ev):

    -3.5564  -3.5564   2.3718   2.3718

          k =-0.1914 0.3829 0.0000 (  1846 PWs)   bands (ev):

    -6.6835   1.0334   3.2479   4.2911

          k =-0.2872 0.4786-0.0957 (  1850 PWs)   bands (ev):

    -6.1153  -0.3495   2.5754   3.9137

          k = 0.5743-0.3829 0.7658 (  1836 PWs)   bands (ev):

    -5.4428  -1.6215   2.2574   3.5716

          k = 0.4786-0.2872 0.6700 (  1830 PWs)   bands (ev):

    -5.0572  -2.2208   2.1653   3.4404

          k =-0.1914 0.5743-0.0000 (  1840 PWs)   bands (ev):

    -5.8947  -0.5182   2.4955   3.1920

          k = 0.6700-0.2872 0.8615 (  1838 PWs)   bands (ev):

    -5.2316  -1.5870   1.8620   2.8852

          k = 0.5743-0.1914 0.7658 (  1831 PWs)   bands (ev):

    -4.6658  -2.3587   1.4461   2.8305

          k = 0.4786-0.0957 0.6700 (  1839 PWs)   bands (ev):

    -4.8444  -2.1259   1.3297   3.0609

          k = 0.3829-0.0000 0.5743 (  1846 PWs)   bands (ev):

    -5.5048  -1.2232   1.6558   3.4894

          k = 0.7658-0.1914 0.9572 (  1828 PWs)   bands (ev):

    -4.8263  -2.0594   2.0766   2.4106

          k = 0.6700-0.0957 0.8615 (  1834 PWs)   bands (ev):

    -4.1562  -2.8148   1.4560   2.3203

          k = 0.5743 0.0000 0.7658 (  1833 PWs)   bands (ev):

    -4.1985  -2.7552   1.0798   2.5845

          k =-0.1914-0.9572-0.0000 (  1818 PWs)   bands (ev):

    -3.5244  -3.5244   2.0392   2.0392

          k = 0.5743-0.1914 0.9572 (  1834 PWs)   bands (ev):

    -4.5564  -2.3441   1.3892   2.3552

          k = 0.4786-0.0957 0.8615 (  1836 PWs)   bands (ev):

    -4.0985  -2.8359   1.2515   2.1187

          k =-0.3829-0.9572 0.0000 (  1840 PWs)   bands (ev):

    -3.4702  -3.4702   1.6107   1.6107

     highest occupied level (ev):     5.4146

!    total energy              =     -15.82935697 Ry
     estimated scf accuracy    <          9.6E-09 Ry

     The total energy is the sum of the following terms:
     one-electron contribution =       3.70138042 Ry
     hartree contribution      =       1.21082213 Ry
     xc contribution           =      -4.66445254 Ry
     ewald contribution        =     -16.07710698 Ry

     convergence has been achieved in  29 iterations
     Writing meta-gga kinetic term

     Forces acting on atoms (cartesian axes, Ry/au):

     atom    1 type  1   force =     0.00000000    0.00000000   -0.00000000
     atom    2 type  1   force =     0.00000000    0.00000000    0.00000000

     Total force =     0.000000     Total SCF correction =     0.000000


     Computing stress (Cartesian axis) and pressure

          total   stress  (Ry/bohr**3)                   (kbar)     P=        0.33
   0.00000222  -0.00000000   0.00000000            0.33       -0.00        0.00
  -0.00000000   0.00000222   0.00000000           -0.00        0.33        0.00
  -0.00000000  -0.00000000   0.00000222           -0.00       -0.00        0.33


     Writing all to output data dir ./pwscf.save/
     Writing meta-gga kinetic term
 
     init_run     :      4.46s CPU      4.55s WALL (       2 calls)
     electrons    :    259.77s CPU    261.20s WALL (       6 calls)
     update_pot   :      0.92s CPU      0.92s WALL (       4 calls)
     forces       :      0.54s CPU      0.55s WALL (       6 calls)
     stress       :      2.78s CPU      2.79s WALL (       6 calls)

     Called by init_run:
     wfcinit      :      3.95s CPU      3.99s WALL (       2 calls)
     potinit      :      0.20s CPU      0.21s WALL (       2 calls)
     hinit0       :      0.28s CPU      0.32s WALL (       2 calls)

     Called by electrons:
     c_bands      :    223.39s CPU    224.59s WALL (     138 calls)
     sum_band     :     32.40s CPU     32.55s WALL (     138 calls)
     v_of_rho     :      2.61s CPU      2.65s WALL (     142 calls)
     mix_rho      :      1.40s CPU      1.44s WALL (     138 calls)

     Called by c_bands:
     init_us_2    :      1.49s CPU      1.50s WALL (   13630 calls)
     init_us_2:cp :      1.46s CPU      1.48s WALL (   13630 calls)
     cegterg      :    221.62s CPU    222.80s WALL (    6486 calls)

     Called by *egterg:
     cdiaghg      :      0.82s CPU      0.83s WALL (   28593 calls)
     h_psi        :    221.10s CPU    222.29s WALL (   28969 calls)
     g_psi        :      0.24s CPU      0.24s WALL (   22389 calls)

     Called by h_psi:
     h_psi:calbec :      0.72s CPU      0.72s WALL (   28969 calls)
     vloc_psi     :     54.69s CPU     55.05s WALL (   28969 calls)
     add_vuspsi   :      0.64s CPU      0.65s WALL (   28969 calls)
     h_psi_meta   :    164.70s CPU    165.53s WALL (   28969 calls)

     General routines
     calbec       :      0.68s CPU      0.69s WALL (   30379 calls)
     fft          :      0.44s CPU      0.49s WALL (    1738 calls)
     ffts         :      0.63s CPU      0.63s WALL (    2452 calls)
     fftw         :    224.37s CPU    225.54s WALL (  880768 calls)
     interpolate  :      0.01s CPU      0.01s WALL (     142 calls)
 
     Parallel routines
 
     PWSCF        :   4m28.54s CPU   4m30.13s WALL

 
   This run was terminated on:  14:51:27  18Feb2023            

=------------------------------------------------------------------------------=
   JOB DONE.
=------------------------------------------------------------------------------=
