
     Program PWSCF v.7.0 starts on 18Feb2023 at 14:37:17 

     This program is part of the open-source Quantum ESPRESSO suite
     for quantum simulation of materials; please cite
         "P. Giannozzi et al., J. Phys.:Condens. Matter 21 395502 (2009);
         "P. Giannozzi et al., J. Phys.:Condens. Matter 29 465901 (2017);
         "P. Giannozzi et al., J. Chem. Phys. 152 154105 (2020);
          URL http://www.quantum-espresso.org", 
     in publications or presentations arising from this work. More details at
     http://www.quantum-espresso.org/quote

     Parallel version (MPI), running on     1 processors

     MPI processes distributed on     1 nodes
     8393 MiB available memory on the printing compute node when the environment starts
 
     Waiting for input...
     Reading input from standard input

     Current dimensions of program PWSCF are:
     Max number of different atomic species (ntypx) = 10
     Max number of k-points (npk) =  40000
     Max angular momentum in pseudopotentials (lmaxx) =  4

     WARNING: the MGGA functional with ID    5 has been 
     read together with other dft terms, but it should 
     stand alone in order to work properly. The other 
     terms will be ignored.

     WARNING: the MGGA functional with ID    5 has been 
     read together with other dft terms, but it should 
     stand alone in order to work properly. The other 
     terms will be ignored.

     Subspace diagonalization in iterative solution of the eigenvalue problem:
     a serial algorithm will be used

 
     G-vector sticks info
     --------------------
     sticks:   dense  smooth     PW     G-vecs:    dense   smooth      PW
     Sum         733     733    223                12939    12939    2229
 
     Using Slab Decomposition
 


     bravais-lattice index     =            2
     lattice parameter (alat)  =      10.2631  a.u.
     unit-cell volume          =     270.2562 (a.u.)^3
     number of atoms/cell      =            2
     number of atomic types    =            2
     number of electrons       =         2.00
     number of Kohn-Sham states=            1
     kinetic-energy cutoff     =      50.0000  Ry
     charge density cutoff     =     200.0000  Ry
     scf convergence threshold =      1.0E-06
     mixing beta               =       0.0100
     number of iterations used =            8  local-TF  mixing
     energy convergence thresh.=      1.0E-04
     force convergence thresh. =      1.0E-03
     press convergence thresh. =      5.0E-01
     Exchange-correlation=  SLA  PW   SCAN SCAN
                           (   0   0   0   0   0 263 267)
     nstep                     =           50


     celldm(1)=  10.263100  celldm(2)=   0.000000  celldm(3)=   0.000000
     celldm(4)=   0.000000  celldm(5)=   0.000000  celldm(6)=   0.000000

     crystal axes: (cart. coord. in units of alat)
               a(1) = (  -0.500000   0.000000   0.500000 )  
               a(2) = (   0.000000   0.500000   0.500000 )  
               a(3) = (  -0.500000   0.500000   0.000000 )  

     reciprocal axes: (cart. coord. in units 2 pi/alat)
               b(1) = ( -1.000000 -1.000000  1.000000 )  
               b(2) = (  1.000000  1.000000  1.000000 )  
               b(3) = ( -1.000000  1.000000 -1.000000 )  


     PseudoPot. # 1 for Li read from file:
     ~/Documents/PWDFT.jl/pseudopotentials/scan_upf/Li.SCAN.UPF
     MD5 check sum: Not computed, couldn't open file
     Pseudo is Norm-conserving, Zval =  1.0
     Generated by new atomic code, or converted to UPF format
     Using radial grid of 1321 points,  1 beta functions with: 
                l(1) =   0

     PseudoPot. # 2 for H  read from file:
     ~/Documents/PWDFT.jl/pseudopotentials/scan_upf/H.SCAN.UPF
     MD5 check sum: Not computed, couldn't open file
     Pseudo is Norm-conserving, Zval =  1.0
     Generated by new atomic code, or converted to UPF format
     Using radial grid of 2419 points,  0 beta functions with: 

     atomic species   valence    mass     pseudopotential
        Li             1.00     6.94100     Li( 1.00)
        H              1.00     1.00800     H ( 1.00)

     48 Sym. Ops., with inversion, found



   Cartesian axes

     site n.     atom                  positions (alat units)
         1           Li  tau(   1) = (   0.0000000   0.0000000   0.0000000  )
         2           H   tau(   2) = (   0.5000000   0.5000000   0.5000000  )

     number of k points=    47
                       cart. coord. in units 2pi/alat
        k(    1) = (   0.0000000   0.0000000   0.0000000), wk =   0.0020000
        k(    2) = (  -0.1000000   0.1000000  -0.1000000), wk =   0.0160000
        k(    3) = (  -0.2000000   0.2000000  -0.2000000), wk =   0.0160000
        k(    4) = (  -0.3000000   0.3000000  -0.3000000), wk =   0.0160000
        k(    5) = (  -0.4000000   0.4000000  -0.4000000), wk =   0.0160000
        k(    6) = (   0.5000000  -0.5000000   0.5000000), wk =   0.0080000
        k(    7) = (   0.0000000   0.2000000   0.0000000), wk =   0.0120000
        k(    8) = (  -0.1000000   0.3000000  -0.1000000), wk =   0.0480000
        k(    9) = (  -0.2000000   0.4000000  -0.2000000), wk =   0.0480000
        k(   10) = (  -0.3000000   0.5000000  -0.3000000), wk =   0.0480000
        k(   11) = (   0.6000000  -0.4000000   0.6000000), wk =   0.0480000
        k(   12) = (   0.5000000  -0.3000000   0.5000000), wk =   0.0480000
        k(   13) = (   0.4000000  -0.2000000   0.4000000), wk =   0.0480000
        k(   14) = (   0.3000000  -0.1000000   0.3000000), wk =   0.0480000
        k(   15) = (   0.2000000   0.0000000   0.2000000), wk =   0.0240000
        k(   16) = (   0.0000000   0.4000000   0.0000000), wk =   0.0120000
        k(   17) = (  -0.1000000   0.5000000  -0.1000000), wk =   0.0480000
        k(   18) = (  -0.2000000   0.6000000  -0.2000000), wk =   0.0480000
        k(   19) = (   0.7000000  -0.3000000   0.7000000), wk =   0.0480000
        k(   20) = (   0.6000000  -0.2000000   0.6000000), wk =   0.0480000
        k(   21) = (   0.5000000  -0.1000000   0.5000000), wk =   0.0480000
        k(   22) = (   0.4000000   0.0000000   0.4000000), wk =   0.0240000
        k(   23) = (   0.0000000   0.6000000   0.0000000), wk =   0.0120000
        k(   24) = (  -0.1000000   0.7000000  -0.1000000), wk =   0.0480000
        k(   25) = (   0.8000000  -0.2000000   0.8000000), wk =   0.0480000
        k(   26) = (   0.7000000  -0.1000000   0.7000000), wk =   0.0480000
        k(   27) = (   0.6000000  -0.0000000   0.6000000), wk =   0.0240000
        k(   28) = (   0.0000000   0.8000000   0.0000000), wk =   0.0120000
        k(   29) = (   0.9000000  -0.1000000   0.9000000), wk =   0.0480000
        k(   30) = (   0.8000000   0.0000000   0.8000000), wk =   0.0240000
        k(   31) = (   0.0000000  -1.0000000   0.0000000), wk =   0.0060000
        k(   32) = (  -0.2000000   0.4000000   0.0000000), wk =   0.0480000
        k(   33) = (  -0.3000000   0.5000000  -0.1000000), wk =   0.0960000
        k(   34) = (   0.6000000  -0.4000000   0.8000000), wk =   0.0960000
        k(   35) = (   0.5000000  -0.3000000   0.7000000), wk =   0.0480000
        k(   36) = (  -0.2000000   0.6000000   0.0000000), wk =   0.0480000
        k(   37) = (   0.7000000  -0.3000000   0.9000000), wk =   0.0960000
        k(   38) = (   0.6000000  -0.2000000   0.8000000), wk =   0.0960000
        k(   39) = (   0.5000000  -0.1000000   0.7000000), wk =   0.0960000
        k(   40) = (   0.4000000   0.0000000   0.6000000), wk =   0.0480000
        k(   41) = (   0.8000000  -0.2000000   1.0000000), wk =   0.0480000
        k(   42) = (   0.7000000  -0.1000000   0.9000000), wk =   0.0960000
        k(   43) = (   0.6000000   0.0000000   0.8000000), wk =   0.0480000
        k(   44) = (  -0.2000000  -1.0000000   0.0000000), wk =   0.0240000
        k(   45) = (   0.6000000  -0.2000000   1.0000000), wk =   0.0480000
        k(   46) = (   0.5000000  -0.1000000   0.9000000), wk =   0.0480000
        k(   47) = (  -0.4000000  -1.0000000   0.0000000), wk =   0.0240000

     Dense  grid:    12939 G-vectors     FFT dimensions: (  36,  36,  36)

     Estimated max dynamical RAM per process >      21.64 MB

     WARNING: libxc functional with ID  263 depends
      on external parameters: check the user_guide of
      QE if you need to modify them or to check their
      default values.

     Initial potential from superposition of free atoms

     starting charge       1.9953, renormalised to       2.0000
     Starting wfcs are    4 randomized atomic wfcs

     total cpu time spent up to now is        0.9 secs

     Self-consistent Calculation

     iteration #  1     ecut=    50.00 Ry     beta= 0.01
     Davidson diagonalization with overlap
     ethr =  1.00E-02,  avg # of iterations =  4.0

     total cpu time spent up to now is        1.5 secs

     total energy              =      -1.66038949 Ry
     estimated scf accuracy    <       0.03933664 Ry

     iteration #  2     ecut=    50.00 Ry     beta= 0.01
     Davidson diagonalization with overlap
     ethr =  1.97E-03,  avg # of iterations =  1.7

     total cpu time spent up to now is        1.9 secs

     total energy              =      -1.67308037 Ry
     estimated scf accuracy    <       0.05783046 Ry

     iteration #  3     ecut=    50.00 Ry     beta= 0.01
     Davidson diagonalization with overlap
     ethr =  1.97E-03,  avg # of iterations =  1.2

     total cpu time spent up to now is        2.2 secs

     total energy              =      -1.65799308 Ry
     estimated scf accuracy    <       0.07197503 Ry

     iteration #  4     ecut=    50.00 Ry     beta= 0.01
     Davidson diagonalization with overlap
     ethr =  1.97E-03,  avg # of iterations =  1.0

     total cpu time spent up to now is        2.5 secs

     total energy              =      -1.66118909 Ry
     estimated scf accuracy    <       0.00700821 Ry

     iteration #  5     ecut=    50.00 Ry     beta= 0.01
     Davidson diagonalization with overlap
     ethr =  3.50E-04,  avg # of iterations =  1.7

     total cpu time spent up to now is        2.9 secs

     total energy              =      -1.67057729 Ry
     estimated scf accuracy    <       0.00789608 Ry

     iteration #  6     ecut=    50.00 Ry     beta= 0.01
     Davidson diagonalization with overlap
     ethr =  3.50E-04,  avg # of iterations =  1.0

     total cpu time spent up to now is        3.2 secs

     total energy              =      -1.67045114 Ry
     estimated scf accuracy    <       0.00819812 Ry

     iteration #  7     ecut=    50.00 Ry     beta= 0.01
     Davidson diagonalization with overlap
     ethr =  3.50E-04,  avg # of iterations =  1.0

     total cpu time spent up to now is        3.5 secs

     total energy              =      -1.48517988 Ry
     estimated scf accuracy    <       0.00824956 Ry

     iteration #  8     ecut=    50.00 Ry     beta= 0.01
     Davidson diagonalization with overlap
     ethr =  3.50E-04,  avg # of iterations =  3.0

     total cpu time spent up to now is        4.0 secs

     total energy              =      -1.65050020 Ry
     estimated scf accuracy    <       0.12497684 Ry

     iteration #  9     ecut=    50.00 Ry     beta= 0.01
     Davidson diagonalization with overlap
     ethr =  3.50E-04,  avg # of iterations =  2.6

     total cpu time spent up to now is        4.5 secs

     total energy              =      -1.59356839 Ry
     estimated scf accuracy    <       0.11053099 Ry

     iteration # 10     ecut=    50.00 Ry     beta= 0.01
     Davidson diagonalization with overlap
     ethr =  3.50E-04,  avg # of iterations =  2.0

     total cpu time spent up to now is        4.9 secs

     total energy              =      -1.51192083 Ry
     estimated scf accuracy    <       0.13231485 Ry

     iteration # 11     ecut=    50.00 Ry     beta= 0.01
     Davidson diagonalization with overlap
     ethr =  3.50E-04,  avg # of iterations =  2.0

     total cpu time spent up to now is        5.3 secs

     total energy              =      -1.62361343 Ry
     estimated scf accuracy    <       0.13992575 Ry

     iteration # 12     ecut=    50.00 Ry     beta= 0.01
     Davidson diagonalization with overlap
     ethr =  3.50E-04,  avg # of iterations =  2.0

     total cpu time spent up to now is        5.8 secs

     total energy              =      -1.61496998 Ry
     estimated scf accuracy    <       0.12236412 Ry

     iteration # 13     ecut=    50.00 Ry     beta= 0.01
     Davidson diagonalization with overlap
     ethr =  3.50E-04,  avg # of iterations =  3.8

     total cpu time spent up to now is        6.4 secs

     total energy              =      -1.66754219 Ry
     estimated scf accuracy    <       0.01461383 Ry

     iteration # 14     ecut=    50.00 Ry     beta= 0.01
     Davidson diagonalization with overlap
     ethr =  3.50E-04,  avg # of iterations =  2.0

     total cpu time spent up to now is        6.8 secs

     total energy              =      -1.66855040 Ry
     estimated scf accuracy    <       0.00063115 Ry

     iteration # 15     ecut=    50.00 Ry     beta= 0.01
     Davidson diagonalization with overlap
     ethr =  3.16E-05,  avg # of iterations =  2.0

     total cpu time spent up to now is        7.2 secs

     total energy              =      -1.66857858 Ry
     estimated scf accuracy    <       0.00190169 Ry

     iteration # 16     ecut=    50.00 Ry     beta= 0.01
     Davidson diagonalization with overlap
     ethr =  3.16E-05,  avg # of iterations =  1.0

     total cpu time spent up to now is        7.5 secs

     total energy              =      -1.66858024 Ry
     estimated scf accuracy    <       0.00207254 Ry

     iteration # 17     ecut=    50.00 Ry     beta= 0.01
     Davidson diagonalization with overlap
     ethr =  3.16E-05,  avg # of iterations =  1.0

     total cpu time spent up to now is        7.8 secs

     total energy              =      -1.66915821 Ry
     estimated scf accuracy    <       0.00202220 Ry

     iteration # 18     ecut=    50.00 Ry     beta= 0.01
     Davidson diagonalization with overlap
     ethr =  3.16E-05,  avg # of iterations =  2.0

     total cpu time spent up to now is        8.2 secs

     total energy              =      -1.66926979 Ry
     estimated scf accuracy    <       0.00005952 Ry

     iteration # 19     ecut=    50.00 Ry     beta= 0.01
     Davidson diagonalization with overlap
     ethr =  2.98E-06,  avg # of iterations =  2.0

     total cpu time spent up to now is        8.6 secs

     total energy              =      -1.66940911 Ry
     estimated scf accuracy    <       0.00027067 Ry

     iteration # 20     ecut=    50.00 Ry     beta= 0.01
     Davidson diagonalization with overlap
     ethr =  2.98E-06,  avg # of iterations =  1.4

     total cpu time spent up to now is        9.0 secs

     total energy              =      -1.66987799 Ry
     estimated scf accuracy    <       0.00020016 Ry

     iteration # 21     ecut=    50.00 Ry     beta= 0.01
     Davidson diagonalization with overlap
     ethr =  2.98E-06,  avg # of iterations =  2.0

     total cpu time spent up to now is        9.4 secs

     total energy              =      -1.66983606 Ry
     estimated scf accuracy    <       0.00052421 Ry

     iteration # 22     ecut=    50.00 Ry     beta= 0.01
     Davidson diagonalization with overlap
     ethr =  2.98E-06,  avg # of iterations =  1.0

     total cpu time spent up to now is        9.7 secs

     total energy              =      -1.66982232 Ry
     estimated scf accuracy    <       0.00034309 Ry

     iteration # 23     ecut=    50.00 Ry     beta= 0.01
     Davidson diagonalization with overlap
     ethr =  2.98E-06,  avg # of iterations =  1.0

     total cpu time spent up to now is       10.0 secs

     total energy              =      -1.66980981 Ry
     estimated scf accuracy    <       0.00027065 Ry

     iteration # 24     ecut=    50.00 Ry     beta= 0.01
     Davidson diagonalization with overlap
     ethr =  2.98E-06,  avg # of iterations =  1.0

     total cpu time spent up to now is       10.3 secs

     total energy              =      -1.66981977 Ry
     estimated scf accuracy    <       0.00023888 Ry

     iteration # 25     ecut=    50.00 Ry     beta= 0.01
     Davidson diagonalization with overlap
     ethr =  2.98E-06,  avg # of iterations =  1.0

     total cpu time spent up to now is       10.6 secs

     total energy              =      -1.66988421 Ry
     estimated scf accuracy    <       0.00026547 Ry

     iteration # 26     ecut=    50.00 Ry     beta= 0.01
     Davidson diagonalization with overlap
     ethr =  2.98E-06,  avg # of iterations =  1.0

     total cpu time spent up to now is       10.9 secs

     total energy              =      -1.66968885 Ry
     estimated scf accuracy    <       0.00048579 Ry

     iteration # 27     ecut=    50.00 Ry     beta= 0.01
     Davidson diagonalization with overlap
     ethr =  2.98E-06,  avg # of iterations =  3.0

     total cpu time spent up to now is       11.4 secs

     total energy              =      -1.66975276 Ry
     estimated scf accuracy    <       0.00001223 Ry

     iteration # 28     ecut=    50.00 Ry     beta= 0.01
     Davidson diagonalization with overlap
     ethr =  6.12E-07,  avg # of iterations =  1.7

     total cpu time spent up to now is       11.8 secs

     End of self-consistent calculation

          k = 0.0000 0.0000 0.0000 (  1639 PWs)   bands (ev):

    -5.3864

          k =-0.1000 0.1000-0.1000 (  1606 PWs)   bands (ev):

    -5.2699

          k =-0.2000 0.2000-0.2000 (  1606 PWs)   bands (ev):

    -4.9346

          k =-0.3000 0.3000-0.3000 (  1615 PWs)   bands (ev):

    -4.4280

          k =-0.4000 0.4000-0.4000 (  1616 PWs)   bands (ev):

    -3.8855

          k = 0.5000-0.5000 0.5000 (  1622 PWs)   bands (ev):

    -3.6202

          k = 0.0000 0.2000 0.0000 (  1599 PWs)   bands (ev):

    -5.2305

          k =-0.1000 0.3000-0.1000 (  1609 PWs)   bands (ev):

    -4.9663

          k =-0.2000 0.4000-0.2000 (  1607 PWs)   bands (ev):

    -4.5097

          k =-0.3000 0.5000-0.3000 (  1610 PWs)   bands (ev):

    -3.9584

          k = 0.6000-0.4000 0.6000 (  1609 PWs)   bands (ev):

    -3.5610

          k = 0.5000-0.3000 0.5000 (  1616 PWs)   bands (ev):

    -3.6552

          k = 0.4000-0.2000 0.4000 (  1621 PWs)   bands (ev):

    -4.1458

          k = 0.3000-0.1000 0.3000 (  1605 PWs)   bands (ev):

    -4.6823

          k = 0.2000 0.0000 0.2000 (  1592 PWs)   bands (ev):

    -5.0797

          k = 0.0000 0.4000 0.0000 (  1607 PWs)   bands (ev):

    -4.7735

          k =-0.1000 0.5000-0.1000 (  1612 PWs)   bands (ev):

    -4.3789

          k =-0.2000 0.6000-0.2000 (  1619 PWs)   bands (ev):

    -3.8539

          k = 0.7000-0.3000 0.7000 (  1606 PWs)   bands (ev):

    -3.3875

          k = 0.6000-0.2000 0.6000 (  1596 PWs)   bands (ev):

    -3.3162

          k = 0.5000-0.1000 0.5000 (  1610 PWs)   bands (ev):

    -3.7090

          k = 0.4000 0.0000 0.4000 (  1610 PWs)   bands (ev):

    -4.2424

          k = 0.0000 0.6000 0.0000 (  1620 PWs)   bands (ev):

    -4.0497

          k =-0.1000 0.7000-0.1000 (  1625 PWs)   bands (ev):

    -3.5792

          k = 0.8000-0.2000 0.8000 (  1619 PWs)   bands (ev):

    -3.1200

          k = 0.7000-0.1000 0.7000 (  1621 PWs)   bands (ev):

    -2.9596

          k = 0.6000-0.0000 0.6000 (  1608 PWs)   bands (ev):

    -3.2337

          k = 0.0000 0.8000 0.0000 (  1624 PWs)   bands (ev):

    -3.1895

          k = 0.9000-0.1000 0.9000 (  1623 PWs)   bands (ev):

    -2.8327

          k = 0.8000 0.0000 0.8000 (  1622 PWs)   bands (ev):

    -2.7391

          k = 0.0000-1.0000 0.0000 (  1604 PWs)   bands (ev):

    -2.6942

          k =-0.2000 0.4000 0.0000 (  1613 PWs)   bands (ev):

    -4.6374

          k =-0.3000 0.5000-0.1000 (  1609 PWs)   bands (ev):

    -4.1416

          k = 0.6000-0.4000 0.8000 (  1618 PWs)   bands (ev):

    -3.6147

          k = 0.5000-0.3000 0.7000 (  1608 PWs)   bands (ev):

    -3.3586

          k =-0.2000 0.6000 0.0000 (  1617 PWs)   bands (ev):

    -3.9433

          k = 0.7000-0.3000 0.9000 (  1621 PWs)   bands (ev):

    -3.4329

          k = 0.6000-0.2000 0.8000 (  1613 PWs)   bands (ev):

    -3.0886

          k = 0.5000-0.1000 0.7000 (  1613 PWs)   bands (ev):

    -3.1937

          k = 0.4000 0.0000 0.6000 (  1607 PWs)   bands (ev):

    -3.6457

          k = 0.8000-0.2000 1.0000 (  1621 PWs)   bands (ev):

    -3.1389

          k = 0.7000-0.1000 0.9000 (  1625 PWs)   bands (ev):

    -2.8228

          k = 0.6000 0.0000 0.8000 (  1614 PWs)   bands (ev):

    -2.8555

          k =-0.2000-1.0000 0.0000 (  1624 PWs)   bands (ev):

    -2.6966

          k = 0.6000-0.2000 1.0000 (  1616 PWs)   bands (ev):

    -3.0090

          k = 0.5000-0.1000 0.9000 (  1608 PWs)   bands (ev):

    -2.8159

          k =-0.4000-1.0000 0.0000 (  1626 PWs)   bands (ev):

    -2.6992

     highest occupied level (ev):    -2.6942

!    total energy              =      -1.66975474 Ry
     estimated scf accuracy    <       0.00000029 Ry

     The total energy is the sum of the following terms:
     one-electron contribution =       0.06536172 Ry
     hartree contribution      =       0.35423443 Ry
     xc contribution           =      -0.98352613 Ry
     ewald contribution        =      -1.10582475 Ry

     convergence has been achieved in  28 iterations
     Writing meta-gga kinetic term

     Forces acting on atoms (cartesian axes, Ry/au):

     atom    1 type  1   force =    -0.00000000   -0.00000000   -0.00000000
     atom    2 type  2   force =     0.00000000    0.00000000    0.00000000

     Total force =     0.000000     Total SCF correction =     0.000000


     Computing stress (Cartesian axis) and pressure

          total   stress  (Ry/bohr**3)                   (kbar)     P=      -74.60
  -0.00050712   0.00000000   0.00000000          -74.60        0.00        0.00
   0.00000000  -0.00050712  -0.00000000            0.00      -74.60       -0.00
   0.00000000  -0.00000000  -0.00050712            0.00       -0.00      -74.60


     BFGS Geometry Optimization
     Energy error            =      0.0E+00 Ry
     Gradient error          =      1.0E-32 Ry/Bohr
     Cell gradient error     =      7.5E+01 kbar

     number of scf cycles    =   1
     number of bfgs steps    =   0

     enthalpy           new  =      -1.6697547405 Ry

     new trust radius        =       0.0416842760 bohr
     new conv_thr            =       0.0000010000 Ry

     new unit-cell volume =    260.10697 a.u.^3 (    38.54388 Ang^3 )
     density =      0.34246 g/cm^3

CELL_PARAMETERS (alat= 10.26310000)
  -0.493660946  -0.000000000   0.493660946
   0.000000000   0.493660946   0.493660946
  -0.493660946   0.493660946  -0.000000000

ATOMIC_POSITIONS (alat)
Li           -0.0000000000       -0.0000000000       -0.0000000000
H             0.4936609464        0.4936609464        0.4936609464



     Writing config-only to output data dir ./pwscf.save/
     NEW-OLD atomic charge density approx. for the potential
     extrapolated charge    1.92214, renormalised to    2.00000

     total cpu time spent up to now is       12.8 secs

     Self-consistent Calculation

     iteration #  1     ecut=    50.00 Ry     beta= 0.01
     Davidson diagonalization with overlap
     ethr =  1.00E-06,  avg # of iterations =  3.8

     total cpu time spent up to now is       13.4 secs

     total energy              =      -1.67424027 Ry
     estimated scf accuracy    <       0.00008215 Ry

     iteration #  2     ecut=    50.00 Ry     beta= 0.01
     Davidson diagonalization with overlap
     ethr =  4.11E-06,  avg # of iterations =  3.2

     total cpu time spent up to now is       13.9 secs

     total energy              =      -1.67456932 Ry
     estimated scf accuracy    <       0.00017309 Ry

     iteration #  3     ecut=    50.00 Ry     beta= 0.01
     Davidson diagonalization with overlap
     ethr =  4.11E-06,  avg # of iterations =  1.0

     total cpu time spent up to now is       14.2 secs

     total energy              =      -1.67461021 Ry
     estimated scf accuracy    <       0.00018207 Ry

     iteration #  4     ecut=    50.00 Ry     beta= 0.01
     Davidson diagonalization with overlap
     ethr =  4.11E-06,  avg # of iterations =  1.0

     total cpu time spent up to now is       14.6 secs

     total energy              =      -1.67488162 Ry
     estimated scf accuracy    <       0.00016918 Ry

     iteration #  5     ecut=    50.00 Ry     beta= 0.01
     Davidson diagonalization with overlap
     ethr =  4.11E-06,  avg # of iterations =  2.8

     total cpu time spent up to now is       15.0 secs

     total energy              =      -1.67493648 Ry
     estimated scf accuracy    <       0.00001796 Ry

     iteration #  6     ecut=    50.00 Ry     beta= 0.01
     Davidson diagonalization with overlap
     ethr =  8.98E-07,  avg # of iterations =  1.0

     total cpu time spent up to now is       15.3 secs

     total energy              =      -1.67494363 Ry
     estimated scf accuracy    <       0.00000815 Ry

     iteration #  7     ecut=    50.00 Ry     beta= 0.01
     Davidson diagonalization with overlap
     ethr =  4.07E-07,  avg # of iterations =  1.5

     total cpu time spent up to now is       15.7 secs

     End of self-consistent calculation

          k = 0.0000 0.0000 0.0000 (  1639 PWs)   bands (ev):

    -5.4245

          k =-0.1013 0.1013-0.1013 (  1606 PWs)   bands (ev):

    -5.3050

          k =-0.2026 0.2026-0.2026 (  1606 PWs)   bands (ev):

    -4.9610

          k =-0.3039 0.3039-0.3039 (  1615 PWs)   bands (ev):

    -4.4409

          k =-0.4051 0.4051-0.4051 (  1616 PWs)   bands (ev):

    -3.8831

          k = 0.5064-0.5064 0.5064 (  1622 PWs)   bands (ev):

    -3.6100

          k = 0.0000 0.2026 0.0000 (  1599 PWs)   bands (ev):

    -5.2646

          k =-0.1013 0.3039-0.1013 (  1609 PWs)   bands (ev):

    -4.9935

          k =-0.2026 0.4051-0.2026 (  1607 PWs)   bands (ev):

    -4.5246

          k =-0.3039 0.5064-0.3039 (  1610 PWs)   bands (ev):

    -3.9577

          k = 0.6077-0.4051 0.6077 (  1609 PWs)   bands (ev):

    -3.5484

          k = 0.5064-0.3039 0.5064 (  1616 PWs)   bands (ev):

    -3.6455

          k = 0.4051-0.2026 0.4051 (  1621 PWs)   bands (ev):

    -4.1505

          k = 0.3039-0.1013 0.3039 (  1605 PWs)   bands (ev):

    -4.7019

          k = 0.2026 0.0000 0.2026 (  1592 PWs)   bands (ev):

    -5.1099

          k = 0.0000 0.4051 0.0000 (  1607 PWs)   bands (ev):

    -4.7953

          k =-0.1013 0.5064-0.1013 (  1612 PWs)   bands (ev):

    -4.3895

          k =-0.2026 0.6077-0.2026 (  1619 PWs)   bands (ev):

    -3.8489

          k = 0.7090-0.3039 0.7090 (  1606 PWs)   bands (ev):

    -3.3675

          k = 0.6077-0.2026 0.6077 (  1596 PWs)   bands (ev):

    -3.2940

          k = 0.5064-0.1013 0.5064 (  1610 PWs)   bands (ev):

    -3.7000

          k = 0.4051 0.0000 0.4051 (  1610 PWs)   bands (ev):

    -4.2496

          k = 0.0000 0.6077 0.0000 (  1620 PWs)   bands (ev):

    -4.0501

          k =-0.1013 0.7090-0.1013 (  1625 PWs)   bands (ev):

    -3.5640

          k = 0.8103-0.2026 0.8103 (  1619 PWs)   bands (ev):

    -3.0882

          k = 0.7090-0.1013 0.7090 (  1621 PWs)   bands (ev):

    -2.9220

          k = 0.6077 0.0000 0.6077 (  1608 PWs)   bands (ev):

    -3.2077

          k = 0.0000 0.8103 0.0000 (  1624 PWs)   bands (ev):

    -3.1591

          k = 0.9116-0.1013 0.9116 (  1623 PWs)   bands (ev):

    -2.7869

          k = 0.8103 0.0000 0.8103 (  1622 PWs)   bands (ev):

    -2.6899

          k = 0.0000-1.0128 0.0000 (  1604 PWs)   bands (ev):

    -2.6408

          k =-0.2026 0.4051 0.0000 (  1613 PWs)   bands (ev):

    -4.6556

          k =-0.3039 0.5064-0.1013 (  1609 PWs)   bands (ev):

    -4.1457

          k = 0.6077-0.4051 0.8103 (  1618 PWs)   bands (ev):

    -3.6028

          k = 0.5064-0.3039 0.7090 (  1608 PWs)   bands (ev):

    -3.3383

          k =-0.2026 0.6077 0.0000 (  1617 PWs)   bands (ev):

    -3.9406

          k = 0.7090-0.3039 0.9116 (  1621 PWs)   bands (ev):

    -3.4134

          k = 0.6077-0.2026 0.8103 (  1613 PWs)   bands (ev):

    -3.0568

          k = 0.5064-0.1013 0.7090 (  1613 PWs)   bands (ev):

    -3.1662

          k = 0.4051 0.0000 0.6077 (  1607 PWs)   bands (ev):

    -3.6342

          k = 0.8103-0.2026 1.0128 (  1621 PWs)   bands (ev):

    -3.1071

          k = 0.7090-0.1013 0.9116 (  1625 PWs)   bands (ev):

    -2.7779

          k = 0.6077 0.0000 0.8103 (  1614 PWs)   bands (ev):

    -2.8132

          k =-0.2026-1.0128 0.0000 (  1624 PWs)   bands (ev):

    -2.6443

          k = 0.6077-0.2026 1.0128 (  1616 PWs)   bands (ev):

    -2.9732

          k = 0.5064-0.1013 0.9116 (  1608 PWs)   bands (ev):

    -2.7718

          k =-0.4051-1.0128 0.0000 (  1626 PWs)   bands (ev):

    -2.6488

     highest occupied level (ev):    -2.6408

!    total energy              =      -1.67494436 Ry
     estimated scf accuracy    <       0.00000056 Ry

     The total energy is the sum of the following terms:
     one-electron contribution =       0.08444439 Ry
     hartree contribution      =       0.35036585 Ry
     xc contribution           =      -0.98973007 Ry
     ewald contribution        =      -1.12002454 Ry

     convergence has been achieved in   7 iterations
     Writing meta-gga kinetic term

     Forces acting on atoms (cartesian axes, Ry/au):

     atom    1 type  1   force =     0.00000000    0.00000000    0.00000000
     atom    2 type  2   force =    -0.00000000    0.00000000   -0.00000000

     Total force =     0.000000     Total SCF correction =     0.000000


     Computing stress (Cartesian axis) and pressure

          total   stress  (Ry/bohr**3)                   (kbar)     P=      -75.75
  -0.00051496  -0.00000000  -0.00000000          -75.75       -0.00       -0.00
  -0.00000000  -0.00051496   0.00000000           -0.00      -75.75        0.00
  -0.00000000   0.00000000  -0.00051496           -0.00        0.00      -75.75

     Energy error            =      5.2E-03 Ry
     Gradient error          =      8.3E-33 Ry/Bohr
     Cell gradient error     =      7.6E+01 kbar

     number of scf cycles    =   2
     number of bfgs steps    =   1

     enthalpy           old  =      -1.6697547405 Ry
     enthalpy           new  =      -1.6749443629 Ry

     CASE: enthalpy          _new < enthalpy          _old


     WARNING: bfgs curvature condition failed, Theta= 0.808
     new trust radius        =       0.0621287914 bohr
     new conv_thr            =       0.0000000100 Ry

     new unit-cell volume =    245.36457 a.u.^3 (    36.35928 Ang^3 )
     density =      0.36303 g/cm^3

CELL_PARAMETERS (alat= 10.26310000)
  -0.484152366  -0.000000000   0.484152366
   0.000000000   0.484152366   0.484152366
  -0.484152366   0.484152366  -0.000000000

ATOMIC_POSITIONS (alat)
Li           -0.0000000000       -0.0000000000       -0.0000000000
H             0.4841523659        0.4841523659        0.4841523659



     Writing config-only to output data dir ./pwscf.save/
     NEW-OLD atomic charge density approx. for the potential
     extrapolated charge    1.88011, renormalised to    2.00000

     total cpu time spent up to now is       16.7 secs

     Self-consistent Calculation

     iteration #  1     ecut=    50.00 Ry     beta= 0.01
     Davidson diagonalization with overlap
     ethr =  1.00E-06,  avg # of iterations =  4.4

     total cpu time spent up to now is       17.3 secs

     total energy              =      -1.68122116 Ry
     estimated scf accuracy    <       0.00016970 Ry

     iteration #  2     ecut=    50.00 Ry     beta= 0.01
     Davidson diagonalization with overlap
     ethr =  8.48E-06,  avg # of iterations =  3.2

     total cpu time spent up to now is       17.9 secs

     total energy              =      -1.68198905 Ry
     estimated scf accuracy    <       0.00043953 Ry

     iteration #  3     ecut=    50.00 Ry     beta= 0.01
     Davidson diagonalization with overlap
     ethr =  8.48E-06,  avg # of iterations =  1.0

     total cpu time spent up to now is       18.2 secs

     total energy              =      -1.68205486 Ry
     estimated scf accuracy    <       0.00046011 Ry

     iteration #  4     ecut=    50.00 Ry     beta= 0.01
     Davidson diagonalization with overlap
     ethr =  8.48E-06,  avg # of iterations =  1.0

     total cpu time spent up to now is       18.5 secs

     total energy              =      -1.68250143 Ry
     estimated scf accuracy    <       0.00042205 Ry

     iteration #  5     ecut=    50.00 Ry     beta= 0.01
     Davidson diagonalization with overlap
     ethr =  8.48E-06,  avg # of iterations =  2.8

     total cpu time spent up to now is       19.0 secs

     total energy              =      -1.68262491 Ry
     estimated scf accuracy    <       0.00005620 Ry

     iteration #  6     ecut=    50.00 Ry     beta= 0.01
     Davidson diagonalization with overlap
     ethr =  2.81E-06,  avg # of iterations =  1.0

     total cpu time spent up to now is       19.3 secs

     total energy              =      -1.68263882 Ry
     estimated scf accuracy    <       0.00002242 Ry

     iteration #  7     ecut=    50.00 Ry     beta= 0.01
     Davidson diagonalization with overlap
     ethr =  1.12E-06,  avg # of iterations =  1.0

     total cpu time spent up to now is       19.6 secs

     total energy              =      -1.68264018 Ry
     estimated scf accuracy    <       0.00000516 Ry

     iteration #  8     ecut=    50.00 Ry     beta= 0.01
     Davidson diagonalization with overlap
     ethr =  2.58E-07,  avg # of iterations =  2.0

     total cpu time spent up to now is       20.0 secs

     total energy              =      -1.68264193 Ry
     estimated scf accuracy    <       0.00000054 Ry

     iteration #  9     ecut=    50.00 Ry     beta= 0.01
     Davidson diagonalization with overlap
     ethr =  2.70E-08,  avg # of iterations =  1.2

     total cpu time spent up to now is       20.3 secs

     total energy              =      -1.68264187 Ry
     estimated scf accuracy    <       0.00000064 Ry

     iteration # 10     ecut=    50.00 Ry     beta= 0.01
     Davidson diagonalization with overlap
     ethr =  2.70E-08,  avg # of iterations =  2.0

     total cpu time spent up to now is       20.7 secs

     total energy              =      -1.68264206 Ry
     estimated scf accuracy    <       0.00000012 Ry

     iteration # 11     ecut=    50.00 Ry     beta= 0.01
     Davidson diagonalization with overlap
     ethr =  5.89E-09,  avg # of iterations =  1.5

     total cpu time spent up to now is       21.1 secs

     total energy              =      -1.68264207 Ry
     estimated scf accuracy    <       0.00000002 Ry

     iteration # 12     ecut=    50.00 Ry     beta= 0.01
     Davidson diagonalization with overlap
     ethr =  1.11E-09,  avg # of iterations =  1.0

     total cpu time spent up to now is       21.4 secs

     total energy              =      -1.68264207 Ry
     estimated scf accuracy    <       0.00000002 Ry

     iteration # 13     ecut=    50.00 Ry     beta= 0.01
     Davidson diagonalization with overlap
     ethr =  1.04E-09,  avg # of iterations =  1.0

     total cpu time spent up to now is       21.7 secs

     total energy              =      -1.68264207 Ry
     estimated scf accuracy    <       0.00000002 Ry

     iteration # 14     ecut=    50.00 Ry     beta= 0.01
     Davidson diagonalization with overlap
     ethr =  1.04E-09,  avg # of iterations =  1.0

     total cpu time spent up to now is       22.0 secs

     total energy              =      -1.68264206 Ry
     estimated scf accuracy    <       0.00000001 Ry

     iteration # 15     ecut=    50.00 Ry     beta= 0.01
     Davidson diagonalization with overlap
     ethr =  6.84E-10,  avg # of iterations =  1.0

     total cpu time spent up to now is       22.3 secs

     End of self-consistent calculation

          k = 0.0000 0.0000 0.0000 (  1639 PWs)   bands (ev):

    -5.4782

          k =-0.1033 0.1033-0.1033 (  1606 PWs)   bands (ev):

    -5.3541

          k =-0.2065 0.2065-0.2065 (  1606 PWs)   bands (ev):

    -4.9964

          k =-0.3098 0.3098-0.3098 (  1615 PWs)   bands (ev):

    -4.4549

          k =-0.4131 0.4131-0.4131 (  1616 PWs)   bands (ev):

    -3.8730

          k = 0.5164-0.5164 0.5164 (  1622 PWs)   bands (ev):

    -3.5873

          k = 0.0000 0.2065 0.0000 (  1599 PWs)   bands (ev):

    -5.3121

          k =-0.1033 0.3098-0.1033 (  1609 PWs)   bands (ev):

    -5.0300

          k =-0.2065 0.4131-0.2065 (  1607 PWs)   bands (ev):

    -4.5418

          k =-0.3098 0.5164-0.3098 (  1610 PWs)   bands (ev):

    -3.9502

          k = 0.6196-0.4131 0.6196 (  1609 PWs)   bands (ev):

    -3.5217

          k = 0.5164-0.3098 0.5164 (  1616 PWs)   bands (ev):

    -3.6236

          k = 0.4131-0.2065 0.4131 (  1621 PWs)   bands (ev):

    -4.1517

          k = 0.3098-0.1033 0.3098 (  1605 PWs)   bands (ev):

    -4.7266

          k = 0.2065 0.0000 0.2065 (  1592 PWs)   bands (ev):

    -5.1512

          k = 0.0000 0.4131 0.0000 (  1607 PWs)   bands (ev):

    -4.8234

          k =-0.1033 0.5164-0.1033 (  1612 PWs)   bands (ev):

    -4.4000

          k =-0.2065 0.6196-0.2065 (  1619 PWs)   bands (ev):

    -3.8345

          k = 0.7229-0.3098 0.7229 (  1606 PWs)   bands (ev):

    -3.3290

          k = 0.6196-0.2065 0.6196 (  1596 PWs)   bands (ev):

    -3.2520

          k = 0.5164-0.1033 0.5164 (  1610 PWs)   bands (ev):

    -3.6793

          k = 0.4131 0.0000 0.4131 (  1610 PWs)   bands (ev):

    -4.2547

          k = 0.0000 0.6196 0.0000 (  1620 PWs)   bands (ev):

    -4.0441

          k =-0.1033 0.7229-0.1033 (  1625 PWs)   bands (ev):

    -3.5333

          k = 0.8262-0.2065 0.8262 (  1619 PWs)   bands (ev):

    -3.0305

          k = 0.7229-0.1033 0.7229 (  1621 PWs)   bands (ev):

    -2.8548

          k = 0.6196 0.0000 0.6196 (  1608 PWs)   bands (ev):

    -3.1596

          k = 0.0000 0.8262 0.0000 (  1624 PWs)   bands (ev):

    -3.1037

          k = 0.9295-0.1033 0.9295 (  1623 PWs)   bands (ev):

    -2.7060

          k = 0.8262 0.0000 0.8262 (  1622 PWs)   bands (ev):

    -2.6033

          k = 0.0000-1.0327 0.0000 (  1604 PWs)   bands (ev):

    -2.5472

          k =-0.2065 0.4131 0.0000 (  1613 PWs)   bands (ev):

    -4.6780

          k =-0.3098 0.5164-0.1033 (  1609 PWs)   bands (ev):

    -4.1459

          k = 0.6196-0.4131 0.8262 (  1618 PWs)   bands (ev):

    -3.5773

          k = 0.5164-0.3098 0.7229 (  1608 PWs)   bands (ev):

    -3.2992

          k =-0.2065 0.6196 0.0000 (  1617 PWs)   bands (ev):

    -3.9300

          k = 0.7229-0.3098 0.9295 (  1621 PWs)   bands (ev):

    -3.3758

          k = 0.6196-0.2065 0.8262 (  1613 PWs)   bands (ev):

    -2.9989

          k = 0.5164-0.1033 0.7229 (  1613 PWs)   bands (ev):

    -3.1154

          k = 0.4131 0.0000 0.6196 (  1607 PWs)   bands (ev):

    -3.6094

          k = 0.8262-0.2065 1.0327 (  1621 PWs)   bands (ev):

    -3.0495

          k = 0.7229-0.1033 0.9295 (  1625 PWs)   bands (ev):

    -2.6987

          k = 0.6196 0.0000 0.8262 (  1614 PWs)   bands (ev):

    -2.7381

          k =-0.2065-1.0327 0.0000 (  1624 PWs)   bands (ev):

    -2.5527

          k = 0.6196-0.2065 1.0327 (  1616 PWs)   bands (ev):

    -2.9089

          k = 0.5164-0.1033 0.9295 (  1608 PWs)   bands (ev):

    -2.6936

          k =-0.4131-1.0327 0.0000 (  1626 PWs)   bands (ev):

    -2.5603

     highest occupied level (ev):    -2.5472

!    total energy              =      -1.68264206 Ry
     estimated scf accuracy    <          1.1E-09 Ry

     The total energy is the sum of the following terms:
     one-electron contribution =       0.11476894 Ry
     hartree contribution      =       0.34290515 Ry
     xc contribution           =      -0.99829473 Ry
     ewald contribution        =      -1.14202142 Ry

     convergence has been achieved in  15 iterations
     Writing meta-gga kinetic term

     Forces acting on atoms (cartesian axes, Ry/au):

     atom    1 type  1   force =    -0.00000000   -0.00000000   -0.00000000
     atom    2 type  2   force =     0.00000000    0.00000000    0.00000000

     Total force =     0.000000     Total SCF correction =     0.000000


     Computing stress (Cartesian axis) and pressure

          total   stress  (Ry/bohr**3)                   (kbar)     P=      -77.68
  -0.00052806  -0.00000000  -0.00000000          -77.68       -0.00       -0.00
  -0.00000000  -0.00052806   0.00000000           -0.00      -77.68        0.00
  -0.00000000   0.00000000  -0.00052806           -0.00        0.00      -77.68

     Energy error            =      7.7E-03 Ry
     Gradient error          =      1.7E-32 Ry/Bohr
     Cell gradient error     =      7.8E+01 kbar

     number of scf cycles    =   3
     number of bfgs steps    =   2

     enthalpy           old  =      -1.6749443629 Ry
     enthalpy           new  =      -1.6826420641 Ry

     CASE: enthalpy          _new < enthalpy          _old

     new trust radius        =       0.0922913095 bohr
     new conv_thr            =       0.0000000100 Ry

     new unit-cell volume =    224.31220 a.u.^3 (    33.23964 Ang^3 )
     density =      0.39710 g/cm^3

CELL_PARAMETERS (alat= 10.26310000)
  -0.469889495  -0.000000000   0.469889495
   0.000000000   0.469889495   0.469889495
  -0.469889495   0.469889495  -0.000000000

ATOMIC_POSITIONS (alat)
Li           -0.0000000000       -0.0000000000       -0.0000000000
H             0.4698894952        0.4698894952        0.4698894952



     Writing config-only to output data dir ./pwscf.save/
     NEW-OLD atomic charge density approx. for the potential
     extrapolated charge    1.81273, renormalised to    2.00000

     total cpu time spent up to now is       23.3 secs

     Self-consistent Calculation

     iteration #  1     ecut=    50.00 Ry     beta= 0.01
     Davidson diagonalization with overlap
     ethr =  1.00E-06,  avg # of iterations =  4.9

     total cpu time spent up to now is       24.0 secs

     total energy              =      -1.69088748 Ry
     estimated scf accuracy    <       0.00041917 Ry

     iteration #  2     ecut=    50.00 Ry     beta= 0.01
     Davidson diagonalization with overlap
     ethr =  2.10E-05,  avg # of iterations =  3.2

     total cpu time spent up to now is       24.5 secs

     total energy              =      -1.69266894 Ry
     estimated scf accuracy    <       0.00094677 Ry

     iteration #  3     ecut=    50.00 Ry     beta= 0.01
     Davidson diagonalization with overlap
     ethr =  2.10E-05,  avg # of iterations =  1.0

     total cpu time spent up to now is       24.9 secs

     total energy              =      -1.69289072 Ry
     estimated scf accuracy    <       0.00098885 Ry

     iteration #  4     ecut=    50.00 Ry     beta= 0.01
     Davidson diagonalization with overlap
     ethr =  2.10E-05,  avg # of iterations =  1.0

     total cpu time spent up to now is       25.2 secs

     total energy              =      -1.69365412 Ry
     estimated scf accuracy    <       0.00086496 Ry

     iteration #  5     ecut=    50.00 Ry     beta= 0.01
     Davidson diagonalization with overlap
     ethr =  2.10E-05,  avg # of iterations =  2.5

     total cpu time spent up to now is       25.6 secs

     total energy              =      -1.69387658 Ry
     estimated scf accuracy    <       0.00007736 Ry

     iteration #  6     ecut=    50.00 Ry     beta= 0.01
     Davidson diagonalization with overlap
     ethr =  3.87E-06,  avg # of iterations =  1.0

     total cpu time spent up to now is       25.9 secs

     total energy              =      -1.69389137 Ry
     estimated scf accuracy    <       0.00003501 Ry

     iteration #  7     ecut=    50.00 Ry     beta= 0.01
     Davidson diagonalization with overlap
     ethr =  1.75E-06,  avg # of iterations =  1.0

     total cpu time spent up to now is       26.2 secs

     total energy              =      -1.69390673 Ry
     estimated scf accuracy    <       0.00002518 Ry

     iteration #  8     ecut=    50.00 Ry     beta= 0.01
     Davidson diagonalization with overlap
     ethr =  1.26E-06,  avg # of iterations =  1.9

     total cpu time spent up to now is       26.6 secs

     total energy              =      -1.69391128 Ry
     estimated scf accuracy    <       0.00000053 Ry

     iteration #  9     ecut=    50.00 Ry     beta= 0.01
     Davidson diagonalization with overlap
     ethr =  2.64E-08,  avg # of iterations =  2.4

     total cpu time spent up to now is       27.1 secs

     total energy              =      -1.69391168 Ry
     estimated scf accuracy    <       0.00000069 Ry

     iteration # 10     ecut=    50.00 Ry     beta= 0.01
     Davidson diagonalization with overlap
     ethr =  2.64E-08,  avg # of iterations =  1.0

     total cpu time spent up to now is       27.4 secs

     total energy              =      -1.69391195 Ry
     estimated scf accuracy    <       0.00000050 Ry

     iteration # 11     ecut=    50.00 Ry     beta= 0.01
     Davidson diagonalization with overlap
     ethr =  2.52E-08,  avg # of iterations =  2.0

     total cpu time spent up to now is       27.8 secs

     total energy              =      -1.69391204 Ry
     estimated scf accuracy    <       0.00000002 Ry

     iteration # 12     ecut=    50.00 Ry     beta= 0.01
     Davidson diagonalization with overlap
     ethr =  9.10E-10,  avg # of iterations =  1.2

     total cpu time spent up to now is       28.1 secs

     total energy              =      -1.69391205 Ry
     estimated scf accuracy    <       0.00000002 Ry

     iteration # 13     ecut=    50.00 Ry     beta= 0.01
     Davidson diagonalization with overlap
     ethr =  9.10E-10,  avg # of iterations =  1.0

     total cpu time spent up to now is       28.4 secs

     total energy              =      -1.69391207 Ry
     estimated scf accuracy    <       0.00000002 Ry

     iteration # 14     ecut=    50.00 Ry     beta= 0.01
     Davidson diagonalization with overlap
     ethr =  9.10E-10,  avg # of iterations =  1.8

     total cpu time spent up to now is       28.8 secs

     total energy              =      -1.69391207 Ry
     estimated scf accuracy    <       0.00000007 Ry

     iteration # 15     ecut=    50.00 Ry     beta= 0.01
     Davidson diagonalization with overlap
     ethr =  9.10E-10,  avg # of iterations =  1.0

     total cpu time spent up to now is       29.1 secs

     total energy              =      -1.69391207 Ry
     estimated scf accuracy    <       0.00000008 Ry

     iteration # 16     ecut=    50.00 Ry     beta= 0.01
     Davidson diagonalization with overlap
     ethr =  9.10E-10,  avg # of iterations =  1.0

     total cpu time spent up to now is       29.5 secs

     total energy              =      -1.69391205 Ry
     estimated scf accuracy    <       0.00000007 Ry

     iteration # 17     ecut=    50.00 Ry     beta= 0.01
     Davidson diagonalization with overlap
     ethr =  9.10E-10,  avg # of iterations =  1.0

     total cpu time spent up to now is       29.8 secs

     total energy              =      -1.69391206 Ry
     estimated scf accuracy    <       0.00000002 Ry

     iteration # 18     ecut=    50.00 Ry     beta= 0.01
     Davidson diagonalization with overlap
     ethr =  8.68E-10,  avg # of iterations =  2.1

     total cpu time spent up to now is       30.2 secs

     total energy              =      -1.69391204 Ry
     estimated scf accuracy    <       0.00000008 Ry

     iteration # 19     ecut=    50.00 Ry     beta= 0.01
     Davidson diagonalization with overlap
     ethr =  8.68E-10,  avg # of iterations =  2.0

     total cpu time spent up to now is       30.6 secs

     End of self-consistent calculation

          k = 0.0000 0.0000 0.0000 (  1639 PWs)   bands (ev):

    -5.5562

          k =-0.1064 0.1064-0.1064 (  1606 PWs)   bands (ev):

    -5.4248

          k =-0.2128 0.2128-0.2128 (  1606 PWs)   bands (ev):

    -5.0456

          k =-0.3192 0.3192-0.3192 (  1615 PWs)   bands (ev):

    -4.4706

          k =-0.4256 0.4256-0.4256 (  1616 PWs)   bands (ev):

    -3.8510

          k = 0.5320-0.5320 0.5320 (  1622 PWs)   bands (ev):

    -3.5457

          k = 0.0000 0.2128 0.0000 (  1599 PWs)   bands (ev):

    -5.3803

          k =-0.1064 0.3192-0.1064 (  1609 PWs)   bands (ev):

    -5.0809

          k =-0.2128 0.4256-0.2128 (  1607 PWs)   bands (ev):

    -4.5622

          k =-0.3192 0.5320-0.3192 (  1610 PWs)   bands (ev):

    -3.9320

          k = 0.6384-0.4256 0.6384 (  1609 PWs)   bands (ev):

    -3.4736

          k = 0.5320-0.3192 0.5320 (  1616 PWs)   bands (ev):

    -3.5828

          k = 0.4256-0.2128 0.4256 (  1621 PWs)   bands (ev):

    -4.1470

          k = 0.3192-0.1064 0.3192 (  1605 PWs)   bands (ev):

    -4.7589

          k = 0.2128 0.0000 0.2128 (  1592 PWs)   bands (ev):

    -5.2097

          k = 0.0000 0.4256 0.0000 (  1607 PWs)   bands (ev):

    -4.8609

          k =-0.1064 0.5320-0.1064 (  1612 PWs)   bands (ev):

    -4.4096

          k =-0.2128 0.6384-0.2128 (  1619 PWs)   bands (ev):

    -3.8049

          k = 0.7449-0.3192 0.7449 (  1606 PWs)   bands (ev):

    -3.2614

          k = 0.6384-0.2128 0.6384 (  1596 PWs)   bands (ev):

    -3.1788

          k = 0.5320-0.1064 0.5320 (  1610 PWs)   bands (ev):

    -3.6398

          k = 0.4256 0.0000 0.4256 (  1610 PWs)   bands (ev):

    -4.2560

          k = 0.0000 0.6384 0.0000 (  1620 PWs)   bands (ev):

    -4.0277

          k =-0.1064 0.7449-0.1064 (  1625 PWs)   bands (ev):

    -3.4773

          k = 0.8513-0.2128 0.8513 (  1619 PWs)   bands (ev):

    -2.9312

          k = 0.7449-0.1064 0.7449 (  1621 PWs)   bands (ev):

    -2.7403

          k = 0.6384-0.0000 0.6384 (  1608 PWs)   bands (ev):

    -3.0762

          k = 0.0000 0.8513 0.0000 (  1624 PWs)   bands (ev):

    -3.0077

          k = 0.9577-0.1064 0.9577 (  1623 PWs)   bands (ev):

    -2.5681

          k = 0.8513-0.0000 0.8513 (  1622 PWs)   bands (ev):

    -2.4564

          k = 0.0000-1.0641 0.0000 (  1604 PWs)   bands (ev):

    -2.3877

          k =-0.2128 0.4256 0.0000 (  1613 PWs)   bands (ev):

    -4.7066

          k =-0.3192 0.5320-0.1064 (  1609 PWs)   bands (ev):

    -4.1394

          k = 0.6384-0.4256 0.8513 (  1618 PWs)   bands (ev):

    -3.5304

          k = 0.5320-0.3192 0.7449 (  1608 PWs)   bands (ev):

    -3.2309

          k =-0.2128 0.6384 0.0000 (  1617 PWs)   bands (ev):

    -3.9063

          k = 0.7449-0.3192 0.9577 (  1621 PWs)   bands (ev):

    -3.3092

          k = 0.6384-0.2128 0.8513 (  1613 PWs)   bands (ev):

    -2.8998

          k = 0.5320-0.1064 0.7449 (  1613 PWs)   bands (ev):

    -3.0279

          k = 0.4256-0.0000 0.6384 (  1607 PWs)   bands (ev):

    -3.5634

          k = 0.8513-0.2128 1.0641 (  1621 PWs)   bands (ev):

    -2.9502

          k = 0.7449-0.1064 0.9577 (  1625 PWs)   bands (ev):

    -2.5640

          k = 0.6384-0.0000 0.8513 (  1614 PWs)   bands (ev):

    -2.6106

          k =-0.2128-1.0641 0.0000 (  1624 PWs)   bands (ev):

    -2.3968

          k = 0.6384-0.2128 1.0641 (  1616 PWs)   bands (ev):

    -2.7991

          k = 0.5320-0.1064 0.9577 (  1608 PWs)   bands (ev):

    -2.5611

          k =-0.4256-1.0641 0.0000 (  1626 PWs)   bands (ev):

    -2.4104

     highest occupied level (ev):    -2.3877

!    total energy              =      -1.69391205 Ry
     estimated scf accuracy    <          2.7E-11 Ry

     The total energy is the sum of the following terms:
     one-electron contribution =       0.16285988 Ry
     hartree contribution      =       0.33244504 Ry
     xc contribution           =      -1.01253100 Ry
     ewald contribution        =      -1.17668596 Ry

     convergence has been achieved in  19 iterations
     Writing meta-gga kinetic term

     Forces acting on atoms (cartesian axes, Ry/au):

     atom    1 type  1   force =     0.00000000    0.00000000    0.00000000
     atom    2 type  2   force =     0.00000000    0.00000000    0.00000000

     Total force =     0.000000     Total SCF correction =     0.000000


     Computing stress (Cartesian axis) and pressure

          total   stress  (Ry/bohr**3)                   (kbar)     P=      -79.67
  -0.00054157  -0.00000000   0.00000000          -79.67       -0.00        0.00
  -0.00000000  -0.00054157  -0.00000000           -0.00      -79.67       -0.00
   0.00000000  -0.00000000  -0.00054157            0.00       -0.00      -79.67

     Energy error            =      1.1E-02 Ry
     Gradient error          =      0.0E+00 Ry/Bohr
     Cell gradient error     =      8.0E+01 kbar

     number of scf cycles    =   4
     number of bfgs steps    =   3

     enthalpy           old  =      -1.6826420641 Ry
     enthalpy           new  =      -1.6939120513 Ry

     CASE: enthalpy          _new < enthalpy          _old

     new trust radius        =       0.1363825813 bohr
     new conv_thr            =       0.0000000100 Ry

     new unit-cell volume =    195.04690 a.u.^3 (    28.90297 Ang^3 )
     density =      0.45669 g/cm^3

CELL_PARAMETERS (alat= 10.26310000)
  -0.448495189  -0.000000000   0.448495189
   0.000000000   0.448495189   0.448495189
  -0.448495189   0.448495189  -0.000000000

ATOMIC_POSITIONS (alat)
Li           -0.0000000000       -0.0000000000       -0.0000000000
H             0.4484951892        0.4484951892        0.4484951892



     Writing config-only to output data dir ./pwscf.save/
     NEW-OLD atomic charge density approx. for the potential
     extrapolated charge    1.70062, renormalised to    2.00000

     total cpu time spent up to now is       31.6 secs

     Self-consistent Calculation

     iteration #  1     ecut=    50.00 Ry     beta= 0.01
     Davidson diagonalization with overlap
     ethr =  1.00E-06,  avg # of iterations =  5.5

     total cpu time spent up to now is       32.3 secs

     total energy              =      -1.70321646 Ry
     estimated scf accuracy    <       0.00097280 Ry

     iteration #  2     ecut=    50.00 Ry     beta= 0.01
     Davidson diagonalization with overlap
     ethr =  4.86E-05,  avg # of iterations =  3.1

     total cpu time spent up to now is       32.9 secs

     total energy              =      -1.70739849 Ry
     estimated scf accuracy    <       0.00224420 Ry

     iteration #  3     ecut=    50.00 Ry     beta= 0.01
     Davidson diagonalization with overlap
     ethr =  4.86E-05,  avg # of iterations =  1.0

     total cpu time spent up to now is       33.2 secs

     total energy              =      -1.70782289 Ry
     estimated scf accuracy    <       0.00232443 Ry

     iteration #  4     ecut=    50.00 Ry     beta= 0.01
     Davidson diagonalization with overlap
     ethr =  4.86E-05,  avg # of iterations =  1.0

     total cpu time spent up to now is       33.5 secs

     total energy              =      -1.70935395 Ry
     estimated scf accuracy    <       0.00199132 Ry

     iteration #  5     ecut=    50.00 Ry     beta= 0.01
     Davidson diagonalization with overlap
     ethr =  4.86E-05,  avg # of iterations =  2.1

     total cpu time spent up to now is       33.9 secs

     total energy              =      -1.70977895 Ry
     estimated scf accuracy    <       0.00010809 Ry

     iteration #  6     ecut=    50.00 Ry     beta= 0.01
     Davidson diagonalization with overlap
     ethr =  5.40E-06,  avg # of iterations =  1.3

     total cpu time spent up to now is       34.2 secs

     total energy              =      -1.70982408 Ry
     estimated scf accuracy    <       0.00006488 Ry

     iteration #  7     ecut=    50.00 Ry     beta= 0.01
     Davidson diagonalization with overlap
     ethr =  3.24E-06,  avg # of iterations =  1.0

     total cpu time spent up to now is       34.5 secs

     total energy              =      -1.70985636 Ry
     estimated scf accuracy    <       0.00004337 Ry

     iteration #  8     ecut=    50.00 Ry     beta= 0.01
     Davidson diagonalization with overlap
     ethr =  2.17E-06,  avg # of iterations =  1.7

     total cpu time spent up to now is       34.9 secs

     total energy              =      -1.70986239 Ry
     estimated scf accuracy    <       0.00000170 Ry

     iteration #  9     ecut=    50.00 Ry     beta= 0.01
     Davidson diagonalization with overlap
     ethr =  8.51E-08,  avg # of iterations =  1.8

     total cpu time spent up to now is       35.3 secs

     total energy              =      -1.70986346 Ry
     estimated scf accuracy    <       0.00000148 Ry

     iteration # 10     ecut=    50.00 Ry     beta= 0.01
     Davidson diagonalization with overlap
     ethr =  7.38E-08,  avg # of iterations =  1.0

     total cpu time spent up to now is       35.6 secs

     total energy              =      -1.70986418 Ry
     estimated scf accuracy    <       0.00000065 Ry

     iteration # 11     ecut=    50.00 Ry     beta= 0.01
     Davidson diagonalization with overlap
     ethr =  3.26E-08,  avg # of iterations =  1.9

     total cpu time spent up to now is       36.0 secs

     total energy              =      -1.70986430 Ry
     estimated scf accuracy    <       0.00000064 Ry

     iteration # 12     ecut=    50.00 Ry     beta= 0.01
     Davidson diagonalization with overlap
     ethr =  3.22E-08,  avg # of iterations =  1.0

     total cpu time spent up to now is       36.3 secs

     total energy              =      -1.70986431 Ry
     estimated scf accuracy    <       0.00000069 Ry

     iteration # 13     ecut=    50.00 Ry     beta= 0.01
     Davidson diagonalization with overlap
     ethr =  3.22E-08,  avg # of iterations =  1.0

     total cpu time spent up to now is       36.7 secs

     total energy              =      -1.70986405 Ry
     estimated scf accuracy    <       0.00000074 Ry

     iteration # 14     ecut=    50.00 Ry     beta= 0.01
     Davidson diagonalization with overlap
     ethr =  3.22E-08,  avg # of iterations =  1.0

     total cpu time spent up to now is       36.9 secs

     End of self-consistent calculation

          k = 0.0000 0.0000 0.0000 (  1639 PWs)   bands (ev):

    -5.6634

          k =-0.1115 0.1115-0.1115 (  1606 PWs)   bands (ev):

    -5.5203

          k =-0.2230 0.2230-0.2230 (  1606 PWs)   bands (ev):

    -5.1063

          k =-0.3345 0.3345-0.3345 (  1615 PWs)   bands (ev):

    -4.4774

          k =-0.4459 0.4459-0.4459 (  1616 PWs)   bands (ev):

    -3.7973

          k = 0.5574-0.5574 0.5574 (  1622 PWs)   bands (ev):

    -3.4608

          k = 0.0000 0.2230 0.0000 (  1599 PWs)   bands (ev):

    -5.4715

          k =-0.1115 0.3345-0.1115 (  1609 PWs)   bands (ev):

    -5.1444

          k =-0.2230 0.4459-0.2230 (  1607 PWs)   bands (ev):

    -4.5764

          k =-0.3345 0.5574-0.3345 (  1610 PWs)   bands (ev):

    -3.8837

          k = 0.6689-0.4459 0.6689 (  1609 PWs)   bands (ev):

    -3.3772

          k = 0.5574-0.3345 0.5574 (  1616 PWs)   bands (ev):

    -3.4984

          k = 0.4459-0.2230 0.4459 (  1621 PWs)   bands (ev):

    -4.1208

          k = 0.3345-0.1115 0.3345 (  1605 PWs)   bands (ev):

    -4.7923

          k = 0.2230 0.0000 0.2230 (  1592 PWs)   bands (ev):

    -5.2855

          k = 0.0000 0.4459 0.0000 (  1607 PWs)   bands (ev):

    -4.9025

          k =-0.1115 0.5574-0.1115 (  1612 PWs)   bands (ev):

    -4.4057

          k =-0.2230 0.6689-0.2230 (  1619 PWs)   bands (ev):

    -3.7369

          k = 0.7804-0.3345 0.7804 (  1606 PWs)   bands (ev):

    -3.1310

          k = 0.6689-0.2230 0.6689 (  1596 PWs)   bands (ev):

    -3.0395

          k = 0.5574-0.1115 0.5574 (  1610 PWs)   bands (ev):

    -3.5562

          k = 0.4459 0.0000 0.4459 (  1610 PWs)   bands (ev):

    -4.2390

          k = 0.0000 0.6689 0.0000 (  1620 PWs)   bands (ev):

    -3.9805

          k =-0.1115 0.7804-0.1115 (  1625 PWs)   bands (ev):

    -3.3644

          k = 0.8919-0.2230 0.8919 (  1619 PWs)   bands (ev):

    -2.7456

          k = 0.7804-0.1115 0.7804 (  1621 PWs)   bands (ev):

    -2.5292

          k = 0.6689 0.0000 0.6689 (  1608 PWs)   bands (ev):

    -2.9187

          k = 0.0000 0.8919 0.0000 (  1624 PWs)   bands (ev):

    -2.8267

          k = 1.0034-0.1115 1.0034 (  1623 PWs)   bands (ev):

    -2.3140

          k = 0.8919-0.0000 0.8919 (  1622 PWs)   bands (ev):

    -2.1867

          k = 0.0000-1.1148 0.0000 (  1604 PWs)   bands (ev):

    -2.0938

          k =-0.2230 0.4459 0.0000 (  1613 PWs)   bands (ev):

    -4.7339

          k =-0.3345 0.5574-0.1115 (  1609 PWs)   bands (ev):

    -4.1097

          k = 0.6689-0.4459 0.8919 (  1618 PWs)   bands (ev):

    -3.4348

          k = 0.5574-0.3345 0.7804 (  1608 PWs)   bands (ev):

    -3.1002

          k =-0.2230 0.6689 0.0000 (  1617 PWs)   bands (ev):

    -3.8475

          k = 0.7804-0.3345 1.0034 (  1621 PWs)   bands (ev):

    -3.1793

          k = 0.6689-0.2230 0.8919 (  1613 PWs)   bands (ev):

    -2.7156

          k = 0.5574-0.1115 0.7804 (  1613 PWs)   bands (ev):

    -2.8634

          k = 0.4459-0.0000 0.6689 (  1607 PWs)   bands (ev):

    -3.4683

          k = 0.8919-0.2230 1.1148 (  1621 PWs)   bands (ev):

    -2.7640

          k = 0.7804-0.1115 1.0034 (  1625 PWs)   bands (ev):

    -2.3166

          k = 0.6689 0.0000 0.8919 (  1614 PWs)   bands (ev):

    -2.3764

          k =-0.2230-1.1148 0.0000 (  1624 PWs)   bands (ev):

    -2.1103

          k = 0.6689-0.2230 1.1148 (  1616 PWs)   bands (ev):

    -2.5956

          k = 0.5574-0.1115 1.0034 (  1608 PWs)   bands (ev):

    -2.3180

          k =-0.4459-1.1148 0.0000 (  1626 PWs)   bands (ev):

    -2.1357

     highest occupied level (ev):    -2.0938

!    total energy              =      -1.70986411 Ry
     estimated scf accuracy    <          3.9E-09 Ry

     The total energy is the sum of the following terms:
     one-electron contribution =       0.24231439 Ry
     hartree contribution      =       0.31671670 Ry
     xc contribution           =      -1.03607847 Ry
     ewald contribution        =      -1.23281673 Ry

     convergence has been achieved in  14 iterations
     Writing meta-gga kinetic term

     Forces acting on atoms (cartesian axes, Ry/au):

     atom    1 type  1   force =     0.00000000    0.00000000    0.00000000
     atom    2 type  2   force =     0.00000000    0.00000000    0.00000000

     Total force =     0.000000     Total SCF correction =     0.000000


     Computing stress (Cartesian axis) and pressure

          total   stress  (Ry/bohr**3)                   (kbar)     P=      -80.10
  -0.00054448   0.00000000   0.00000000          -80.10        0.00        0.00
   0.00000000  -0.00054448  -0.00000000            0.00      -80.10       -0.00
   0.00000000  -0.00000000  -0.00054448            0.00       -0.00      -80.10

     Energy error            =      1.6E-02 Ry
     Gradient error          =      5.5E-32 Ry/Bohr
     Cell gradient error     =      8.0E+01 kbar

     number of scf cycles    =   5
     number of bfgs steps    =   4

     enthalpy           old  =      -1.6939120513 Ry
     enthalpy           new  =      -1.7098641102 Ry

     CASE: enthalpy          _new < enthalpy          _old

     new trust radius        =       0.1998624429 bohr
     new conv_thr            =       0.0000000100 Ry

     new unit-cell volume =    156.10238 a.u.^3 (    23.13199 Ang^3 )
     density =      0.57062 g/cm^3

CELL_PARAMETERS (alat= 10.26310000)
  -0.416403730  -0.000000000   0.416403730
   0.000000000   0.416403730   0.416403730
  -0.416403730   0.416403730  -0.000000000

ATOMIC_POSITIONS (alat)
Li           -0.0000000000       -0.0000000000       -0.0000000000
H             0.4164037302        0.4164037302        0.4164037302



     Writing config-only to output data dir ./pwscf.save/
     NEW-OLD atomic charge density approx. for the potential

     negative rho (up,down):  8.791E-06 0.000E+00
     extrapolated charge    1.50221, renormalised to    2.00000

     total cpu time spent up to now is       38.0 secs

     Self-consistent Calculation

     iteration #  1     ecut=    50.00 Ry     beta= 0.01
     Davidson diagonalization with overlap
     ethr =  1.00E-06,  avg # of iterations = 11.3

     negative rho (up,down):  1.141E-05 0.000E+00

     total cpu time spent up to now is       39.3 secs

     total energy              =      -1.71180791 Ry
     estimated scf accuracy    <       0.00233408 Ry

     iteration #  2     ecut=    50.00 Ry     beta= 0.01
     Davidson diagonalization with overlap
     ethr =  1.17E-04,  avg # of iterations =  3.9

     negative rho (up,down):  1.134E-05 0.000E+00

     total cpu time spent up to now is       40.0 secs

     total energy              =      -1.72284589 Ry
     estimated scf accuracy    <       0.00471686 Ry

     iteration #  3     ecut=    50.00 Ry     beta= 0.01
     Davidson diagonalization with overlap
     ethr =  1.17E-04,  avg # of iterations =  1.0

     negative rho (up,down):  1.329E-05 0.000E+00

     total cpu time spent up to now is       40.3 secs

     total energy              =      -1.72339348 Ry
     estimated scf accuracy    <       0.00495193 Ry

     iteration #  4     ecut=    50.00 Ry     beta= 0.01
     Davidson diagonalization with overlap
     ethr =  1.17E-04,  avg # of iterations =  1.3

     negative rho (up,down):  2.540E-06 0.000E+00

     total cpu time spent up to now is       40.6 secs

     total energy              =      -1.72918900 Ry
     estimated scf accuracy    <       0.00569454 Ry

     iteration #  5     ecut=    50.00 Ry     beta= 0.01
     Davidson diagonalization with overlap
     ethr =  1.17E-04,  avg # of iterations =  2.0

     negative rho (up,down):  2.007E-06 0.000E+00

     total cpu time spent up to now is       41.0 secs

     total energy              =      -1.72934620 Ry
     estimated scf accuracy    <       0.00007395 Ry

     iteration #  6     ecut=    50.00 Ry     beta= 0.01
     Davidson diagonalization with overlap
     ethr =  3.70E-06,  avg # of iterations =  3.1

     negative rho (up,down):  3.778E-06 0.000E+00

     total cpu time spent up to now is       41.5 secs

     total energy              =      -1.73017574 Ry
     estimated scf accuracy    <       0.00005559 Ry

     iteration #  7     ecut=    50.00 Ry     beta= 0.01
     Davidson diagonalization with overlap
     ethr =  2.78E-06,  avg # of iterations =  2.0

     total cpu time spent up to now is       41.9 secs

     total energy              =      -1.73110476 Ry
     estimated scf accuracy    <       0.00006698 Ry

     iteration #  8     ecut=    50.00 Ry     beta= 0.01
     Davidson diagonalization with overlap
     ethr =  2.78E-06,  avg # of iterations =  1.9

     total cpu time spent up to now is       42.3 secs

     total energy              =      -1.73123687 Ry
     estimated scf accuracy    <       0.00000512 Ry

     iteration #  9     ecut=    50.00 Ry     beta= 0.01
     Davidson diagonalization with overlap
     ethr =  2.56E-07,  avg # of iterations =  2.0

     total cpu time spent up to now is       42.8 secs

     total energy              =      -1.73123831 Ry
     estimated scf accuracy    <       0.00000505 Ry

     iteration # 10     ecut=    50.00 Ry     beta= 0.01
     Davidson diagonalization with overlap
     ethr =  2.52E-07,  avg # of iterations =  1.0

     total cpu time spent up to now is       43.1 secs

     total energy              =      -1.73124132 Ry
     estimated scf accuracy    <       0.00000499 Ry

     iteration # 11     ecut=    50.00 Ry     beta= 0.01
     Davidson diagonalization with overlap
     ethr =  2.50E-07,  avg # of iterations =  1.0

     total cpu time spent up to now is       43.4 secs

     total energy              =      -1.73124319 Ry
     estimated scf accuracy    <       0.00000249 Ry

     iteration # 12     ecut=    50.00 Ry     beta= 0.01
     Davidson diagonalization with overlap
     ethr =  1.24E-07,  avg # of iterations =  1.9

     total cpu time spent up to now is       43.8 secs

     End of self-consistent calculation

          k = 0.0000 0.0000 0.0000 (  1639 PWs)   bands (ev):

    -5.7897

          k =-0.1201 0.1201-0.1201 (  1606 PWs)   bands (ev):

    -5.6272

          k =-0.2402 0.2402-0.2402 (  1606 PWs)   bands (ev):

    -5.1564

          k =-0.3602 0.3602-0.3602 (  1615 PWs)   bands (ev):

    -4.4394

          k =-0.4803 0.4803-0.4803 (  1616 PWs)   bands (ev):

    -3.6617

          k = 0.6004-0.6004 0.6004 (  1622 PWs)   bands (ev):

    -3.2758

          k = 0.0000 0.2402 0.0000 (  1599 PWs)   bands (ev):

    -5.5716

          k =-0.1201 0.3602-0.1201 (  1609 PWs)   bands (ev):

    -5.1985

          k =-0.2402 0.4803-0.2402 (  1607 PWs)   bands (ev):

    -4.5495

          k =-0.3602 0.6004-0.3602 (  1610 PWs)   bands (ev):

    -3.7546

          k = 0.7205-0.4803 0.7205 (  1609 PWs)   bands (ev):

    -3.1703

          k = 0.6004-0.3602 0.6004 (  1616 PWs)   bands (ev):

    -3.3107

          k = 0.4803-0.2402 0.4803 (  1621 PWs)   bands (ev):

    -4.0278

          k = 0.3602-0.1201 0.3602 (  1605 PWs)   bands (ev):

    -4.7972

          k = 0.2402 0.0000 0.2402 (  1592 PWs)   bands (ev):

    -5.3600

          k = 0.0000 0.4803 0.0000 (  1607 PWs)   bands (ev):

    -4.9195

          k =-0.1201 0.6004-0.1201 (  1612 PWs)   bands (ev):

    -4.3465

          k =-0.2402 0.7205-0.2402 (  1619 PWs)   bands (ev):

    -3.5702

          k = 0.8405-0.3602 0.8405 (  1606 PWs)   bands (ev):

    -2.8596

          k = 0.7205-0.2402 0.7205 (  1596 PWs)   bands (ev):

    -2.7538

          k = 0.6004-0.1201 0.6004 (  1610 PWs)   bands (ev):

    -3.3648

          k = 0.4803 0.0000 0.4803 (  1610 PWs)   bands (ev):

    -4.1596

          k =-0.0000 0.7205 0.0000 (  1620 PWs)   bands (ev):

    -3.8464

          k =-0.1201 0.8405-0.1201 (  1625 PWs)   bands (ev):

    -3.1167

          k = 0.9606-0.2402 0.9606 (  1619 PWs)   bands (ev):

    -2.3702

          k = 0.8405-0.1201 0.8405 (  1621 PWs)   bands (ev):

    -2.1092

          k = 0.7205 0.0000 0.7205 (  1608 PWs)   bands (ev):

    -2.5973

          k = 0.0000 0.9606 0.0000 (  1624 PWs)   bands (ev):

    -2.4559

          k = 1.0807-0.1201 1.0807 (  1623 PWs)   bands (ev):

    -1.8057

          k = 0.9606 0.0000 0.9606 (  1622 PWs)   bands (ev):

    -1.6498

          k = 0.0000-1.2008 0.0000 (  1604 PWs)   bands (ev):

    -1.5032

          k =-0.2402 0.4803 0.0000 (  1613 PWs)   bands (ev):

    -4.7278

          k =-0.3602 0.6004-0.1201 (  1609 PWs)   bands (ev):

    -4.0086

          k = 0.7205-0.4803 0.9606 (  1618 PWs)   bands (ev):

    -3.2240

          k = 0.6004-0.3602 0.8405 (  1608 PWs)   bands (ev):

    -2.8312

          k =-0.2402 0.7205 0.0000 (  1617 PWs)   bands (ev):

    -3.6947

          k = 0.8405-0.3602 1.0807 (  1621 PWs)   bands (ev):

    -2.9045

          k = 0.7205-0.2402 0.9606 (  1613 PWs)   bands (ev):

    -2.3462

          k = 0.6004-0.1201 0.8405 (  1613 PWs)   bands (ev):

    -2.5296

          k = 0.4803-0.0000 0.7205 (  1607 PWs)   bands (ev):

    -3.2556

          k = 0.9606-0.2402 1.2008 (  1621 PWs)   bands (ev):

    -2.3851

          k = 0.8405-0.1201 1.0807 (  1625 PWs)   bands (ev):

    -1.8245

          k = 0.7205 0.0000 0.9606 (  1614 PWs)   bands (ev):

    -1.9119

          k =-0.2402-1.2008 0.0000 (  1624 PWs)   bands (ev):

    -1.5374

          k = 0.7205-0.2402 1.2008 (  1616 PWs)   bands (ev):

    -2.1882

          k = 0.6004-0.1201 1.0807 (  1608 PWs)   bands (ev):

    -1.8363

          k =-0.4803-1.2008 0.0000 (  1626 PWs)   bands (ev):

    -1.5906

     highest occupied level (ev):    -1.5032

!    total energy              =      -1.73010882 Ry
     estimated scf accuracy    <          5.0E-09 Ry

     The total energy is the sum of the following terms:
     one-electron contribution =       0.38151355 Ry
     hartree contribution      =       0.29412633 Ry
     xc contribution           =      -1.07792109 Ry
     ewald contribution        =      -1.32782761 Ry

     convergence has been achieved in  12 iterations
     Writing meta-gga kinetic term

     Forces acting on atoms (cartesian axes, Ry/au):

     atom    1 type  1   force =    -0.00000000   -0.00000000   -0.00000000
     atom    2 type  2   force =     0.00000000    0.00000000    0.00000000

     Total force =     0.000000     Total SCF correction =     0.000000


     Computing stress (Cartesian axis) and pressure

          total   stress  (Ry/bohr**3)                   (kbar)     P=      -68.80
  -0.00046766   0.00000000   0.00000000          -68.80        0.00        0.00
   0.00000000  -0.00046766  -0.00000000            0.00      -68.80       -0.00
   0.00000000  -0.00000000  -0.00046766            0.00       -0.00      -68.80

     Energy error            =      2.0E-02 Ry
     Gradient error          =      1.1E-27 Ry/Bohr
     Cell gradient error     =      6.9E+01 kbar

     number of scf cycles    =   6
     number of bfgs steps    =   5

     enthalpy           old  =      -1.7098641102 Ry
     enthalpy           new  =      -1.7301088222 Ry

     CASE: enthalpy          _new < enthalpy          _old

     new trust radius        =       0.2888689492 bohr
     new conv_thr            =       0.0000000100 Ry

     new unit-cell volume =    107.98227 a.u.^3 (    16.00132 Ang^3 )
     density =      0.82491 g/cm^3

CELL_PARAMETERS (alat= 10.26310000)
  -0.368266542  -0.000000000   0.368266542
   0.000000000   0.368266542   0.368266542
  -0.368266542   0.368266542  -0.000000000

ATOMIC_POSITIONS (alat)
Li           -0.0000000000       -0.0000000000       -0.0000000000
H             0.3682665416        0.3682665416        0.3682665416



     Writing config-only to output data dir ./pwscf.save/
     NEW-OLD atomic charge density approx. for the potential

     negative rho (up,down):  1.398E-04 0.000E+00
     extrapolated charge    1.11083, renormalised to    2.00000

     total cpu time spent up to now is       44.8 secs

     Self-consistent Calculation

     iteration #  1     ecut=    50.00 Ry     beta= 0.01
     Davidson diagonalization with overlap
     c_bands:  1 eigenvalues not converged
     c_bands:  1 eigenvalues not converged
     c_bands:  1 eigenvalues not converged
     c_bands:  1 eigenvalues not converged
     c_bands:  1 eigenvalues not converged
     c_bands:  1 eigenvalues not converged
     c_bands:  1 eigenvalues not converged
     c_bands:  1 eigenvalues not converged
     c_bands:  1 eigenvalues not converged
     c_bands:  1 eigenvalues not converged
     c_bands:  1 eigenvalues not converged
     c_bands:  1 eigenvalues not converged
     c_bands:  1 eigenvalues not converged
     c_bands:  1 eigenvalues not converged
     c_bands:  1 eigenvalues not converged
     c_bands:  1 eigenvalues not converged
     c_bands:  1 eigenvalues not converged
     c_bands:  1 eigenvalues not converged
     c_bands:  1 eigenvalues not converged
     c_bands:  1 eigenvalues not converged
     c_bands:  1 eigenvalues not converged
     c_bands:  1 eigenvalues not converged
     c_bands:  1 eigenvalues not converged
     c_bands:  1 eigenvalues not converged
     c_bands:  1 eigenvalues not converged
     c_bands:  1 eigenvalues not converged
     c_bands:  1 eigenvalues not converged
     c_bands:  1 eigenvalues not converged
     c_bands:  1 eigenvalues not converged
     c_bands:  1 eigenvalues not converged
     c_bands:  1 eigenvalues not converged
     c_bands:  1 eigenvalues not converged
     c_bands:  1 eigenvalues not converged
     c_bands:  1 eigenvalues not converged
     c_bands:  1 eigenvalues not converged
     c_bands:  1 eigenvalues not converged
     c_bands:  1 eigenvalues not converged
     c_bands:  1 eigenvalues not converged
     c_bands:  1 eigenvalues not converged
     c_bands:  1 eigenvalues not converged
     c_bands:  1 eigenvalues not converged
     c_bands:  1 eigenvalues not converged
     c_bands:  1 eigenvalues not converged
     c_bands:  1 eigenvalues not converged
     c_bands:  1 eigenvalues not converged
     c_bands:  1 eigenvalues not converged
     c_bands:  1 eigenvalues not converged
     ethr =  1.00E-06,  avg # of iterations = 20.0

     negative rho (up,down):  2.476E-04 0.000E+00

     total cpu time spent up to now is       47.1 secs

     total energy              =      -1.65520234 Ry
     estimated scf accuracy    <       0.00885029 Ry

     iteration #  2     ecut=    50.00 Ry     beta= 0.01
     Davidson diagonalization with overlap
     ethr =  4.43E-04,  avg # of iterations =  4.6

     negative rho (up,down):  2.471E-04 0.000E+00

     total cpu time spent up to now is       47.8 secs

     total energy              =      -1.72297635 Ry
     estimated scf accuracy    <       0.01708597 Ry

     iteration #  3     ecut=    50.00 Ry     beta= 0.01
     Davidson diagonalization with overlap
     ethr =  4.43E-04,  avg # of iterations =  1.0

     negative rho (up,down):  2.602E-04 0.000E+00

     total cpu time spent up to now is       48.1 secs

     total energy              =      -1.72302980 Ry
     estimated scf accuracy    <       0.01784960 Ry

     iteration #  4     ecut=    50.00 Ry     beta= 0.01
     Davidson diagonalization with overlap
     ethr =  4.43E-04,  avg # of iterations =  1.0

     negative rho (up,down):  1.252E-04 0.000E+00

     total cpu time spent up to now is       48.4 secs

     total energy              =      -1.73279959 Ry
     estimated scf accuracy    <       0.02017440 Ry

     iteration #  5     ecut=    50.00 Ry     beta= 0.01
     Davidson diagonalization with overlap
     ethr =  4.43E-04,  avg # of iterations =  2.0

     negative rho (up,down):  1.195E-04 0.000E+00

     total cpu time spent up to now is       48.8 secs

     total energy              =      -1.73412129 Ry
     estimated scf accuracy    <       0.00058047 Ry

     iteration #  6     ecut=    50.00 Ry     beta= 0.01
     Davidson diagonalization with overlap
     ethr =  2.90E-05,  avg # of iterations =  2.1

     negative rho (up,down):  1.238E-04 0.000E+00

     total cpu time spent up to now is       49.2 secs

     total energy              =      -1.73482614 Ry
     estimated scf accuracy    <       0.00141775 Ry

     iteration #  7     ecut=    50.00 Ry     beta= 0.01
     Davidson diagonalization with overlap
     ethr =  2.90E-05,  avg # of iterations =  1.0

     negative rho (up,down):  2.014E-07 0.000E+00

     total cpu time spent up to now is       49.5 secs

     total energy              =      -1.74398657 Ry
     estimated scf accuracy    <       0.00150591 Ry

     iteration #  8     ecut=    50.00 Ry     beta= 0.01
     Davidson diagonalization with overlap
     ethr =  2.90E-05,  avg # of iterations =  2.0

     negative rho (up,down):  3.291E-07 0.000E+00

     total cpu time spent up to now is       49.9 secs

     total energy              =      -1.74449641 Ry
     estimated scf accuracy    <       0.00000722 Ry

     iteration #  9     ecut=    50.00 Ry     beta= 0.01
     Davidson diagonalization with overlap
     ethr =  3.61E-07,  avg # of iterations =  2.9

     negative rho (up,down):  3.869E-07 0.000E+00

     total cpu time spent up to now is       50.4 secs

     total energy              =      -1.74345718 Ry
     estimated scf accuracy    <       0.00001705 Ry

     iteration # 10     ecut=    50.00 Ry     beta= 0.01
     Davidson diagonalization with overlap
     ethr =  3.61E-07,  avg # of iterations =  2.6

     total cpu time spent up to now is       50.9 secs

     total energy              =      -1.74445589 Ry
     estimated scf accuracy    <       0.00001457 Ry

     iteration # 11     ecut=    50.00 Ry     beta= 0.01
     Davidson diagonalization with overlap
[...]

     Final enthalpy           =      -1.7439180191 Ry

     File ./pwscf.bfgs deleted, as requested
Begin final coordinates
     new unit-cell volume =    110.29243 a.u.^3 (    16.34365 Ang^3 )
     density =      0.80763 g/cm^3

CELL_PARAMETERS (alat= 10.26310000)
  -0.370874249  -0.000000000   0.370874249
   0.000000000   0.370874249   0.370874249
  -0.370874249   0.370874249  -0.000000000

ATOMIC_POSITIONS (alat)
Li           -0.0000000000       -0.0000000000       -0.0000000000
H             0.3708742495        0.3708742495        0.3708742495
End final coordinates



     Writing config-only to output data dir ./pwscf.save/

     Final scf calculation at the relaxed structure.
     The G-vectors are recalculated for the final unit cell
     Results may differ from those at the preceding step.
 
     G-vector sticks info
     --------------------
     sticks:   dense  smooth     PW     G-vecs:    dense   smooth      PW
     Sum         397     397    127                 5209     5209     965
 
     Using Slab Decomposition
 


     bravais-lattice index     =            2
     lattice parameter (alat)  =      10.2631  a.u.
     unit-cell volume          =     110.2924 (a.u.)^3
     number of atoms/cell      =            2
     number of atomic types    =            2
     number of electrons       =         2.00
     number of Kohn-Sham states=            1
     kinetic-energy cutoff     =      50.0000  Ry
     charge density cutoff     =     200.0000  Ry
     scf convergence threshold =      1.0E-08
     mixing beta               =       0.0100
     number of iterations used =            8  local-TF  mixing
     press convergence thresh. =      5.0E-01
     Exchange-correlation=  SLA  PW   SCAN SCAN
                           (   0   0   0   0   0 263 267)

     celldm(1)=  10.263100  celldm(2)=   0.000000  celldm(3)=   0.000000
     celldm(4)=   0.000000  celldm(5)=   0.000000  celldm(6)=   0.000000

     crystal axes: (cart. coord. in units of alat)
               a(1) = (  -0.370874  -0.000000   0.370874 )  
               a(2) = (   0.000000   0.370874   0.370874 )  
               a(3) = (  -0.370874   0.370874  -0.000000 )  

     reciprocal axes: (cart. coord. in units 2 pi/alat)
               b(1) = ( -1.348166 -1.348166  1.348166 )  
               b(2) = (  1.348166  1.348166  1.348166 )  
               b(3) = ( -1.348166  1.348166 -1.348166 )  


     PseudoPot. # 1 for Li read from file:
     ~/Documents/PWDFT.jl/pseudopotentials/scan_upf/Li.SCAN.UPF
     MD5 check sum: Not computed, couldn't open file
     Pseudo is Norm-conserving, Zval =  1.0
     Generated by new atomic code, or converted to UPF format
     Using radial grid of 1321 points,  1 beta functions with: 
                l(1) =   0

     PseudoPot. # 2 for H  read from file:
     ~/Documents/PWDFT.jl/pseudopotentials/scan_upf/H.SCAN.UPF
     MD5 check sum: Not computed, couldn't open file
     Pseudo is Norm-conserving, Zval =  1.0
     Generated by new atomic code, or converted to UPF format
     Using radial grid of 2419 points,  0 beta functions with: 

     atomic species   valence    mass     pseudopotential
        Li             1.00     6.94100     Li( 1.00)
        H              1.00     1.00800     H ( 1.00)

     48 Sym. Ops., with inversion, found



   Cartesian axes

     site n.     atom                  positions (alat units)
         1           Li  tau(   1) = (  -0.0000000  -0.0000000  -0.0000000  )
         2           H   tau(   2) = (   0.3708742   0.3708742   0.3708742  )

     number of k points=    47
                       cart. coord. in units 2pi/alat
        k(    1) = (   0.0000000   0.0000000   0.0000000), wk =   0.0020000
        k(    2) = (  -0.1348166   0.1348166  -0.1348166), wk =   0.0160000
        k(    3) = (  -0.2696332   0.2696332  -0.2696332), wk =   0.0160000
        k(    4) = (  -0.4044498   0.4044498  -0.4044498), wk =   0.0160000
        k(    5) = (  -0.5392663   0.5392663  -0.5392663), wk =   0.0160000
        k(    6) = (   0.6740829  -0.6740829   0.6740829), wk =   0.0080000
        k(    7) = (   0.0000000   0.2696332   0.0000000), wk =   0.0120000
        k(    8) = (  -0.1348166   0.4044498  -0.1348166), wk =   0.0480000
        k(    9) = (  -0.2696332   0.5392663  -0.2696332), wk =   0.0480000
        k(   10) = (  -0.4044498   0.6740829  -0.4044498), wk =   0.0480000
        k(   11) = (   0.8088995  -0.5392663   0.8088995), wk =   0.0480000
        k(   12) = (   0.6740829  -0.4044498   0.6740829), wk =   0.0480000
        k(   13) = (   0.5392663  -0.2696332   0.5392663), wk =   0.0480000
        k(   14) = (   0.4044498  -0.1348166   0.4044498), wk =   0.0480000
        k(   15) = (   0.2696332  -0.0000000   0.2696332), wk =   0.0240000
        k(   16) = (   0.0000000   0.5392663   0.0000000), wk =   0.0120000
        k(   17) = (  -0.1348166   0.6740829  -0.1348166), wk =   0.0480000
        k(   18) = (  -0.2696332   0.8088995  -0.2696332), wk =   0.0480000
        k(   19) = (   0.9437161  -0.4044498   0.9437161), wk =   0.0480000
        k(   20) = (   0.8088995  -0.2696332   0.8088995), wk =   0.0480000
        k(   21) = (   0.6740829  -0.1348166   0.6740829), wk =   0.0480000
        k(   22) = (   0.5392663  -0.0000000   0.5392663), wk =   0.0240000
        k(   23) = (  -0.0000000   0.8088995   0.0000000), wk =   0.0120000
        k(   24) = (  -0.1348166   0.9437161  -0.1348166), wk =   0.0480000
        k(   25) = (   1.0785327  -0.2696332   1.0785327), wk =   0.0480000
        k(   26) = (   0.9437161  -0.1348166   0.9437161), wk =   0.0480000
        k(   27) = (   0.8088995  -0.0000000   0.8088995), wk =   0.0240000
        k(   28) = (   0.0000000   1.0785327   0.0000000), wk =   0.0120000
        k(   29) = (   1.2133493  -0.1348166   1.2133493), wk =   0.0480000
        k(   30) = (   1.0785327  -0.0000000   1.0785327), wk =   0.0240000
        k(   31) = (  -0.0000000  -1.3481659   0.0000000), wk =   0.0060000
        k(   32) = (  -0.2696332   0.5392663   0.0000000), wk =   0.0480000
        k(   33) = (  -0.4044498   0.6740829  -0.1348166), wk =   0.0960000
        k(   34) = (   0.8088995  -0.5392663   1.0785327), wk =   0.0960000
        k(   35) = (   0.6740829  -0.4044498   0.9437161), wk =   0.0480000
        k(   36) = (  -0.2696332   0.8088995   0.0000000), wk =   0.0480000
        k(   37) = (   0.9437161  -0.4044498   1.2133493), wk =   0.0960000
        k(   38) = (   0.8088995  -0.2696332   1.0785327), wk =   0.0960000
        k(   39) = (   0.6740829  -0.1348166   0.9437161), wk =   0.0960000
        k(   40) = (   0.5392663  -0.0000000   0.8088995), wk =   0.0480000
        k(   41) = (   1.0785327  -0.2696332   1.3481659), wk =   0.0480000
        k(   42) = (   0.9437161  -0.1348166   1.2133493), wk =   0.0960000
        k(   43) = (   0.8088995  -0.0000000   1.0785327), wk =   0.0480000
        k(   44) = (  -0.2696332  -1.3481659   0.0000000), wk =   0.0240000
        k(   45) = (   0.8088995  -0.2696332   1.3481659), wk =   0.0480000
        k(   46) = (   0.6740829  -0.1348166   1.2133493), wk =   0.0480000
        k(   47) = (  -0.5392663  -1.3481659   0.0000000), wk =   0.0240000

     Dense  grid:     5209 G-vectors     FFT dimensions: (  25,  25,  25)

     Estimated max dynamical RAM per process >       8.58 MB

     WARNING: libxc functional with ID  263 depends
      on external parameters: check the user_guide of
      QE if you need to modify them or to check their
      default values.

     Initial potential from superposition of free atoms

     starting charge       1.9953, renormalised to       2.0000
     Starting wfcs are    4 randomized atomic wfcs

     total cpu time spent up to now is       63.8 secs

     Self-consistent Calculation

     iteration #  1     ecut=    50.00 Ry     beta= 0.01
     Davidson diagonalization with overlap
     c_bands:  1 eigenvalues not converged
     c_bands:  1 eigenvalues not converged
     ethr =  1.00E-06,  avg # of iterations = 10.7

     total cpu time spent up to now is       64.3 secs

     total energy              =      -1.76529596 Ry
     estimated scf accuracy    <       0.05588502 Ry

     iteration #  2     ecut=    50.00 Ry     beta= 0.01
     Davidson diagonalization with overlap
     ethr =  2.79E-03,  avg # of iterations =  1.0

     total cpu time spent up to now is       64.4 secs

     total energy              =      -1.72038593 Ry
     estimated scf accuracy    <       0.05511459 Ry

     iteration #  3     ecut=    50.00 Ry     beta= 0.01
     Davidson diagonalization with overlap
     ethr =  2.76E-03,  avg # of iterations =  1.6

     total cpu time spent up to now is       64.5 secs

     total energy              =      -1.72649179 Ry
     estimated scf accuracy    <       0.00336019 Ry

     iteration #  4     ecut=    50.00 Ry     beta= 0.01
     Davidson diagonalization with overlap
     ethr =  1.68E-04,  avg # of iterations =  1.1

     total cpu time spent up to now is       64.6 secs

     total energy              =      -1.73877269 Ry
     estimated scf accuracy    <       0.00198289 Ry

     iteration #  5     ecut=    50.00 Ry     beta= 0.01
     Davidson diagonalization with overlap
     ethr =  9.91E-05,  avg # of iterations =  2.0

     total cpu time spent up to now is       64.7 secs

     total energy              =      -1.73946212 Ry
     estimated scf accuracy    <       0.00135678 Ry

     iteration #  6     ecut=    50.00 Ry     beta= 0.01
     Davidson diagonalization with overlap
     ethr =  6.78E-05,  avg # of iterations =  1.0

     total cpu time spent up to now is       64.9 secs

     total energy              =      -1.73909949 Ry
     estimated scf accuracy    <       0.00121330 Ry

     iteration #  7     ecut=    50.00 Ry     beta= 0.01
     Davidson diagonalization with overlap
     ethr =  6.07E-05,  avg # of iterations =  1.0

     total cpu time spent up to now is       65.0 secs

     total energy              =      -1.73913367 Ry
     estimated scf accuracy    <       0.00029804 Ry

     iteration #  8     ecut=    50.00 Ry     beta= 0.01
     Davidson diagonalization with overlap
     ethr =  1.49E-05,  avg # of iterations =  1.0

     total cpu time spent up to now is       65.1 secs

     total energy              =      -1.73918905 Ry
     estimated scf accuracy    <       0.00020935 Ry

     iteration #  9     ecut=    50.00 Ry     beta= 0.01
     Davidson diagonalization with overlap
     ethr =  1.05E-05,  avg # of iterations =  1.0

     total cpu time spent up to now is       65.2 secs

     total energy              =      -1.73918714 Ry
     estimated scf accuracy    <       0.00004279 Ry

     iteration # 10     ecut=    50.00 Ry     beta= 0.01
     Davidson diagonalization with overlap
     ethr =  2.14E-06,  avg # of iterations =  1.3

     total cpu time spent up to now is       65.3 secs

     total energy              =      -1.73919126 Ry
     estimated scf accuracy    <       0.00000178 Ry

     iteration # 11     ecut=    50.00 Ry     beta= 0.01
     Davidson diagonalization with overlap
     ethr =  8.90E-08,  avg # of iterations =  1.6

     total cpu time spent up to now is       65.4 secs

     total energy              =      -1.73919173 Ry
     estimated scf accuracy    <       0.00000145 Ry

     iteration # 12     ecut=    50.00 Ry     beta= 0.01
     Davidson diagonalization with overlap
     ethr =  7.24E-08,  avg # of iterations =  1.0

     total cpu time spent up to now is       65.5 secs

     total energy              =      -1.73919219 Ry
     estimated scf accuracy    <       0.00000074 Ry

     iteration # 13     ecut=    50.00 Ry     beta= 0.01
     Davidson diagonalization with overlap
     ethr =  3.70E-08,  avg # of iterations =  1.0

     total cpu time spent up to now is       65.6 secs

     total energy              =      -1.73919224 Ry
     estimated scf accuracy    <       0.00000027 Ry

     iteration # 14     ecut=    50.00 Ry     beta= 0.01
     Davidson diagonalization with overlap
     ethr =  1.33E-08,  avg # of iterations =  1.0

     total cpu time spent up to now is       65.7 secs

     total energy              =      -1.73919220 Ry
     estimated scf accuracy    <       0.00000037 Ry

     iteration # 15     ecut=    50.00 Ry     beta= 0.01
     Davidson diagonalization with overlap
     ethr =  1.33E-08,  avg # of iterations =  1.0

     total cpu time spent up to now is       65.8 secs

     total energy              =      -1.73919219 Ry
     estimated scf accuracy    <       0.00000013 Ry

     iteration # 16     ecut=    50.00 Ry     beta= 0.01
     Davidson diagonalization with overlap
     ethr =  6.56E-09,  avg # of iterations =  1.6

     total cpu time spent up to now is       65.9 secs

     End of self-consistent calculation

          k = 0.0000 0.0000 0.0000 (   645 PWs)   bands (ev):

    -5.7894

          k =-0.1348 0.1348-0.1348 (   649 PWs)   bands (ev):

    -5.5979

          k =-0.2696 0.2696-0.2696 (   649 PWs)   bands (ev):

    -5.0400

          k =-0.4044 0.4044-0.4044 (   646 PWs)   bands (ev):

    -4.1884

          k =-0.5393 0.5393-0.5393 (   664 PWs)   bands (ev):

    -3.2665

          k = 0.6741-0.6741 0.6741 (   652 PWs)   bands (ev):

    -2.8082

          k = 0.0000 0.2696 0.0000 (   657 PWs)   bands (ev):

    -5.5319

          k =-0.1348 0.4044-0.1348 (   660 PWs)   bands (ev):

    -5.0873

          k =-0.2696 0.5393-0.2696 (   649 PWs)   bands (ev):

    -4.3111

          k =-0.4044 0.6741-0.4044 (   652 PWs)   bands (ev):

    -3.3584

          k = 0.8089-0.5393 0.8089 (   653 PWs)   bands (ev):

    -2.6566

          k = 0.6741-0.4044 0.6741 (   659 PWs)   bands (ev):

    -2.8266

          k = 0.5393-0.2696 0.5393 (   653 PWs)   bands (ev):

    -3.6879

          k = 0.4044-0.1348 0.4044 (   652 PWs)   bands (ev):

    -4.6095

          k = 0.2696-0.0000 0.2696 (   654 PWs)   bands (ev):

    -5.2810

          k = 0.0000 0.5393 0.0000 (   653 PWs)   bands (ev):

    -4.7463

          k =-0.1348 0.6741-0.1348 (   655 PWs)   bands (ev):

    -4.0481

          k =-0.2696 0.8089-0.2696 (   655 PWs)   bands (ev):

    -3.0948

          k = 0.9437-0.4044 0.9437 (   661 PWs)   bands (ev):

    -2.2119

          k = 0.8089-0.2696 0.8089 (   660 PWs)   bands (ev):

    -2.0844

          k = 0.6741-0.1348 0.6741 (   659 PWs)   bands (ev):

    -2.8548

          k = 0.5393-0.0000 0.5393 (   648 PWs)   bands (ev):

    -3.8348

          k =-0.0000 0.8089 0.0000 (   652 PWs)   bands (ev):

    -3.4159

          k =-0.1348 0.9437-0.1348 (   658 PWs)   bands (ev):

    -2.4862

          k = 1.0785-0.2696 1.0785 (   662 PWs)   bands (ev):

    -1.5072

          k = 0.9437-0.1348 0.9437 (   669 PWs)   bands (ev):

    -1.1649

          k = 0.8089-0.0000 0.8089 (   670 PWs)   bands (ev):

    -1.8488

          k = 0.0000 1.0785 0.0000 (   660 PWs)   bands (ev):

    -1.5906

          k = 1.2133-0.1348 1.2133 (   662 PWs)   bands (ev):

    -0.6556

          k = 1.0785-0.0000 1.0785 (   678 PWs)   bands (ev):

    -0.4391

          k =-0.0000-1.3482 0.0000 (   652 PWs)   bands (ev):

    -0.1462

          k =-0.2696 0.5393 0.0000 (   652 PWs)   bands (ev):

    -4.5197

          k =-0.4044 0.6741-0.1348 (   648 PWs)   bands (ev):

    -3.6467

          k = 0.8089-0.5393 1.0785 (   661 PWs)   bands (ev):

    -2.6851

          k = 0.6741-0.4044 0.9437 (   664 PWs)   bands (ev):

    -2.1983

          k =-0.2696 0.8089 0.0000 (   656 PWs)   bands (ev):

    -3.2369

          k = 0.9437-0.4044 1.2133 (   663 PWs)   bands (ev):

    -2.2349

          k = 0.8089-0.2696 1.0785 (   664 PWs)   bands (ev):

    -1.5069

          k = 0.6741-0.1348 0.9437 (   662 PWs)   bands (ev):

    -1.7583

          k = 0.5393-0.0000 0.8089 (   657 PWs)   bands (ev):

    -2.7017

          k = 1.0785-0.2696 1.3482 (   660 PWs)   bands (ev):

    -1.5088

          k = 0.9437-0.1348 1.2133 (   664 PWs)   bands (ev):

    -0.7174

          k = 0.8089-0.0000 1.0785 (   666 PWs)   bands (ev):

    -0.8702

          k =-0.2696-1.3482 0.0000 (   662 PWs)   bands (ev):

    -0.2320

          k = 0.8089-0.2696 1.3482 (   656 PWs)   bands (ev):

    -1.2630

          k = 0.6741-0.1348 1.2133 (   666 PWs)   bands (ev):

    -0.7576

          k =-0.5393-1.3482 0.0000 (   670 PWs)   bands (ev):

    -0.3635

     highest occupied level (ev):    -0.1462

!    total energy              =      -1.73919221 Ry
     estimated scf accuracy    <          3.9E-09 Ry

     The total energy is the sum of the following terms:
     one-electron contribution =       0.64434072 Ry
     hartree contribution      =       0.25628907 Ry
     xc contribution           =      -1.14898682 Ry
     ewald contribution        =      -1.49083517 Ry

     convergence has been achieved in  16 iterations
     Writing meta-gga kinetic term

     Forces acting on atoms (cartesian axes, Ry/au):

     atom    1 type  1   force =    -0.00000000    0.00000000   -0.00000000
     atom    2 type  2   force =    -0.00000000   -0.00000000   -0.00000000

     Total force =     0.000000     Total SCF correction =     0.000000


     Computing stress (Cartesian axis) and pressure

          total   stress  (Ry/bohr**3)                   (kbar)     P=       -5.79
  -0.00003933   0.00000000   0.00000000           -5.79        0.00        0.00
   0.00000000  -0.00003933   0.00000000            0.00       -5.79        0.00
   0.00000000   0.00000000  -0.00003933            0.00        0.00       -5.79


     Writing all to output data dir ./pwscf.save/
     Writing meta-gga kinetic term
 
     init_run     :      1.10s CPU      1.14s WALL (       2 calls)
     electrons    :     55.57s CPU     56.22s WALL (      10 calls)
     update_pot   :      3.96s CPU      3.96s WALL (       8 calls)
     forces       :      1.64s CPU      1.65s WALL (      10 calls)
     stress       :      2.98s CPU      2.99s WALL (      10 calls)

     Called by init_run:
     wfcinit      :      0.57s CPU      0.58s WALL (       2 calls)
     potinit      :      0.27s CPU      0.27s WALL (       2 calls)
     hinit0       :      0.25s CPU      0.27s WALL (       2 calls)

     Called by electrons:
     c_bands      :     43.28s CPU     43.69s WALL (     148 calls)
     sum_band     :      8.07s CPU      8.16s WALL (     148 calls)
     v_of_rho     :      2.56s CPU      2.66s WALL (     158 calls)
     mix_rho      :      1.75s CPU      1.80s WALL (     148 calls)

     Called by c_bands:
     init_us_2    :      0.40s CPU      0.41s WALL (   14946 calls)
     init_us_2:cp :      0.38s CPU      0.39s WALL (   14946 calls)
     cegterg      :     42.93s CPU     43.34s WALL (    6956 calls)

     Called by *egterg:
     cdiaghg      :      0.13s CPU      0.13s WALL (   20343 calls)
     h_psi        :     42.81s CPU     43.22s WALL (   20813 calls)
     g_psi        :      0.05s CPU      0.05s WALL (   13763 calls)

     Called by h_psi:
     h_psi:calbec :      0.08s CPU      0.08s WALL (   20813 calls)
     vloc_psi     :     10.62s CPU     10.72s WALL (   20813 calls)
     add_vuspsi   :      0.04s CPU      0.05s WALL (   20813 calls)
     h_psi_meta   :     31.91s CPU     32.22s WALL (   20813 calls)

     General routines
     calbec       :      0.05s CPU      0.05s WALL (   23163 calls)
     fft          :      0.44s CPU      0.48s WALL (    1946 calls)
     ffts         :      0.85s CPU      0.87s WALL (    3674 calls)
     fftw         :     44.90s CPU     45.32s WALL (  197994 calls)
     interpolate  :      0.00s CPU      0.00s WALL (     158 calls)
 
     Parallel routines
 
     PWSCF        :   1m 5.37s CPU   1m 6.15s WALL

 
   This run was terminated on:  14:38:23  18Feb2023            

=------------------------------------------------------------------------------=
   JOB DONE.
=------------------------------------------------------------------------------=
