
     Program PWSCF v.7.0 starts on 14Mar2023 at 14:28:43 

     This program is part of the open-source Quantum ESPRESSO suite
     for quantum simulation of materials; please cite
         "P. Giannozzi et al., J. Phys.:Condens. Matter 21 395502 (2009);
         "P. Giannozzi et al., J. Phys.:Condens. Matter 29 465901 (2017);
         "P. Giannozzi et al., J. Chem. Phys. 152 154105 (2020);
          URL http://www.quantum-espresso.org", 
     in publications or presentations arising from this work. More details at
     http://www.quantum-espresso.org/quote

     Parallel version (MPI), running on     1 processors

     MPI processes distributed on     1 nodes
     26414 MiB available memory on the printing compute node when the environment starts
 
     Waiting for input...
     Reading input from standard input
Warning: card &CELL ignored
Warning: card / ignored

     Current dimensions of program PWSCF are:
     Max number of different atomic species (ntypx) = 10
     Max number of k-points (npk) =  40000
     Max angular momentum in pseudopotentials (lmaxx) =  4
     file Cl.SCAN.UPF2: wavefunction(s)  0D renormalized

     WARNING: the MGGA functional with ID    5 has been 
     read together with other dft terms, but it should 
     stand alone in order to work properly. The other 
     terms will be ignored.

     WARNING: the MGGA functional with ID    5 has been 
     read together with other dft terms, but it should 
     stand alone in order to work properly. The other 
     terms will be ignored.

     Subspace diagonalization in iterative solution of the eigenvalue problem:
     a serial algorithm will be used

 
     G-vector sticks info
     --------------------
     sticks:   dense  smooth     PW     G-vecs:    dense   smooth      PW
     Sum         967     967    301                20179    20179    3383
 
     Using Slab Decomposition
 


     bravais-lattice index     =            2
     lattice parameter (alat)  =      11.9410  a.u.
     unit-cell volume          =     425.6593 (a.u.)^3
     number of atoms/cell      =            2
     number of atomic types    =            2
     number of electrons       =         8.00
     number of Kohn-Sham states=            4
     kinetic-energy cutoff     =      50.0000  Ry
     charge density cutoff     =     200.0000  Ry
     scf convergence threshold =      1.0E-06
     mixing beta               =       0.0100
     number of iterations used =            8  local-TF  mixing
     Exchange-correlation= SLA  PW   SCAN SCAN
                           (   0   0   0   0   0 263 267)

     celldm(1)=  11.941000  celldm(2)=   0.000000  celldm(3)=   0.000000
     celldm(4)=   0.000000  celldm(5)=   0.000000  celldm(6)=   0.000000

     crystal axes: (cart. coord. in units of alat)
               a(1) = (  -0.500000   0.000000   0.500000 )  
               a(2) = (   0.000000   0.500000   0.500000 )  
               a(3) = (  -0.500000   0.500000   0.000000 )  

     reciprocal axes: (cart. coord. in units 2 pi/alat)
               b(1) = ( -1.000000 -1.000000  1.000000 )  
               b(2) = (  1.000000  1.000000  1.000000 )  
               b(3) = ( -1.000000  1.000000 -1.000000 )  


     PseudoPot. # 1 for Li read from file:
     ~/Documents/TA/PWDFT.jl/pseudopotentials/scan_upf/Li.SCAN.UPF2
     MD5 check sum: Not computed, couldn't open file
     Pseudo is Norm-conserving, Zval =  1.0
     Generated by new atomic code, or converted to UPF format
     Using radial grid of 1321 points,  1 beta functions with: 
                l(1) =   0

     PseudoPot. # 2 for Cl read from file:
     ~/Documents/TA/PWDFT.jl/pseudopotentials/scan_upf/Cl.SCAN.UPF2
     MD5 check sum: Not computed, couldn't open file
     Pseudo is Norm-conserving, Zval =  7.0
     Generated by new atomic code, or converted to UPF format
     Using radial grid of 1493 points,  2 beta functions with: 
                l(1) =   0
                l(2) =   1

     atomic species   valence    mass     pseudopotential
        Li             1.00     6.94100     Li( 1.00)
        Cl             7.00    35.45300     Cl( 1.00)

     48 Sym. Ops., with inversion, found



   Cartesian axes

     site n.     atom                  positions (alat units)
         1           Li  tau(   1) = (   0.0000000   0.0000000   0.0000000  )
         2           Cl  tau(   2) = (   0.5000000   0.5000000   0.5000000  )

     number of k points=    47
                       cart. coord. in units 2pi/alat
        k(    1) = (   0.0000000   0.0000000   0.0000000), wk =   0.0020000
        k(    2) = (  -0.1000000   0.1000000  -0.1000000), wk =   0.0160000
        k(    3) = (  -0.2000000   0.2000000  -0.2000000), wk =   0.0160000
        k(    4) = (  -0.3000000   0.3000000  -0.3000000), wk =   0.0160000
        k(    5) = (  -0.4000000   0.4000000  -0.4000000), wk =   0.0160000
        k(    6) = (   0.5000000  -0.5000000   0.5000000), wk =   0.0080000
        k(    7) = (   0.0000000   0.2000000   0.0000000), wk =   0.0120000
        k(    8) = (  -0.1000000   0.3000000  -0.1000000), wk =   0.0480000
        k(    9) = (  -0.2000000   0.4000000  -0.2000000), wk =   0.0480000
        k(   10) = (  -0.3000000   0.5000000  -0.3000000), wk =   0.0480000
        k(   11) = (   0.6000000  -0.4000000   0.6000000), wk =   0.0480000
        k(   12) = (   0.5000000  -0.3000000   0.5000000), wk =   0.0480000
        k(   13) = (   0.4000000  -0.2000000   0.4000000), wk =   0.0480000
        k(   14) = (   0.3000000  -0.1000000   0.3000000), wk =   0.0480000
        k(   15) = (   0.2000000   0.0000000   0.2000000), wk =   0.0240000
        k(   16) = (   0.0000000   0.4000000   0.0000000), wk =   0.0120000
        k(   17) = (  -0.1000000   0.5000000  -0.1000000), wk =   0.0480000
        k(   18) = (  -0.2000000   0.6000000  -0.2000000), wk =   0.0480000
        k(   19) = (   0.7000000  -0.3000000   0.7000000), wk =   0.0480000
        k(   20) = (   0.6000000  -0.2000000   0.6000000), wk =   0.0480000
        k(   21) = (   0.5000000  -0.1000000   0.5000000), wk =   0.0480000
        k(   22) = (   0.4000000   0.0000000   0.4000000), wk =   0.0240000
        k(   23) = (   0.0000000   0.6000000   0.0000000), wk =   0.0120000
        k(   24) = (  -0.1000000   0.7000000  -0.1000000), wk =   0.0480000
        k(   25) = (   0.8000000  -0.2000000   0.8000000), wk =   0.0480000
        k(   26) = (   0.7000000  -0.1000000   0.7000000), wk =   0.0480000
        k(   27) = (   0.6000000  -0.0000000   0.6000000), wk =   0.0240000
        k(   28) = (   0.0000000   0.8000000   0.0000000), wk =   0.0120000
        k(   29) = (   0.9000000  -0.1000000   0.9000000), wk =   0.0480000
        k(   30) = (   0.8000000   0.0000000   0.8000000), wk =   0.0240000
        k(   31) = (   0.0000000  -1.0000000   0.0000000), wk =   0.0060000
        k(   32) = (  -0.2000000   0.4000000   0.0000000), wk =   0.0480000
        k(   33) = (  -0.3000000   0.5000000  -0.1000000), wk =   0.0960000
        k(   34) = (   0.6000000  -0.4000000   0.8000000), wk =   0.0960000
        k(   35) = (   0.5000000  -0.3000000   0.7000000), wk =   0.0480000
        k(   36) = (  -0.2000000   0.6000000   0.0000000), wk =   0.0480000
        k(   37) = (   0.7000000  -0.3000000   0.9000000), wk =   0.0960000
        k(   38) = (   0.6000000  -0.2000000   0.8000000), wk =   0.0960000
        k(   39) = (   0.5000000  -0.1000000   0.7000000), wk =   0.0960000
        k(   40) = (   0.4000000   0.0000000   0.6000000), wk =   0.0480000
        k(   41) = (   0.8000000  -0.2000000   1.0000000), wk =   0.0480000
        k(   42) = (   0.7000000  -0.1000000   0.9000000), wk =   0.0960000
        k(   43) = (   0.6000000   0.0000000   0.8000000), wk =   0.0480000
        k(   44) = (  -0.2000000  -1.0000000   0.0000000), wk =   0.0240000
        k(   45) = (   0.6000000  -0.2000000   1.0000000), wk =   0.0480000
        k(   46) = (   0.5000000  -0.1000000   0.9000000), wk =   0.0480000
        k(   47) = (  -0.4000000  -1.0000000   0.0000000), wk =   0.0240000

     Dense  grid:    20179 G-vectors     FFT dimensions: (  40,  40,  40)

     Estimated max dynamical RAM per process >      38.64 MB

     WARNING: libxc functional with ID  263 depends
      on external parameters: check the user_guide of
      QE if you need to modify them or to check their
      default values.

     Initial potential from superposition of free atoms

     starting charge       7.9953, renormalised to       8.0000
     Starting wfcs are   13 randomized atomic wfcs

     total cpu time spent up to now is        9.8 secs

     Self-consistent Calculation

     iteration #  1     ecut=    50.00 Ry     beta= 0.01
     Davidson diagonalization with overlap
     ethr =  1.00E-02,  avg # of iterations =  1.0

     total cpu time spent up to now is       17.1 secs

     total energy              =     -30.60774797 Ry
     estimated scf accuracy    <       0.38968731 Ry

     iteration #  2     ecut=    50.00 Ry     beta= 0.01
     Davidson diagonalization with overlap
     ethr =  4.87E-03,  avg # of iterations =  1.0

     total cpu time spent up to now is       24.3 secs

     total energy              =     -30.65208274 Ry
     estimated scf accuracy    <       0.37035603 Ry

     iteration #  3     ecut=    50.00 Ry     beta= 0.01
     Davidson diagonalization with overlap
     ethr =  4.63E-03,  avg # of iterations =  1.0

     total cpu time spent up to now is       30.3 secs

     total energy              =     -30.68712041 Ry
     estimated scf accuracy    <       0.26891508 Ry

     iteration #  4     ecut=    50.00 Ry     beta= 0.01
     Davidson diagonalization with overlap
     ethr =  3.36E-03,  avg # of iterations =  1.0

     total cpu time spent up to now is       36.3 secs

     total energy              =     -30.68927118 Ry
     estimated scf accuracy    <       0.01310550 Ry

     iteration #  5     ecut=    50.00 Ry     beta= 0.01
     Davidson diagonalization with overlap
     ethr =  1.64E-04,  avg # of iterations =  1.0

     total cpu time spent up to now is       40.6 secs

     total energy              =     -30.68586239 Ry
     estimated scf accuracy    <       0.01148905 Ry

     iteration #  6     ecut=    50.00 Ry     beta= 0.01
     Davidson diagonalization with overlap
     ethr =  1.44E-04,  avg # of iterations =  1.0

     total cpu time spent up to now is       44.4 secs

     total energy              =     -30.68683568 Ry
     estimated scf accuracy    <       0.00592874 Ry

     iteration #  7     ecut=    50.00 Ry     beta= 0.01
     Davidson diagonalization with overlap
     ethr =  7.41E-05,  avg # of iterations =  2.0

     total cpu time spent up to now is       49.7 secs

     total energy              =     -30.68950626 Ry
     estimated scf accuracy    <       0.00429507 Ry

     iteration #  8     ecut=    50.00 Ry     beta= 0.01
     Davidson diagonalization with overlap
     ethr =  5.37E-05,  avg # of iterations =  1.0

     total cpu time spent up to now is       53.0 secs

     total energy              =     -30.68917312 Ry
     estimated scf accuracy    <       0.00509717 Ry

     iteration #  9     ecut=    50.00 Ry     beta= 0.01
     Davidson diagonalization with overlap
     ethr =  5.37E-05,  avg # of iterations =  1.0

     total cpu time spent up to now is       56.3 secs

     total energy              =     -30.68808904 Ry
     estimated scf accuracy    <       0.00416468 Ry

     iteration # 10     ecut=    50.00 Ry     beta= 0.01
     Davidson diagonalization with overlap
     ethr =  5.21E-05,  avg # of iterations =  1.7

     total cpu time spent up to now is       59.8 secs

     total energy              =     -30.68851222 Ry
     estimated scf accuracy    <       0.00020596 Ry

     iteration # 11     ecut=    50.00 Ry     beta= 0.01
     Davidson diagonalization with overlap
     ethr =  2.57E-06,  avg # of iterations =  1.9

     total cpu time spent up to now is       63.3 secs

     total energy              =     -30.68859620 Ry
     estimated scf accuracy    <       0.00024850 Ry

     iteration # 12     ecut=    50.00 Ry     beta= 0.01
     Davidson diagonalization with overlap
     ethr =  2.57E-06,  avg # of iterations =  1.0

     total cpu time spent up to now is       64.9 secs

     total energy              =     -30.68863895 Ry
     estimated scf accuracy    <       0.00035516 Ry

     iteration # 13     ecut=    50.00 Ry     beta= 0.01
     Davidson diagonalization with overlap
     ethr =  2.57E-06,  avg # of iterations =  1.0

     total cpu time spent up to now is       66.5 secs

     total energy              =     -30.68844807 Ry
     estimated scf accuracy    <       0.00050591 Ry

     iteration # 14     ecut=    50.00 Ry     beta= 0.01
     Davidson diagonalization with overlap
     ethr =  2.57E-06,  avg # of iterations =  2.0

     total cpu time spent up to now is       68.7 secs

     total energy              =     -30.68850792 Ry
     estimated scf accuracy    <       0.00000438 Ry

     iteration # 15     ecut=    50.00 Ry     beta= 0.01
     Davidson diagonalization with overlap
     ethr =  5.47E-08,  avg # of iterations =  1.9

     total cpu time spent up to now is       70.6 secs

     total energy              =     -30.68850837 Ry
     estimated scf accuracy    <       0.00000161 Ry

     iteration # 16     ecut=    50.00 Ry     beta= 0.01
     Davidson diagonalization with overlap
     ethr =  2.01E-08,  avg # of iterations =  1.1

     total cpu time spent up to now is       72.2 secs

     End of self-consistent calculation

          k = 0.0000 0.0000 0.0000 (  2637 PWs)   bands (ev):

   -15.0141  -2.5001  -2.5001  -2.5001

          k =-0.1000 0.1000-0.1000 (  2568 PWs)   bands (ev):

   -15.0032  -2.6284  -2.5089  -2.5089

          k =-0.2000 0.2000-0.2000 (  2553 PWs)   bands (ev):

   -14.9759  -2.9293  -2.5318  -2.5318

          k =-0.3000 0.3000-0.3000 (  2551 PWs)   bands (ev):

   -14.9419  -3.2518  -2.5594  -2.5594

          k =-0.4000 0.4000-0.4000 (  2542 PWs)   bands (ev):

   -14.9140  -3.4850  -2.5811  -2.5811

          k = 0.5000-0.5000 0.5000 (  2512 PWs)   bands (ev):

   -14.9029  -3.5689  -2.5893  -2.5893

          k = 0.0000 0.2000 0.0000 (  2573 PWs)   bands (ev):

   -14.9998  -2.6225  -2.5367  -2.5367

          k =-0.1000 0.3000-0.1000 (  2568 PWs)   bands (ev):

   -14.9782  -2.8489  -2.5747  -2.5535

          k =-0.2000 0.4000-0.2000 (  2548 PWs)   bands (ev):

   -14.9462  -3.1525  -2.6080  -2.5838

          k =-0.3000 0.5000-0.3000 (  2531 PWs)   bands (ev):

   -14.9160  -3.4031  -2.6279  -2.6242

          k = 0.6000-0.4000 0.6000 (  2529 PWs)   bands (ev):

   -14.8995  -3.5291  -2.6682  -2.6176

          k = 0.5000-0.3000 0.5000 (  2530 PWs)   bands (ev):

   -14.9031  -3.5010  -2.6887  -2.5908

          k = 0.4000-0.2000 0.4000 (  2548 PWs)   bands (ev):

   -14.9255  -3.3268  -2.6801  -2.5536

          k = 0.3000-0.1000 0.3000 (  2553 PWs)   bands (ev):

   -14.9576  -3.0540  -2.6416  -2.5198

          k = 0.2000 0.0000 0.2000 (  2561 PWs)   bands (ev):

   -14.9872  -2.7798  -2.5767  -2.5025

          k = 0.0000 0.4000 0.0000 (  2573 PWs)   bands (ev):

   -14.9635  -2.9071  -2.6311  -2.6311

          k =-0.1000 0.5000-0.1000 (  2542 PWs)   bands (ev):

   -14.9368  -3.1150  -2.6817  -2.6792

          k =-0.2000 0.6000-0.2000 (  2532 PWs)   bands (ev):

   -14.9088  -3.3194  -2.7560  -2.7014

          k = 0.7000-0.3000 0.7000 (  2529 PWs)   bands (ev):

   -14.8899  -3.4358  -2.8439  -2.6899

          k = 0.6000-0.2000 0.6000 (  2549 PWs)   bands (ev):

   -14.8879  -3.4361  -2.9064  -2.6490

          k = 0.5000-0.1000 0.5000 (  2543 PWs)   bands (ev):

   -14.9032  -3.3365  -2.9027  -2.5932

          k = 0.4000 0.0000 0.4000 (  2533 PWs)   bands (ev):

   -14.9297  -3.1931  -2.8033  -2.5436

          k = 0.0000 0.6000 0.0000 (  2550 PWs)   bands (ev):

   -14.9173  -3.2106  -2.7448  -2.7448

          k =-0.1000 0.7000-0.1000 (  2544 PWs)   bands (ev):

   -14.8949  -3.3394  -2.8211  -2.7812

          k = 0.8000-0.2000 0.8000 (  2534 PWs)   bands (ev):

   -14.8781  -3.3930  -2.9531  -2.7760

          k = 0.7000-0.1000 0.7000 (  2543 PWs)   bands (ev):

   -14.8737  -3.3379  -3.1049  -2.7309

          k = 0.6000-0.0000 0.6000 (  2538 PWs)   bands (ev):

   -14.8833  -3.2828  -3.1227  -2.6614

          k = 0.0000 0.8000 0.0000 (  2518 PWs)   bands (ev):

   -14.8791  -3.4308  -2.8345  -2.8345

          k = 0.9000-0.1000 0.9000 (  2527 PWs)   bands (ev):

   -14.8683  -3.4658  -2.9081  -2.8431

          k = 0.8000 0.0000 0.8000 (  2546 PWs)   bands (ev):

   -14.8663  -3.4012  -3.0473  -2.8043

          k = 0.0000-1.0000 0.0000 (  2498 PWs)   bands (ev):

   -14.8643  -3.5104  -2.8682  -2.8682

          k =-0.2000 0.4000 0.0000 (  2556 PWs)   bands (ev):

   -14.9541  -3.0247  -2.6796  -2.5652

          k =-0.3000 0.5000-0.1000 (  2550 PWs)   bands (ev):

   -14.9241  -3.2426  -2.7662  -2.5959

          k = 0.6000-0.4000 0.8000 (  2541 PWs)   bands (ev):

   -14.8995  -3.4134  -2.8103  -2.6360

          k = 0.5000-0.3000 0.7000 (  2538 PWs)   bands (ev):

   -14.8901  -3.4769  -2.8223  -2.6550

          k =-0.2000 0.6000 0.0000 (  2550 PWs)   bands (ev):

   -14.9125  -3.2496  -2.8030  -2.6980

          k = 0.7000-0.3000 0.9000 (  2528 PWs)   bands (ev):

   -14.8898  -3.3508  -2.9105  -2.7332

          k = 0.6000-0.2000 0.8000 (  2537 PWs)   bands (ev):

   -14.8782  -3.3783  -3.0046  -2.7378

          k = 0.5000-0.1000 0.7000 (  2543 PWs)   bands (ev):

   -14.8819  -3.3418  -3.0418  -2.6981

          k = 0.4000 0.0000 0.6000 (  2535 PWs)   bands (ev):

   -14.8994  -3.2977  -2.9502  -2.6391

          k = 0.8000-0.2000 1.0000 (  2531 PWs)   bands (ev):

   -14.8780  -3.4017  -2.9000  -2.8214

          k = 0.7000-0.1000 0.9000 (  2537 PWs)   bands (ev):

   -14.8685  -3.3766  -3.0317  -2.8261

          k = 0.6000 0.0000 0.8000 (  2544 PWs)   bands (ev):

   -14.8701  -3.2555  -3.1935  -2.7748

          k =-0.2000-1.0000 0.0000 (  2530 PWs)   bands (ev):

   -14.8647  -3.4550  -2.9364  -2.8707

          k = 0.6000-0.2000 1.0000 (  2525 PWs)   bands (ev):

   -14.8744  -3.3187  -3.0645  -2.7919

          k = 0.5000-0.1000 0.9000 (  2536 PWs)   bands (ev):

   -14.8686  -3.2659  -3.1551  -2.8241

          k =-0.4000-1.0000 0.0000 (  2544 PWs)   bands (ev):

   -14.8650  -3.3047  -3.1072  -2.8746

     highest occupied level (ev):    -2.5001

!    total energy              =     -30.68850994 Ry
     estimated scf accuracy    <       0.00000062 Ry

     The total energy is the sum of the following terms:
     one-electron contribution =     -12.89280558 Ry
     hartree contribution      =       8.89882958 Ry
     xc contribution           =      -6.21891509 Ry
     ewald contribution        =     -20.47561886 Ry

     convergence has been achieved in  16 iterations
     Writing meta-gga kinetic term

     Writing all to output data dir ./input_pw/LiCl/16/pwscf.save/
     Writing meta-gga kinetic term
 
     init_run     :      3.75s CPU      9.72s WALL (       1 calls)
     electrons    :     44.38s CPU     62.37s WALL (       1 calls)

     Called by init_run:
     wfcinit      :      3.59s CPU      9.32s WALL (       1 calls)
     potinit      :      0.05s CPU      0.22s WALL (       1 calls)
     hinit0       :      0.09s CPU      0.13s WALL (       1 calls)

     Called by electrons:
     c_bands      :     34.52s CPU     48.95s WALL (      16 calls)
     sum_band     :      8.63s CPU     11.80s WALL (      16 calls)
     v_of_rho     :      0.61s CPU      0.94s WALL (      17 calls)
     mix_rho      :      0.64s CPU      0.85s WALL (      16 calls)

     Called by c_bands:
     init_us_2    :      0.43s CPU      0.76s WALL (    1551 calls)
     init_us_2:cp :      0.43s CPU      0.76s WALL (    1551 calls)
     cegterg      :     34.11s CPU     48.34s WALL (     752 calls)

     Called by *egterg:
     cdiaghg      :      0.10s CPU      0.11s WALL (    1724 calls)
     h_psi        :     37.03s CPU     56.53s WALL (    1771 calls)
     g_psi        :      0.03s CPU      0.04s WALL (     972 calls)

     Called by h_psi:
     h_psi:calbec :      0.13s CPU      0.15s WALL (    1771 calls)
     vloc_psi     :      9.17s CPU     14.03s WALL (    1771 calls)
     add_vuspsi   :      0.10s CPU      0.13s WALL (    1771 calls)
     h_psi_meta   :     27.57s CPU     42.11s WALL (    1771 calls)

     General routines
     calbec       :      0.12s CPU      0.14s WALL (    1771 calls)
     fft          :      0.11s CPU      0.26s WALL (     201 calls)
     ffts         :      0.24s CPU      0.34s WALL (     423 calls)
     fftw         :     38.48s CPU     58.13s WALL (   69616 calls)
     interpolate  :      0.00s CPU      0.00s WALL (      17 calls)
 
     Parallel routines
 
     PWSCF        :     48.18s CPU   1m12.17s WALL

 
   This run was terminated on:  14:29:55  14Mar2023            

=------------------------------------------------------------------------------=
   JOB DONE.
=------------------------------------------------------------------------------=
