
     Program PWSCF v.7.0 starts on 10Apr2023 at  9:43:45 

     This program is part of the open-source Quantum ESPRESSO suite
     for quantum simulation of materials; please cite
         "P. Giannozzi et al., J. Phys.:Condens. Matter 21 395502 (2009);
         "P. Giannozzi et al., J. Phys.:Condens. Matter 29 465901 (2017);
         "P. Giannozzi et al., J. Chem. Phys. 152 154105 (2020);
          URL http://www.quantum-espresso.org", 
     in publications or presentations arising from this work. More details at
     http://www.quantum-espresso.org/quote

     Parallel version (MPI), running on     1 processors

     MPI processes distributed on     1 nodes
     18958 MiB available memory on the printing compute node when the environment starts
 
     Waiting for input...
     Reading input from standard input
Warning: card &CELL ignored
Warning: card / ignored

     Current dimensions of program PWSCF are:
     Max number of different atomic species (ntypx) = 10
     Max number of k-points (npk) =  40000
     Max angular momentum in pseudopotentials (lmaxx) =  4

     WARNING: the MGGA functional with ID    5 has been 
     read together with other dft terms, but it should 
     stand alone in order to work properly. The other 
     terms will be ignored.

     WARNING: the MGGA functional with ID    5 has been 
     read together with other dft terms, but it should 
     stand alone in order to work properly. The other 
     terms will be ignored.

     Subspace diagonalization in iterative solution of the eigenvalue problem:
     a serial algorithm will be used

 
     G-vector sticks info
     --------------------
     sticks:   dense  smooth     PW     G-vecs:    dense   smooth      PW
     Sum         547     547    163                 8363     8363    1459
 
     Using Slab Decomposition
 


     bravais-lattice index     =            2
     lattice parameter (alat)  =       8.8439  a.u.
     unit-cell volume          =     172.9315 (a.u.)^3
     number of atoms/cell      =            2
     number of atomic types    =            2
     number of electrons       =         8.00
     number of Kohn-Sham states=            4
     kinetic-energy cutoff     =      50.0000  Ry
     charge density cutoff     =     200.0000  Ry
     scf convergence threshold =      1.0E-06
     mixing beta               =       0.0100
     number of iterations used =            8  local-TF  mixing
     Exchange-correlation= SLA  PW   SCAN SCAN
                           (   0   0   0   0   0 263 267)

     celldm(1)=   8.843918  celldm(2)=   0.000000  celldm(3)=   0.000000
     celldm(4)=   0.000000  celldm(5)=   0.000000  celldm(6)=   0.000000

     crystal axes: (cart. coord. in units of alat)
               a(1) = (  -0.500000   0.000000   0.500000 )  
               a(2) = (   0.000000   0.500000   0.500000 )  
               a(3) = (  -0.500000   0.500000   0.000000 )  

     reciprocal axes: (cart. coord. in units 2 pi/alat)
               b(1) = ( -1.000000 -1.000000  1.000000 )  
               b(2) = (  1.000000  1.000000  1.000000 )  
               b(3) = ( -1.000000  1.000000 -1.000000 )  


     PseudoPot. # 1 for Li read from file:
     ~/Documents/TA/PWDFT.jl/pseudopotentials/scan_upf/Li.SCAN.UPF2
     MD5 check sum: Not computed, couldn't open file
     Pseudo is Norm-conserving, Zval =  1.0
     Generated by new atomic code, or converted to UPF format
     Using radial grid of 1321 points,  1 beta functions with: 
                l(1) =   0

     PseudoPot. # 2 for F  read from file:
     ~/Documents/TA/PWDFT.jl/pseudopotentials/scan_upf/F.SCAN.UPF2
     MD5 check sum: Not computed, couldn't open file
     Pseudo is Norm-conserving, Zval =  7.0
     Generated by new atomic code, or converted to UPF format
     Using radial grid of 1431 points,  1 beta functions with: 
                l(1) =   0

     atomic species   valence    mass     pseudopotential
        Li             1.00     6.94100     Li( 1.00)
        F              7.00    18.99800     F ( 1.00)

     48 Sym. Ops., with inversion, found



   Cartesian axes

     site n.     atom                  positions (alat units)
         1           Li  tau(   1) = (   0.0000000   0.0000000   0.0000000  )
         2           F   tau(   2) = (   0.5000000   0.5000000   0.5000000  )

     number of k points=    47
                       cart. coord. in units 2pi/alat
        k(    1) = (   0.0000000   0.0000000   0.0000000), wk =   0.0020000
        k(    2) = (  -0.1000000   0.1000000  -0.1000000), wk =   0.0160000
        k(    3) = (  -0.2000000   0.2000000  -0.2000000), wk =   0.0160000
        k(    4) = (  -0.3000000   0.3000000  -0.3000000), wk =   0.0160000
        k(    5) = (  -0.4000000   0.4000000  -0.4000000), wk =   0.0160000
        k(    6) = (   0.5000000  -0.5000000   0.5000000), wk =   0.0080000
        k(    7) = (   0.0000000   0.2000000   0.0000000), wk =   0.0120000
        k(    8) = (  -0.1000000   0.3000000  -0.1000000), wk =   0.0480000
        k(    9) = (  -0.2000000   0.4000000  -0.2000000), wk =   0.0480000
        k(   10) = (  -0.3000000   0.5000000  -0.3000000), wk =   0.0480000
        k(   11) = (   0.6000000  -0.4000000   0.6000000), wk =   0.0480000
        k(   12) = (   0.5000000  -0.3000000   0.5000000), wk =   0.0480000
        k(   13) = (   0.4000000  -0.2000000   0.4000000), wk =   0.0480000
        k(   14) = (   0.3000000  -0.1000000   0.3000000), wk =   0.0480000
        k(   15) = (   0.2000000   0.0000000   0.2000000), wk =   0.0240000
        k(   16) = (   0.0000000   0.4000000   0.0000000), wk =   0.0120000
        k(   17) = (  -0.1000000   0.5000000  -0.1000000), wk =   0.0480000
        k(   18) = (  -0.2000000   0.6000000  -0.2000000), wk =   0.0480000
        k(   19) = (   0.7000000  -0.3000000   0.7000000), wk =   0.0480000
        k(   20) = (   0.6000000  -0.2000000   0.6000000), wk =   0.0480000
        k(   21) = (   0.5000000  -0.1000000   0.5000000), wk =   0.0480000
        k(   22) = (   0.4000000   0.0000000   0.4000000), wk =   0.0240000
        k(   23) = (   0.0000000   0.6000000   0.0000000), wk =   0.0120000
        k(   24) = (  -0.1000000   0.7000000  -0.1000000), wk =   0.0480000
        k(   25) = (   0.8000000  -0.2000000   0.8000000), wk =   0.0480000
        k(   26) = (   0.7000000  -0.1000000   0.7000000), wk =   0.0480000
        k(   27) = (   0.6000000  -0.0000000   0.6000000), wk =   0.0240000
        k(   28) = (   0.0000000   0.8000000   0.0000000), wk =   0.0120000
        k(   29) = (   0.9000000  -0.1000000   0.9000000), wk =   0.0480000
        k(   30) = (   0.8000000   0.0000000   0.8000000), wk =   0.0240000
        k(   31) = (   0.0000000  -1.0000000   0.0000000), wk =   0.0060000
        k(   32) = (  -0.2000000   0.4000000   0.0000000), wk =   0.0480000
        k(   33) = (  -0.3000000   0.5000000  -0.1000000), wk =   0.0960000
        k(   34) = (   0.6000000  -0.4000000   0.8000000), wk =   0.0960000
        k(   35) = (   0.5000000  -0.3000000   0.7000000), wk =   0.0480000
        k(   36) = (  -0.2000000   0.6000000   0.0000000), wk =   0.0480000
        k(   37) = (   0.7000000  -0.3000000   0.9000000), wk =   0.0960000
        k(   38) = (   0.6000000  -0.2000000   0.8000000), wk =   0.0960000
        k(   39) = (   0.5000000  -0.1000000   0.7000000), wk =   0.0960000
        k(   40) = (   0.4000000   0.0000000   0.6000000), wk =   0.0480000
        k(   41) = (   0.8000000  -0.2000000   1.0000000), wk =   0.0480000
        k(   42) = (   0.7000000  -0.1000000   0.9000000), wk =   0.0960000
        k(   43) = (   0.6000000   0.0000000   0.8000000), wk =   0.0480000
        k(   44) = (  -0.2000000  -1.0000000   0.0000000), wk =   0.0240000
        k(   45) = (   0.6000000  -0.2000000   1.0000000), wk =   0.0480000
        k(   46) = (   0.5000000  -0.1000000   0.9000000), wk =   0.0480000
        k(   47) = (  -0.4000000  -1.0000000   0.0000000), wk =   0.0240000

     Dense  grid:     8363 G-vectors     FFT dimensions: (  30,  30,  30)

     Estimated max dynamical RAM per process >      15.90 MB

     WARNING: libxc functional with ID  263 depends
      on external parameters: check the user_guide of
      QE if you need to modify them or to check their
      default values.

     Initial potential from superposition of free atoms

     starting charge       7.9953, renormalised to       8.0000
     Starting wfcs are    8 randomized atomic wfcs

     total cpu time spent up to now is        2.6 secs

     Self-consistent Calculation

     iteration #  1     ecut=    50.00 Ry     beta= 0.01
     Davidson diagonalization with overlap
     ethr =  1.00E-02,  avg # of iterations =  2.0

     total cpu time spent up to now is        6.1 secs

     total energy              =     -48.50994459 Ry
     estimated scf accuracy    <      17.63914043 Ry

     iteration #  2     ecut=    50.00 Ry     beta= 0.01
     Davidson diagonalization with overlap
     ethr =  1.00E-02,  avg # of iterations =  1.0

     total cpu time spent up to now is        8.6 secs

     total energy              =     -48.59396376 Ry
     estimated scf accuracy    <      17.38250077 Ry

     iteration #  3     ecut=    50.00 Ry     beta= 0.01
     Davidson diagonalization with overlap
     ethr =  1.00E-02,  avg # of iterations =  1.0

     total cpu time spent up to now is       11.4 secs

     total energy              =     -48.59462958 Ry
     estimated scf accuracy    <       1.72066949 Ry

     iteration #  4     ecut=    50.00 Ry     beta= 0.01
     Davidson diagonalization with overlap
     ethr =  1.00E-02,  avg # of iterations =  1.0

     total cpu time spent up to now is       14.0 secs

     total energy              =     -48.59573285 Ry
     estimated scf accuracy    <       0.01805831 Ry

     iteration #  5     ecut=    50.00 Ry     beta= 0.01
     Davidson diagonalization with overlap
     ethr =  2.26E-04,  avg # of iterations =  1.0

     total cpu time spent up to now is       16.5 secs

     total energy              =     -48.59578229 Ry
     estimated scf accuracy    <       0.02402110 Ry

     iteration #  6     ecut=    50.00 Ry     beta= 0.01
     Davidson diagonalization with overlap
     ethr =  2.26E-04,  avg # of iterations =  1.0

     total cpu time spent up to now is       19.0 secs

     total energy              =     -48.59816048 Ry
     estimated scf accuracy    <       0.02674859 Ry

     iteration #  7     ecut=    50.00 Ry     beta= 0.01
     Davidson diagonalization with overlap
     ethr =  2.26E-04,  avg # of iterations =  1.0

     total cpu time spent up to now is       21.2 secs

     total energy              =     -48.59955008 Ry
     estimated scf accuracy    <       0.01933430 Ry

     iteration #  8     ecut=    50.00 Ry     beta= 0.01
     Davidson diagonalization with overlap
     ethr =  2.26E-04,  avg # of iterations =  1.0

     total cpu time spent up to now is       23.1 secs

     total energy              =     -48.59962469 Ry
     estimated scf accuracy    <       0.02587869 Ry

     iteration #  9     ecut=    50.00 Ry     beta= 0.01
     Davidson diagonalization with overlap
     ethr =  2.26E-04,  avg # of iterations =  1.0

     total cpu time spent up to now is       25.0 secs

     total energy              =     -48.59936575 Ry
     estimated scf accuracy    <       0.02568868 Ry

     iteration # 10     ecut=    50.00 Ry     beta= 0.01
     Davidson diagonalization with overlap
     ethr =  2.26E-04,  avg # of iterations =  1.0

     total cpu time spent up to now is       26.8 secs

     total energy              =     -48.59944712 Ry
     estimated scf accuracy    <       0.01356721 Ry

     iteration # 11     ecut=    50.00 Ry     beta= 0.01
     Davidson diagonalization with overlap
     ethr =  1.70E-04,  avg # of iterations =  1.0

     total cpu time spent up to now is       28.3 secs

     total energy              =     -48.59915121 Ry
     estimated scf accuracy    <       0.01298798 Ry

     iteration # 12     ecut=    50.00 Ry     beta= 0.01
     Davidson diagonalization with overlap
     ethr =  1.62E-04,  avg # of iterations =  1.0

     total cpu time spent up to now is       29.7 secs

     total energy              =     -48.59913811 Ry
     estimated scf accuracy    <       0.00229340 Ry

     iteration # 13     ecut=    50.00 Ry     beta= 0.01
     Davidson diagonalization with overlap
     ethr =  2.87E-05,  avg # of iterations =  1.0

     total cpu time spent up to now is       30.8 secs

     total energy              =     -48.59919904 Ry
     estimated scf accuracy    <       0.00030795 Ry

     iteration # 14     ecut=    50.00 Ry     beta= 0.01
     Davidson diagonalization with overlap
     ethr =  3.85E-06,  avg # of iterations =  1.0

     total cpu time spent up to now is       31.5 secs

     total energy              =     -48.59920598 Ry
     estimated scf accuracy    <       0.00033437 Ry

     iteration # 15     ecut=    50.00 Ry     beta= 0.01
     Davidson diagonalization with overlap
     ethr =  3.85E-06,  avg # of iterations =  1.0

     total cpu time spent up to now is       32.1 secs

     total energy              =     -48.59920714 Ry
     estimated scf accuracy    <       0.00032470 Ry

     iteration # 16     ecut=    50.00 Ry     beta= 0.01
     Davidson diagonalization with overlap
     ethr =  3.85E-06,  avg # of iterations =  1.0

     total cpu time spent up to now is       32.8 secs

     total energy              =     -48.59921172 Ry
     estimated scf accuracy    <       0.00041732 Ry

     iteration # 17     ecut=    50.00 Ry     beta= 0.01
     Davidson diagonalization with overlap
     ethr =  3.85E-06,  avg # of iterations =  1.0

     total cpu time spent up to now is       33.5 secs

     total energy              =     -48.59920763 Ry
     estimated scf accuracy    <       0.00066224 Ry

     iteration # 18     ecut=    50.00 Ry     beta= 0.01
     Davidson diagonalization with overlap
     ethr =  3.85E-06,  avg # of iterations =  1.0

     total cpu time spent up to now is       34.1 secs

     total energy              =     -48.59921121 Ry
     estimated scf accuracy    <       0.00000260 Ry

     iteration # 19     ecut=    50.00 Ry     beta= 0.01
     Davidson diagonalization with overlap
     ethr =  3.25E-08,  avg # of iterations =  1.9

     total cpu time spent up to now is       34.9 secs

     total energy              =     -48.59921043 Ry
     estimated scf accuracy    <       0.00000804 Ry

     iteration # 20     ecut=    50.00 Ry     beta= 0.01
     Davidson diagonalization with overlap
     ethr =  3.25E-08,  avg # of iterations =  2.0

     total cpu time spent up to now is       35.7 secs

     total energy              =     -48.59921230 Ry
     estimated scf accuracy    <       0.00000523 Ry

     iteration # 21     ecut=    50.00 Ry     beta= 0.01
     Davidson diagonalization with overlap
     ethr =  3.25E-08,  avg # of iterations =  2.0

     total cpu time spent up to now is       36.5 secs

     total energy              =     -48.59920925 Ry
     estimated scf accuracy    <       0.00002701 Ry

     iteration # 22     ecut=    50.00 Ry     beta= 0.01
     Davidson diagonalization with overlap
     ethr =  3.25E-08,  avg # of iterations =  2.0

     total cpu time spent up to now is       37.4 secs

     total energy              =     -48.59921120 Ry
     estimated scf accuracy    <       0.00001654 Ry

     iteration # 23     ecut=    50.00 Ry     beta= 0.01
     Davidson diagonalization with overlap
     ethr =  3.25E-08,  avg # of iterations =  2.0

     total cpu time spent up to now is       38.2 secs

     total energy              =     -48.59921201 Ry
     estimated scf accuracy    <       0.00001070 Ry

     iteration # 24     ecut=    50.00 Ry     beta= 0.01
     Davidson diagonalization with overlap
     ethr =  3.25E-08,  avg # of iterations =  2.0

     total cpu time spent up to now is       39.1 secs

     total energy              =     -48.59921280 Ry
     estimated scf accuracy    <       0.00000430 Ry

     iteration # 25     ecut=    50.00 Ry     beta= 0.01
     Davidson diagonalization with overlap
     ethr =  3.25E-08,  avg # of iterations =  1.0

     total cpu time spent up to now is       39.8 secs

     total energy              =     -48.59921281 Ry
     estimated scf accuracy    <       0.00000444 Ry

     iteration # 26     ecut=    50.00 Ry     beta= 0.01
     Davidson diagonalization with overlap
     ethr =  3.25E-08,  avg # of iterations =  1.0

     total cpu time spent up to now is       40.4 secs

     total energy              =     -48.59921282 Ry
     estimated scf accuracy    <       0.00000460 Ry

     iteration # 27     ecut=    50.00 Ry     beta= 0.01
     Davidson diagonalization with overlap
     ethr =  3.25E-08,  avg # of iterations =  1.0

     total cpu time spent up to now is       41.1 secs

     total energy              =     -48.59921265 Ry
     estimated scf accuracy    <       0.00000478 Ry

     iteration # 28     ecut=    50.00 Ry     beta= 0.01
     Davidson diagonalization with overlap
     ethr =  3.25E-08,  avg # of iterations =  1.0

     total cpu time spent up to now is       41.7 secs

     End of self-consistent calculation

          k = 0.0000 0.0000 0.0000 (  1037 PWs)   bands (ev):

   -23.5875  -2.5452  -2.5452  -2.5452

          k =-0.1000 0.1000-0.1000 (  1007 PWs)   bands (ev):

   -23.5710  -2.6474  -2.4780  -2.4780

          k =-0.2000 0.2000-0.2000 (  1007 PWs)   bands (ev):

   -23.5312  -3.0891  -2.4956  -2.4956

          k =-0.3000 0.3000-0.3000 (  1023 PWs)   bands (ev):

   -23.4823  -3.5956  -2.5634  -2.5634

          k =-0.4000 0.4000-0.4000 (  1038 PWs)   bands (ev):

   -23.4425  -3.9218  -2.6557  -2.6557

          k = 0.5000-0.5000 0.5000 (  1056 PWs)   bands (ev):

   -23.4278  -4.1133  -2.6932  -2.6932

          k = 0.0000 0.2000 0.0000 (  1006 PWs)   bands (ev):

   -23.5659  -2.6389  -2.5157  -2.5157

          k =-0.1000 0.3000-0.1000 (  1016 PWs)   bands (ev):

   -23.5347  -3.0033  -2.5755  -2.5686

          k =-0.2000 0.4000-0.2000 (  1024 PWs)   bands (ev):

   -23.4884  -3.4652  -2.6310  -2.6204

          k =-0.3000 0.5000-0.3000 (  1028 PWs)   bands (ev):

   -23.4446  -3.8069  -2.6972  -2.6759

          k = 0.6000-0.4000 0.6000 (  1029 PWs)   bands (ev):

   -23.4204  -3.9796  -2.7448  -2.6820

          k = 0.5000-0.3000 0.5000 (  1035 PWs)   bands (ev):

   -23.4260  -3.9483  -2.7980  -2.6608

          k = 0.4000-0.2000 0.4000 (  1040 PWs)   bands (ev):

   -23.4590  -3.7294  -2.7933  -2.6161

          k = 0.3000-0.1000 0.3000 (  1027 PWs)   bands (ev):

   -23.5053  -3.3246  -2.6993  -2.5322

          k = 0.2000 0.0000 0.2000 (  1005 PWs)   bands (ev):

   -23.5475  -2.8786  -2.5589  -2.4474

          k = 0.0000 0.4000 0.0000 (  1010 PWs)   bands (ev):

   -23.5121  -3.1097  -2.6387  -2.6387

          k =-0.1000 0.5000-0.1000 (  1021 PWs)   bands (ev):

   -23.4736  -3.4316  -2.7601  -2.7333

          k =-0.2000 0.6000-0.2000 (  1036 PWs)   bands (ev):

   -23.4330  -3.7526  -2.9177  -2.7985

          k = 0.7000-0.3000 0.7000 (  1031 PWs)   bands (ev):

   -23.4050  -3.8843  -3.0419  -2.7636

          k = 0.6000-0.2000 0.6000 (  1032 PWs)   bands (ev):

   -23.4020  -3.8595  -3.1523  -2.7018

          k = 0.5000-0.1000 0.5000 (  1036 PWs)   bands (ev):

   -23.4252  -3.7213  -3.1472  -2.6457

          k = 0.4000 0.0000 0.4000 (  1023 PWs)   bands (ev):

   -23.4641  -3.5220  -2.9281  -2.5348

          k = 0.0000 0.6000 0.0000 (  1030 PWs)   bands (ev):

   -23.4444  -3.6519  -2.8536  -2.8536

          k =-0.1000 0.7000-0.1000 (  1039 PWs)   bands (ev):

   -23.4110  -3.8575  -3.0057  -2.9262

          k = 0.8000-0.2000 0.8000 (  1031 PWs)   bands (ev):

   -23.3857  -3.8979  -3.1754  -2.8975

          k = 0.7000-0.1000 0.7000 (  1040 PWs)   bands (ev):

   -23.3801  -3.7981  -3.4287  -2.8586

          k = 0.6000-0.0000 0.6000 (  1029 PWs)   bands (ev):

   -23.3945  -3.6309  -3.4534  -2.7340

          k = 0.0000 0.8000 0.0000 (  1034 PWs)   bands (ev):

   -23.3866  -4.0243  -2.9941  -2.9941

          k = 0.9000-0.1000 0.9000 (  1031 PWs)   bands (ev):

   -23.3699  -4.0354  -3.1227  -3.0035

          k = 0.8000 0.0000 0.8000 (  1037 PWs)   bands (ev):

   -23.3677  -3.9561  -3.3140  -2.9555

          k = 0.0000-1.0000 0.0000 (  1034 PWs)   bands (ev):

   -23.3641  -4.1310  -3.0597  -3.0597

          k =-0.2000 0.4000 0.0000 (  1024 PWs)   bands (ev):

   -23.4997  -3.2788  -2.7533  -2.5969

          k =-0.3000 0.5000-0.1000 (  1032 PWs)   bands (ev):

   -23.4558  -3.6136  -2.9094  -2.6420

          k = 0.6000-0.4000 0.8000 (  1041 PWs)   bands (ev):

   -23.4201  -3.8464  -3.0150  -2.7349

          k = 0.5000-0.3000 0.7000 (  1036 PWs)   bands (ev):

   -23.4059  -3.9267  -3.0116  -2.7482

          k =-0.2000 0.6000 0.0000 (  1036 PWs)   bands (ev):

   -23.4378  -3.6856  -2.9603  -2.8070

          k = 0.7000-0.3000 0.9000 (  1041 PWs)   bands (ev):

   -23.4046  -3.8115  -3.1563  -2.8728

          k = 0.6000-0.2000 0.8000 (  1037 PWs)   bands (ev):

   -23.3871  -3.8170  -3.2926  -2.8663

          k = 0.5000-0.1000 0.7000 (  1034 PWs)   bands (ev):

   -23.3926  -3.7425  -3.3471  -2.7945

          k = 0.4000 0.0000 0.6000 (  1036 PWs)   bands (ev):

   -23.4193  -3.6937  -3.2085  -2.7110

          k = 0.8000-0.2000 1.0000 (  1032 PWs)   bands (ev):

   -23.3851  -3.9287  -3.1012  -2.9756

          k = 0.7000-0.1000 0.9000 (  1035 PWs)   bands (ev):

   -23.3712  -3.8862  -3.3106  -2.9744

          k = 0.6000 0.0000 0.8000 (  1036 PWs)   bands (ev):

   -23.3742  -3.7066  -3.5292  -2.8979

          k =-0.2000-1.0000 0.0000 (  1030 PWs)   bands (ev):

   -23.3645  -4.0048  -3.1716  -3.0365

          k = 0.6000-0.2000 1.0000 (  1043 PWs)   bands (ev):

   -23.3814  -3.7762  -3.3948  -2.9512

          k = 0.5000-0.1000 0.9000 (  1036 PWs)   bands (ev):

   -23.3720  -3.6739  -3.5196  -2.9772

          k =-0.4000-1.0000 0.0000 (  1042 PWs)   bands (ev):

   -23.3663  -3.7769  -3.4782  -3.0382

     highest occupied level (ev):    -2.4474

!    total energy              =     -48.59921261 Ry
     estimated scf accuracy    <       0.00000043 Ry

     The total energy is the sum of the following terms:
     one-electron contribution =     -30.88094836 Ry
     hartree contribution      =      19.66686457 Ry
     xc contribution           =      -9.73908358 Ry
     ewald contribution        =     -27.64604525 Ry

     convergence has been achieved in  28 iterations
     Writing meta-gga kinetic term

     Writing all to output data dir ./input_pw/LiF/15/pwscf.save/
     Writing meta-gga kinetic term
 
     init_run     :      1.11s CPU      2.60s WALL (       1 calls)
     electrons    :     27.40s CPU     39.11s WALL (       1 calls)

     Called by init_run:
     wfcinit      :      1.02s CPU      2.44s WALL (       1 calls)
     potinit      :      0.02s CPU      0.07s WALL (       1 calls)
     hinit0       :      0.06s CPU      0.07s WALL (       1 calls)

     Called by electrons:
     c_bands      :     21.41s CPU     30.66s WALL (      28 calls)
     sum_band     :      5.25s CPU      7.42s WALL (      28 calls)
     v_of_rho     :      0.38s CPU      0.57s WALL (      29 calls)
     mix_rho      :      0.37s CPU      0.51s WALL (      28 calls)

     Called by c_bands:
     init_us_2    :      0.10s CPU      0.10s WALL (    2679 calls)
     init_us_2:cp :      0.10s CPU      0.10s WALL (    2679 calls)
     cegterg      :     21.31s CPU     30.52s WALL (    1316 calls)

     Called by *egterg:
     cdiaghg      :      0.08s CPU      0.10s WALL (    2956 calls)
     h_psi        :     21.97s CPU     32.39s WALL (    3003 calls)
     g_psi        :      0.02s CPU      0.04s WALL (    1640 calls)

     Called by h_psi:
     h_psi:calbec :      0.03s CPU      0.05s WALL (    3003 calls)
     vloc_psi     :      5.44s CPU      8.21s WALL (    3003 calls)
     add_vuspsi   :      0.05s CPU      0.08s WALL (    3003 calls)
     h_psi_meta   :     16.41s CPU     24.03s WALL (    3003 calls)

     General routines
     calbec       :      0.02s CPU      0.04s WALL (    3003 calls)
     fft          :      0.07s CPU      0.09s WALL (     345 calls)
     ffts         :      0.19s CPU      0.25s WALL (     935 calls)
     fftw         :     24.30s CPU     35.48s WALL (  115608 calls)
     interpolate  :      0.00s CPU      0.00s WALL (      29 calls)
 
     Parallel routines
 
     PWSCF        :     28.56s CPU     41.76s WALL

 
   This run was terminated on:   9:44:27  10Apr2023            

=------------------------------------------------------------------------------=
   JOB DONE.
=------------------------------------------------------------------------------=
