
     Program PWSCF v.7.0 starts on  7Jul2023 at 14:23:45 

     This program is part of the open-source Quantum ESPRESSO suite
     for quantum simulation of materials; please cite
         "P. Giannozzi et al., J. Phys.:Condens. Matter 21 395502 (2009);
         "P. Giannozzi et al., J. Phys.:Condens. Matter 29 465901 (2017);
         "P. Giannozzi et al., J. Chem. Phys. 152 154105 (2020);
          URL http://www.quantum-espresso.org", 
     in publications or presentations arising from this work. More details at
     http://www.quantum-espresso.org/quote

     Parallel version (MPI), running on     1 processors

     MPI processes distributed on     1 nodes
     27254 MiB available memory on the printing compute node when the environment starts
 
     Waiting for input...
     Reading input from standard input
Warning: card &CELL ignored
Warning: card / ignored

     Current dimensions of program PWSCF are:
     Max number of different atomic species (ntypx) = 10
     Max number of k-points (npk) =  40000
     Max angular momentum in pseudopotentials (lmaxx) =  4

     WARNING: the MGGA functional with ID    5 has been 
     read together with other dft terms, but it should 
     stand alone in order to work properly. The other 
     terms will be ignored.

     WARNING: the MGGA functional with ID    5 has been 
     read together with other dft terms, but it should 
     stand alone in order to work properly. The other 
     terms will be ignored.

     Subspace diagonalization in iterative solution of the eigenvalue problem:
     a serial algorithm will be used

 
     G-vector sticks info
     --------------------
     sticks:   dense  smooth     PW     G-vecs:    dense   smooth      PW
     Sum         649     649    199                11017    11017    1917
 
     Using Slab Decomposition
 


     bravais-lattice index     =            2
     lattice parameter (alat)  =       9.7510  a.u.
     unit-cell volume          =     231.7852 (a.u.)^3
     number of atoms/cell      =            2
     number of atomic types    =            2
     number of electrons       =         8.00
     number of Kohn-Sham states=            4
     kinetic-energy cutoff     =      50.0000  Ry
     charge density cutoff     =     200.0000  Ry
     scf convergence threshold =      2.0E-05
     mixing beta               =       0.2000
     number of iterations used =            8  local-TF  mixing
     Exchange-correlation= SLA  PW   SCAN SCAN
                           (   0   0   0   0   0 263 267)

     celldm(1)=   9.750987  celldm(2)=   0.000000  celldm(3)=   0.000000
     celldm(4)=   0.000000  celldm(5)=   0.000000  celldm(6)=   0.000000

     crystal axes: (cart. coord. in units of alat)
               a(1) = (  -0.500000   0.000000   0.500000 )  
               a(2) = (   0.000000   0.500000   0.500000 )  
               a(3) = (  -0.500000   0.500000   0.000000 )  

     reciprocal axes: (cart. coord. in units 2 pi/alat)
               b(1) = ( -1.000000 -1.000000  1.000000 )  
               b(2) = (  1.000000  1.000000  1.000000 )  
               b(3) = ( -1.000000  1.000000 -1.000000 )  


     PseudoPot. # 1 for Li read from file:
     ~/Documents/TA/PWDFT.jl/pseudopotentials/scan_upf/Li.SCAN.UPF2
     MD5 check sum: Not computed, couldn't open file
     Pseudo is Norm-conserving, Zval =  1.0
     Generated by new atomic code, or converted to UPF format
     Using radial grid of 1321 points,  1 beta functions with: 
                l(1) =   0

     PseudoPot. # 2 for F  read from file:
     ~/Documents/TA/PWDFT.jl/pseudopotentials/scan_upf/F.SCAN.UPF2
     MD5 check sum: Not computed, couldn't open file
     Pseudo is Norm-conserving, Zval =  7.0
     Generated by new atomic code, or converted to UPF format
     Using radial grid of 1431 points,  1 beta functions with: 
                l(1) =   0

     atomic species   valence    mass     pseudopotential
        Li             1.00     6.94100     Li( 1.00)
        F              7.00    18.99800     F ( 1.00)

     48 Sym. Ops., with inversion, found



   Cartesian axes

     site n.     atom                  positions (alat units)
         1           Li  tau(   1) = (   0.0000000   0.0000000   0.0000000  )
         2           F   tau(   2) = (   0.5000000   0.5000000   0.5000000  )

     number of k points=    47
                       cart. coord. in units 2pi/alat
        k(    1) = (   0.0000000   0.0000000   0.0000000), wk =   0.0020000
        k(    2) = (  -0.1000000   0.1000000  -0.1000000), wk =   0.0160000
        k(    3) = (  -0.2000000   0.2000000  -0.2000000), wk =   0.0160000
        k(    4) = (  -0.3000000   0.3000000  -0.3000000), wk =   0.0160000
        k(    5) = (  -0.4000000   0.4000000  -0.4000000), wk =   0.0160000
        k(    6) = (   0.5000000  -0.5000000   0.5000000), wk =   0.0080000
        k(    7) = (   0.0000000   0.2000000   0.0000000), wk =   0.0120000
        k(    8) = (  -0.1000000   0.3000000  -0.1000000), wk =   0.0480000
        k(    9) = (  -0.2000000   0.4000000  -0.2000000), wk =   0.0480000
        k(   10) = (  -0.3000000   0.5000000  -0.3000000), wk =   0.0480000
        k(   11) = (   0.6000000  -0.4000000   0.6000000), wk =   0.0480000
        k(   12) = (   0.5000000  -0.3000000   0.5000000), wk =   0.0480000
        k(   13) = (   0.4000000  -0.2000000   0.4000000), wk =   0.0480000
        k(   14) = (   0.3000000  -0.1000000   0.3000000), wk =   0.0480000
        k(   15) = (   0.2000000   0.0000000   0.2000000), wk =   0.0240000
        k(   16) = (   0.0000000   0.4000000   0.0000000), wk =   0.0120000
        k(   17) = (  -0.1000000   0.5000000  -0.1000000), wk =   0.0480000
        k(   18) = (  -0.2000000   0.6000000  -0.2000000), wk =   0.0480000
        k(   19) = (   0.7000000  -0.3000000   0.7000000), wk =   0.0480000
        k(   20) = (   0.6000000  -0.2000000   0.6000000), wk =   0.0480000
        k(   21) = (   0.5000000  -0.1000000   0.5000000), wk =   0.0480000
        k(   22) = (   0.4000000   0.0000000   0.4000000), wk =   0.0240000
        k(   23) = (   0.0000000   0.6000000   0.0000000), wk =   0.0120000
        k(   24) = (  -0.1000000   0.7000000  -0.1000000), wk =   0.0480000
        k(   25) = (   0.8000000  -0.2000000   0.8000000), wk =   0.0480000
        k(   26) = (   0.7000000  -0.1000000   0.7000000), wk =   0.0480000
        k(   27) = (   0.6000000  -0.0000000   0.6000000), wk =   0.0240000
        k(   28) = (   0.0000000   0.8000000   0.0000000), wk =   0.0120000
        k(   29) = (   0.9000000  -0.1000000   0.9000000), wk =   0.0480000
        k(   30) = (   0.8000000   0.0000000   0.8000000), wk =   0.0240000
        k(   31) = (   0.0000000  -1.0000000   0.0000000), wk =   0.0060000
        k(   32) = (  -0.2000000   0.4000000   0.0000000), wk =   0.0480000
        k(   33) = (  -0.3000000   0.5000000  -0.1000000), wk =   0.0960000
        k(   34) = (   0.6000000  -0.4000000   0.8000000), wk =   0.0960000
        k(   35) = (   0.5000000  -0.3000000   0.7000000), wk =   0.0480000
        k(   36) = (  -0.2000000   0.6000000   0.0000000), wk =   0.0480000
        k(   37) = (   0.7000000  -0.3000000   0.9000000), wk =   0.0960000
        k(   38) = (   0.6000000  -0.2000000   0.8000000), wk =   0.0960000
        k(   39) = (   0.5000000  -0.1000000   0.7000000), wk =   0.0960000
        k(   40) = (   0.4000000   0.0000000   0.6000000), wk =   0.0480000
        k(   41) = (   0.8000000  -0.2000000   1.0000000), wk =   0.0480000
        k(   42) = (   0.7000000  -0.1000000   0.9000000), wk =   0.0960000
        k(   43) = (   0.6000000   0.0000000   0.8000000), wk =   0.0480000
        k(   44) = (  -0.2000000  -1.0000000   0.0000000), wk =   0.0240000
        k(   45) = (   0.6000000  -0.2000000   1.0000000), wk =   0.0480000
        k(   46) = (   0.5000000  -0.1000000   0.9000000), wk =   0.0480000
        k(   47) = (  -0.4000000  -1.0000000   0.0000000), wk =   0.0240000

     Dense  grid:    11017 G-vectors     FFT dimensions: (  32,  32,  32)

     Estimated max dynamical RAM per process >      20.69 MB

     WARNING: libxc functional with ID  263 depends
      on external parameters: check the user_guide of
      QE if you need to modify them or to check their
      default values.

     Initial potential from superposition of free atoms

     starting charge       7.9953, renormalised to       8.0000
     Starting wfcs are    8 randomized atomic wfcs

     total cpu time spent up to now is        1.5 secs

     Self-consistent Calculation

     iteration #  1     ecut=    50.00 Ry     beta= 0.20
     Davidson diagonalization with overlap
     ethr =  1.00E-02,  avg # of iterations =  2.0

     total cpu time spent up to now is        4.0 secs

     total energy              =     -48.55904466 Ry
     estimated scf accuracy    <      17.94298798 Ry

     iteration #  2     ecut=    50.00 Ry     beta= 0.20
     Davidson diagonalization with overlap
     ethr =  1.00E-02,  avg # of iterations =  1.0

     total cpu time spent up to now is        6.0 secs

     total energy              =     -48.54498581 Ry
     estimated scf accuracy    <      11.66104819 Ry

     iteration #  3     ecut=    50.00 Ry     beta= 0.20
     Davidson diagonalization with overlap
     ethr =  1.00E-02,  avg # of iterations =  1.0

     total cpu time spent up to now is        8.0 secs

     total energy              =     -48.55552500 Ry
     estimated scf accuracy    <       0.07980105 Ry

     iteration #  4     ecut=    50.00 Ry     beta= 0.20
     Davidson diagonalization with overlap
     ethr =  9.98E-04,  avg # of iterations =  1.0

     total cpu time spent up to now is        9.9 secs

     total energy              =     -48.55745022 Ry
     estimated scf accuracy    <       0.06332788 Ry

     iteration #  5     ecut=    50.00 Ry     beta= 0.20
     Davidson diagonalization with overlap
     ethr =  7.92E-04,  avg # of iterations =  1.0

     total cpu time spent up to now is       11.8 secs

     total energy              =     -48.55921579 Ry
     estimated scf accuracy    <       0.02758838 Ry

     iteration #  6     ecut=    50.00 Ry     beta= 0.20
     Davidson diagonalization with overlap
     ethr =  3.45E-04,  avg # of iterations =  1.0

     total cpu time spent up to now is       13.1 secs

     total energy              =     -48.55940668 Ry
     estimated scf accuracy    <       0.00625424 Ry

     iteration #  7     ecut=    50.00 Ry     beta= 0.20
     Davidson diagonalization with overlap
     ethr =  7.82E-05,  avg # of iterations =  1.0

     total cpu time spent up to now is       14.5 secs

     total energy              =     -48.55952393 Ry
     estimated scf accuracy    <       0.00018441 Ry

     iteration #  8     ecut=    50.00 Ry     beta= 0.20
     Davidson diagonalization with overlap
     ethr =  2.31E-06,  avg # of iterations =  1.2

     total cpu time spent up to now is       15.7 secs

     total energy              =     -48.55951830 Ry
     estimated scf accuracy    <       0.00104938 Ry

     iteration #  9     ecut=    50.00 Ry     beta= 0.20
     Davidson diagonalization with overlap
     ethr =  2.31E-06,  avg # of iterations =  1.0

     total cpu time spent up to now is       17.1 secs

     total energy              =     -48.55950554 Ry
     estimated scf accuracy    <       0.00052235 Ry

     iteration # 10     ecut=    50.00 Ry     beta= 0.20
     Davidson diagonalization with overlap
     ethr =  2.31E-06,  avg # of iterations =  1.0

     total cpu time spent up to now is       17.9 secs

     End of self-consistent calculation

          k = 0.0000 0.0000 0.0000 (  1411 PWs)   bands (ev):

   -24.2134  -3.5122  -3.5122  -3.5122

          k =-0.1000 0.1000-0.1000 (  1390 PWs)   bands (ev):

   -24.2063  -3.5930  -3.4702  -3.4702

          k =-0.2000 0.2000-0.2000 (  1387 PWs)   bands (ev):

   -24.1899  -3.8065  -3.5104  -3.5104

          k =-0.3000 0.3000-0.3000 (  1387 PWs)   bands (ev):

   -24.1694  -4.0983  -3.5298  -3.5298

          k =-0.4000 0.4000-0.4000 (  1389 PWs)   bands (ev):

   -24.1529  -4.3499  -3.5254  -3.5254

          k = 0.5000-0.5000 0.5000 (  1380 PWs)   bands (ev):

   -24.1462  -4.3789  -3.5303  -3.5303

          k = 0.0000 0.2000 0.0000 (  1399 PWs)   bands (ev):

   -24.2046  -3.6173  -3.5075  -3.5075

          k =-0.1000 0.3000-0.1000 (  1382 PWs)   bands (ev):

   -24.1908  -3.7290  -3.5352  -3.5155

          k =-0.2000 0.4000-0.2000 (  1381 PWs)   bands (ev):

   -24.1717  -3.9997  -3.5682  -3.5351

          k =-0.3000 0.5000-0.3000 (  1388 PWs)   bands (ev):

   -24.1540  -4.2664  -3.5713  -3.5699

          k = 0.6000-0.4000 0.6000 (  1391 PWs)   bands (ev):

   -24.1443  -4.3839  -3.6150  -3.5608

          k = 0.5000-0.3000 0.5000 (  1385 PWs)   bands (ev):

   -24.1462  -4.3592  -3.6077  -3.5269

          k = 0.4000-0.2000 0.4000 (  1382 PWs)   bands (ev):

   -24.1594  -4.1944  -3.5998  -3.4943

          k = 0.3000-0.1000 0.3000 (  1373 PWs)   bands (ev):

   -24.1783  -3.9040  -3.5522  -3.4849

          k = 0.2000 0.0000 0.2000 (  1387 PWs)   bands (ev):

   -24.1966  -3.6923  -3.5268  -3.4868

          k = 0.0000 0.4000 0.0000 (  1375 PWs)   bands (ev):

   -24.1815  -3.7920  -3.5618  -3.5618

          k =-0.1000 0.5000-0.1000 (  1375 PWs)   bands (ev):

   -24.1656  -3.9964  -3.5988  -3.5946

          k =-0.2000 0.6000-0.2000 (  1378 PWs)   bands (ev):

   -24.1490  -4.2028  -3.6661  -3.5982

          k = 0.7000-0.3000 0.7000 (  1391 PWs)   bands (ev):

   -24.1383  -4.3133  -3.7690  -3.6236

          k = 0.6000-0.2000 0.6000 (  1382 PWs)   bands (ev):

   -24.1367  -4.2980  -3.8010  -3.5698

          k = 0.5000-0.1000 0.5000 (  1381 PWs)   bands (ev):

   -24.1458  -4.1957  -3.7873  -3.5390

          k = 0.4000 0.0000 0.4000 (  1384 PWs)   bands (ev):

   -24.1620  -4.0892  -3.6949  -3.5019

          k = 0.0000 0.6000 0.0000 (  1371 PWs)   bands (ev):

   -24.1535  -4.1293  -3.6236  -3.6236

          k =-0.1000 0.7000-0.1000 (  1384 PWs)   bands (ev):

   -24.1406  -4.2622  -3.7232  -3.6867

          k = 0.8000-0.2000 0.8000 (  1378 PWs)   bands (ev):

   -24.1304  -4.2789  -3.8363  -3.6751

          k = 0.7000-0.1000 0.7000 (  1381 PWs)   bands (ev):

   -24.1280  -4.2256  -3.9839  -3.6249

          k = 0.6000-0.0000 0.6000 (  1380 PWs)   bands (ev):

   -24.1338  -4.1431  -4.0011  -3.5810

          k = 0.0000 0.8000 0.0000 (  1367 PWs)   bands (ev):

   -24.1305  -4.3265  -3.7047  -3.7047

          k = 0.9000-0.1000 0.9000 (  1378 PWs)   bands (ev):

   -24.1244  -4.3754  -3.7955  -3.7307

          k = 0.8000 0.0000 0.8000 (  1374 PWs)   bands (ev):

   -24.1230  -4.2944  -3.9217  -3.6734

          k = 0.0000-1.0000 0.0000 (  1362 PWs)   bands (ev):

   -24.1215  -4.3906  -3.7313  -3.7313

          k =-0.2000 0.4000 0.0000 (  1379 PWs)   bands (ev):

   -24.1762  -3.8890  -3.6068  -3.5301

          k =-0.3000 0.5000-0.1000 (  1383 PWs)   bands (ev):

   -24.1584  -4.1385  -3.6666  -3.5343

          k = 0.6000-0.4000 0.8000 (  1391 PWs)   bands (ev):

   -24.1441  -4.2862  -3.7334  -3.5861

          k = 0.5000-0.3000 0.7000 (  1390 PWs)   bands (ev):

   -24.1385  -4.3450  -3.7428  -3.5915

          k =-0.2000 0.6000 0.0000 (  1387 PWs)   bands (ev):

   -24.1514  -4.1718  -3.6929  -3.6411

          k = 0.7000-0.3000 0.9000 (  1381 PWs)   bands (ev):

   -24.1377  -4.2341  -3.8026  -3.6472

          k = 0.6000-0.2000 0.8000 (  1393 PWs)   bands (ev):

   -24.1313  -4.2708  -3.9154  -3.6694

          k = 0.5000-0.1000 0.7000 (  1385 PWs)   bands (ev):

   -24.1332  -4.2122  -3.9319  -3.6266

          k = 0.4000 0.0000 0.6000 (  1378 PWs)   bands (ev):

   -24.1434  -4.1686  -3.8214  -3.5697

          k = 0.8000-0.2000 1.0000 (  1378 PWs)   bands (ev):

   -24.1302  -4.3003  -3.7789  -3.7238

          k = 0.7000-0.1000 0.9000 (  1385 PWs)   bands (ev):

   -24.1249  -4.2818  -3.9136  -3.7354

          k = 0.6000 0.0000 0.8000 (  1390 PWs)   bands (ev):

   -24.1261  -4.1552  -4.0867  -3.6935

          k =-0.2000-1.0000 0.0000 (  1380 PWs)   bands (ev):

   -24.1223  -4.3770  -3.8296  -3.7395

          k = 0.6000-0.2000 1.0000 (  1382 PWs)   bands (ev):

   -24.1285  -4.2056  -3.9381  -3.7046

          k = 0.5000-0.1000 0.9000 (  1396 PWs)   bands (ev):

   -24.1255  -4.1802  -4.0659  -3.7429

          k =-0.4000-1.0000 0.0000 (  1392 PWs)   bands (ev):

   -24.1231  -4.2142  -4.0250  -3.7712

     highest occupied level (ev):    -3.4702

!    total energy              =     -48.55951325 Ry
     estimated scf accuracy    <       0.00000051 Ry

     The total energy is the sum of the following terms:
     one-electron contribution =     -35.58961725 Ry
     hartree contribution      =      21.79082147 Ry
     xc contribution           =      -9.68639736 Ry
     ewald contribution        =     -25.07432012 Ry

     convergence has been achieved in  10 iterations
     Writing meta-gga kinetic term

     Writing all to output data dir ./input_pw/LiF/15/pwscf.save/
     Writing meta-gga kinetic term
 
     init_run     :      0.86s CPU      1.36s WALL (       1 calls)
     electrons    :      9.95s CPU     16.41s WALL (       1 calls)

     Called by init_run:
     wfcinit      :      0.76s CPU      1.12s WALL (       1 calls)
     potinit      :      0.03s CPU      0.11s WALL (       1 calls)
     hinit0       :      0.06s CPU      0.10s WALL (       1 calls)

     Called by electrons:
     c_bands      :      7.66s CPU     12.79s WALL (      10 calls)
     sum_band     :      1.94s CPU      3.05s WALL (      10 calls)
     v_of_rho     :      0.20s CPU      0.40s WALL (      11 calls)
     mix_rho      :      0.17s CPU      0.27s WALL (      10 calls)

     Called by c_bands:
     init_us_2    :      0.06s CPU      0.07s WALL (     987 calls)
     init_us_2:cp :      0.06s CPU      0.07s WALL (     987 calls)
     cegterg      :      7.60s CPU     12.69s WALL (     470 calls)

     Called by *egterg:
     cdiaghg      :      0.04s CPU      0.05s WALL (     995 calls)
     h_psi        :      8.13s CPU     13.52s WALL (    1042 calls)
     g_psi        :      0.01s CPU      0.01s WALL (     525 calls)

     Called by h_psi:
     h_psi:calbec :      0.02s CPU      0.02s WALL (    1042 calls)
     vloc_psi     :      1.99s CPU      2.78s WALL (    1042 calls)
     add_vuspsi   :      0.03s CPU      0.03s WALL (    1042 calls)
     h_psi_meta   :      6.07s CPU     10.67s WALL (    1042 calls)

     General routines
     calbec       :      0.02s CPU      0.02s WALL (    1042 calls)
     fft          :      0.03s CPU      0.04s WALL (     129 calls)
     ffts         :      0.06s CPU      0.10s WALL (     315 calls)
     fftw         :      8.39s CPU     13.89s WALL (   41648 calls)
     interpolate  :      0.00s CPU      0.00s WALL (      11 calls)
 
     Parallel routines
 
     PWSCF        :     10.86s CPU     17.88s WALL

 
   This run was terminated on:  14:24: 3   7Jul2023            

=------------------------------------------------------------------------------=
   JOB DONE.
=------------------------------------------------------------------------------=
