
     Program PWSCF v.7.0 starts on  7Jul2023 at 14:25:49 

     This program is part of the open-source Quantum ESPRESSO suite
     for quantum simulation of materials; please cite
         "P. Giannozzi et al., J. Phys.:Condens. Matter 21 395502 (2009);
         "P. Giannozzi et al., J. Phys.:Condens. Matter 29 465901 (2017);
         "P. Giannozzi et al., J. Chem. Phys. 152 154105 (2020);
          URL http://www.quantum-espresso.org", 
     in publications or presentations arising from this work. More details at
     http://www.quantum-espresso.org/quote

     Parallel version (MPI), running on     1 processors

     MPI processes distributed on     1 nodes
     26670 MiB available memory on the printing compute node when the environment starts
 
     Waiting for input...
     Reading input from standard input
Warning: card &CELL ignored
Warning: card / ignored

     Current dimensions of program PWSCF are:
     Max number of different atomic species (ntypx) = 10
     Max number of k-points (npk) =  40000
     Max angular momentum in pseudopotentials (lmaxx) =  4
     file Ge.SCAN.UPF2: wavefunction(s)  0D renormalized

     WARNING: the MGGA functional with ID    5 has been 
     read together with other dft terms, but it should 
     stand alone in order to work properly. The other 
     terms will be ignored.

     Subspace diagonalization in iterative solution of the eigenvalue problem:
     a serial algorithm will be used

 
     G-vector sticks info
     --------------------
     sticks:   dense  smooth     PW     G-vecs:    dense   smooth      PW
     Sum        1309    1309    379                31415    31415    5029
 
     Using Slab Decomposition
 


     bravais-lattice index     =            2
     lattice parameter (alat)  =      13.8244  a.u.
     unit-cell volume          =     660.5099 (a.u.)^3
     number of atoms/cell      =            2
     number of atomic types    =            1
     number of electrons       =         8.00
     number of Kohn-Sham states=            4
     kinetic-energy cutoff     =      50.0000  Ry
     charge density cutoff     =     200.0000  Ry
     scf convergence threshold =      2.0E-05
     mixing beta               =       0.2000
     number of iterations used =            8  local-TF  mixing
     Exchange-correlation= SLA  PW  SCAN SCAN
                           (   0   0   0   0   0 263 267)

     celldm(1)=  13.824405  celldm(2)=   0.000000  celldm(3)=   0.000000
     celldm(4)=   0.000000  celldm(5)=   0.000000  celldm(6)=   0.000000

     crystal axes: (cart. coord. in units of alat)
               a(1) = (  -0.500000   0.000000   0.500000 )  
               a(2) = (   0.000000   0.500000   0.500000 )  
               a(3) = (  -0.500000   0.500000   0.000000 )  

     reciprocal axes: (cart. coord. in units 2 pi/alat)
               b(1) = ( -1.000000 -1.000000  1.000000 )  
               b(2) = (  1.000000  1.000000  1.000000 )  
               b(3) = ( -1.000000  1.000000 -1.000000 )  


     PseudoPot. # 1 for Ge read from file:
     ~/Documents/TA/PWDFT.jl/pseudopotentials/scan_upf/Ge.SCAN.UPF2
     MD5 check sum: Not computed, couldn't open file
     Pseudo is Norm-conserving, Zval =  4.0
     Generated by new atomic code, or converted to UPF format
     Using radial grid of 1557 points,  2 beta functions with: 
                l(1) =   0
                l(2) =   1

     atomic species   valence    mass     pseudopotential
        Ge             4.00    72.64000     Ge( 1.00)

     48 Sym. Ops., with inversion, found (24 have fractional translation)



   Cartesian axes

     site n.     atom                  positions (alat units)
         1           Ge  tau(   1) = (   0.0000000   0.0000000   0.0000000  )
         2           Ge  tau(   2) = (   0.2500000   0.2500000   0.2500000  )

     number of k points=    47
                       cart. coord. in units 2pi/alat
        k(    1) = (   0.0000000   0.0000000   0.0000000), wk =   0.0020000
        k(    2) = (  -0.1000000   0.1000000  -0.1000000), wk =   0.0160000
        k(    3) = (  -0.2000000   0.2000000  -0.2000000), wk =   0.0160000
        k(    4) = (  -0.3000000   0.3000000  -0.3000000), wk =   0.0160000
        k(    5) = (  -0.4000000   0.4000000  -0.4000000), wk =   0.0160000
        k(    6) = (   0.5000000  -0.5000000   0.5000000), wk =   0.0080000
        k(    7) = (   0.0000000   0.2000000   0.0000000), wk =   0.0120000
        k(    8) = (  -0.1000000   0.3000000  -0.1000000), wk =   0.0480000
        k(    9) = (  -0.2000000   0.4000000  -0.2000000), wk =   0.0480000
        k(   10) = (  -0.3000000   0.5000000  -0.3000000), wk =   0.0480000
        k(   11) = (   0.6000000  -0.4000000   0.6000000), wk =   0.0480000
        k(   12) = (   0.5000000  -0.3000000   0.5000000), wk =   0.0480000
        k(   13) = (   0.4000000  -0.2000000   0.4000000), wk =   0.0480000
        k(   14) = (   0.3000000  -0.1000000   0.3000000), wk =   0.0480000
        k(   15) = (   0.2000000   0.0000000   0.2000000), wk =   0.0240000
        k(   16) = (   0.0000000   0.4000000   0.0000000), wk =   0.0120000
        k(   17) = (  -0.1000000   0.5000000  -0.1000000), wk =   0.0480000
        k(   18) = (  -0.2000000   0.6000000  -0.2000000), wk =   0.0480000
        k(   19) = (   0.7000000  -0.3000000   0.7000000), wk =   0.0480000
        k(   20) = (   0.6000000  -0.2000000   0.6000000), wk =   0.0480000
        k(   21) = (   0.5000000  -0.1000000   0.5000000), wk =   0.0480000
        k(   22) = (   0.4000000   0.0000000   0.4000000), wk =   0.0240000
        k(   23) = (   0.0000000   0.6000000   0.0000000), wk =   0.0120000
        k(   24) = (  -0.1000000   0.7000000  -0.1000000), wk =   0.0480000
        k(   25) = (   0.8000000  -0.2000000   0.8000000), wk =   0.0480000
        k(   26) = (   0.7000000  -0.1000000   0.7000000), wk =   0.0480000
        k(   27) = (   0.6000000  -0.0000000   0.6000000), wk =   0.0240000
        k(   28) = (   0.0000000   0.8000000   0.0000000), wk =   0.0120000
        k(   29) = (   0.9000000  -0.1000000   0.9000000), wk =   0.0480000
        k(   30) = (   0.8000000   0.0000000   0.8000000), wk =   0.0240000
        k(   31) = (   0.0000000  -1.0000000   0.0000000), wk =   0.0060000
        k(   32) = (  -0.2000000   0.4000000   0.0000000), wk =   0.0480000
        k(   33) = (  -0.3000000   0.5000000  -0.1000000), wk =   0.0960000
        k(   34) = (   0.6000000  -0.4000000   0.8000000), wk =   0.0960000
        k(   35) = (   0.5000000  -0.3000000   0.7000000), wk =   0.0480000
        k(   36) = (  -0.2000000   0.6000000   0.0000000), wk =   0.0480000
        k(   37) = (   0.7000000  -0.3000000   0.9000000), wk =   0.0960000
        k(   38) = (   0.6000000  -0.2000000   0.8000000), wk =   0.0960000
        k(   39) = (   0.5000000  -0.1000000   0.7000000), wk =   0.0960000
        k(   40) = (   0.4000000   0.0000000   0.6000000), wk =   0.0480000
        k(   41) = (   0.8000000  -0.2000000   1.0000000), wk =   0.0480000
        k(   42) = (   0.7000000  -0.1000000   0.9000000), wk =   0.0960000
        k(   43) = (   0.6000000   0.0000000   0.8000000), wk =   0.0480000
        k(   44) = (  -0.2000000  -1.0000000   0.0000000), wk =   0.0240000
        k(   45) = (   0.6000000  -0.2000000   1.0000000), wk =   0.0480000
        k(   46) = (   0.5000000  -0.1000000   0.9000000), wk =   0.0480000
        k(   47) = (  -0.4000000  -1.0000000   0.0000000), wk =   0.0240000

     Dense  grid:    31415 G-vectors     FFT dimensions: (  48,  48,  48)

     Estimated max dynamical RAM per process >      60.38 MB

     WARNING: libxc functional with ID  263 depends
      on external parameters: check the user_guide of
      QE if you need to modify them or to check their
      default values.

     Initial potential from superposition of free atoms

     starting charge       7.9987, renormalised to       8.0000
     Starting wfcs are   18 randomized atomic wfcs

     total cpu time spent up to now is       24.0 secs

     Self-consistent Calculation

     iteration #  1     ecut=    50.00 Ry     beta= 0.20
     Davidson diagonalization with overlap
     ethr =  1.00E-02,  avg # of iterations =  1.0

     Threshold (ethr) on eigenvalues was too large:
     Diagonalizing with lowered threshold

     Davidson diagonalization with overlap
     ethr =  2.24E-04,  avg # of iterations =  4.5

     total cpu time spent up to now is       61.6 secs

     total energy              =     -15.59527836 Ry
     estimated scf accuracy    <       0.01746966 Ry

     iteration #  2     ecut=    50.00 Ry     beta= 0.20
     Davidson diagonalization with overlap
     ethr =  2.18E-04,  avg # of iterations =  1.7

     total cpu time spent up to now is       78.3 secs

     total energy              =     -15.61183165 Ry
     estimated scf accuracy    <       0.01196498 Ry

     iteration #  3     ecut=    50.00 Ry     beta= 0.20
     Davidson diagonalization with overlap
     ethr =  1.50E-04,  avg # of iterations =  2.1

     total cpu time spent up to now is       92.6 secs

     total energy              =     -15.61416324 Ry
     estimated scf accuracy    <       0.00089901 Ry

     iteration #  4     ecut=    50.00 Ry     beta= 0.20
     Davidson diagonalization with overlap
     ethr =  1.12E-05,  avg # of iterations =  7.9

     total cpu time spent up to now is      117.9 secs

     total energy              =     -15.61547873 Ry
     estimated scf accuracy    <       0.00051653 Ry

     iteration #  5     ecut=    50.00 Ry     beta= 0.20
     Davidson diagonalization with overlap
     ethr =  6.46E-06,  avg # of iterations =  4.1

     total cpu time spent up to now is      123.4 secs

     total energy              =     -15.61570059 Ry
     estimated scf accuracy    <       0.00018035 Ry

     iteration #  6     ecut=    50.00 Ry     beta= 0.20
     Davidson diagonalization with overlap
     ethr =  2.25E-06,  avg # of iterations =  5.6

     total cpu time spent up to now is      129.9 secs

     total energy              =     -15.61581284 Ry
     estimated scf accuracy    <       0.00010870 Ry

     iteration #  7     ecut=    50.00 Ry     beta= 0.20
     Davidson diagonalization with overlap
     ethr =  1.36E-06,  avg # of iterations =  2.9

     total cpu time spent up to now is      134.4 secs

     total energy              =     -15.61582793 Ry
     estimated scf accuracy    <       0.00003495 Ry

     iteration #  8     ecut=    50.00 Ry     beta= 0.20
     Davidson diagonalization with overlap
     ethr =  4.37E-07,  avg # of iterations =  6.8

     total cpu time spent up to now is      142.2 secs

     End of self-consistent calculation

          k = 0.0000 0.0000 0.0000 (  3839 PWs)   bands (ev):

    -9.2263  -4.9724   0.1042   0.1042

          k =-0.1000 0.1000-0.1000 (  3903 PWs)   bands (ev):

    -9.1722  -5.1159   0.0199   0.0276

          k =-0.2000 0.2000-0.2000 (  3921 PWs)   bands (ev):

    -9.0160  -5.4884  -0.1646  -0.1640

          k =-0.3000 0.3000-0.3000 (  3912 PWs)   bands (ev):

    -8.7820  -5.9632  -0.4206  -0.3459

          k =-0.4000 0.4000-0.4000 (  3915 PWs)   bands (ev):

    -8.5334  -6.3898  -0.6115  -0.4700

          k = 0.5000-0.5000 0.5000 (  3906 PWs)   bands (ev):

    -8.4123  -6.5756  -0.6801  -0.5133

          k = 0.0000 0.2000 0.0000 (  3919 PWs)   bands (ev):

    -9.1537  -5.1618  -0.1131  -0.1131

          k =-0.1000 0.3000-0.1000 (  3920 PWs)   bands (ev):

    -9.0301  -5.4531  -0.3656  -0.3134

          k =-0.2000 0.4000-0.2000 (  3942 PWs)   bands (ev):

    -8.8177  -5.8889  -0.6916  -0.4876

          k =-0.3000 0.5000-0.3000 (  3933 PWs)   bands (ev):

    -8.5615  -6.3349  -0.9660  -0.5888

          k = 0.6000-0.4000 0.6000 (  3936 PWs)   bands (ev):

    -8.3756  -6.6183  -1.1187  -0.6003

          k = 0.5000-0.3000 0.5000 (  3932 PWs)   bands (ev):

    -8.4200  -6.5532  -1.1254  -0.5218

          k = 0.4000-0.2000 0.4000 (  3923 PWs)   bands (ev):

    -8.6489  -6.1911  -0.9837  -0.3678

          k = 0.3000-0.1000 0.3000 (  3930 PWs)   bands (ev):

    -8.8982  -5.7328  -0.7086  -0.1729

          k = 0.2000 0.0000 0.2000 (  3901 PWs)   bands (ev):

    -9.0834  -5.3327  -0.3427  -0.0091

          k = 0.0000 0.4000 0.0000 (  3931 PWs)   bands (ev):

    -8.9389  -5.6434  -0.5225  -0.5225

          k =-0.1000 0.5000-0.1000 (  3941 PWs)   bands (ev):

    -8.7522  -5.9984  -0.8060  -0.6997

          k =-0.2000 0.6000-0.2000 (  3950 PWs)   bands (ev):

    -8.5002  -6.4143  -1.1507  -0.7981

          k = 0.7000-0.3000 0.7000 (  3951 PWs)   bands (ev):

    -8.2665  -6.7504  -1.4080  -0.7999

          k = 0.6000-0.2000 0.6000 (  3938 PWs)   bands (ev):

    -8.2305  -6.7985  -1.5076  -0.7062

          k = 0.5000-0.1000 0.5000 (  3941 PWs)   bands (ev):

    -8.4324  -6.5167  -1.4231  -0.5353

          k = 0.4000 0.0000 0.4000 (  3937 PWs)   bands (ev):

    -8.6907  -6.1102  -1.1500  -0.3301

          k = 0.0000 0.6000 0.0000 (  3956 PWs)   bands (ev):

    -8.5906  -6.2676  -0.8871  -0.8871

          k =-0.1000 0.7000-0.1000 (  3953 PWs)   bands (ev):

    -8.3509  -6.6257  -1.1372  -0.9969

          k = 0.8000-0.2000 0.8000 (  3949 PWs)   bands (ev):

    -8.0876  -6.9707  -1.4482  -1.0077

          k = 0.7000-0.1000 0.7000 (  3946 PWs)   bands (ev):

    -7.9804  -7.0987  -1.6454  -0.9185

          k = 0.6000-0.0000 0.6000 (  3947 PWs)   bands (ev):

    -8.1690  -6.8686  -1.6468  -0.7465

          k = 0.0000 0.8000 0.0000 (  3968 PWs)   bands (ev):

    -8.1237  -6.9275  -1.1246  -1.1245

          k = 0.9000-0.1000 0.9000 (  3963 PWs)   bands (ev):

    -7.8467  -7.2545  -1.3106  -1.1542

          k = 0.8000 0.0000 0.8000 (  3935 PWs)   bands (ev):

    -7.7276  -7.3812  -1.5505  -1.0809

          k = 0.0000-1.0000 0.0000 (  3984 PWs)   bands (ev):

    -7.5597  -7.5597  -1.2062  -1.2062

          k =-0.2000 0.4000 0.0000 (  3949 PWs)   bands (ev):

    -8.8758  -5.7721  -0.7554  -0.4055

          k =-0.3000 0.5000-0.1000 (  3946 PWs)   bands (ev):

    -8.6421  -6.1918  -1.1037  -0.5555

          k = 0.6000-0.4000 0.8000 (  3937 PWs)   bands (ev):

    -8.3879  -6.5855  -1.3313  -0.6829

          k = 0.5000-0.3000 0.7000 (  3954 PWs)   bands (ev):

    -8.2593  -6.7651  -1.4098  -0.7301

          k =-0.2000 0.6000 0.0000 (  3958 PWs)   bands (ev):

    -8.5405  -6.3478  -1.0967  -0.8304

          k = 0.7000-0.3000 0.9000 (  3945 PWs)   bands (ev):

    -8.2778  -6.7267  -1.3803  -0.9452

          k = 0.6000-0.2000 0.8000 (  3951 PWs)   bands (ev):

    -8.0777  -6.9838  -1.5653  -0.9654

          k = 0.5000-0.1000 0.7000 (  3954 PWs)   bands (ev):

    -8.1451  -6.8996  -1.5934  -0.8765

          k = 0.4000 0.0000 0.6000 (  3933 PWs)   bands (ev):

    -8.3953  -6.5651  -1.4376  -0.7115

          k = 0.8000-0.2000 1.0000 (  3959 PWs)   bands (ev):

    -8.0936  -6.9628  -1.2863  -1.1433

          k = 0.7000-0.1000 0.9000 (  3951 PWs)   bands (ev):

    -7.8394  -7.2582  -1.5061  -1.1788

          k = 0.6000 0.0000 0.8000 (  3958 PWs)   bands (ev):

    -7.8816  -7.2096  -1.6459  -1.0703

          k =-0.2000-1.0000 0.0000 (  3954 PWs)   bands (ev):

    -7.5579  -7.5579  -1.3015  -1.3015

          k = 0.6000-0.2000 1.0000 (  3955 PWs)   bands (ev):

    -8.0086  -7.0626  -1.5377  -1.1378

          k = 0.5000-0.1000 0.9000 (  3946 PWs)   bands (ev):

    -7.8349  -7.2605  -1.5848  -1.2280

          k =-0.4000-1.0000 0.0000 (  3940 PWs)   bands (ev):

    -7.5549  -7.5549  -1.4324  -1.4323

     highest occupied level (ev):     0.1042

!    total energy              =     -15.61585042 Ry
     estimated scf accuracy    <       0.00000177 Ry

     The total energy is the sum of the following terms:
     one-electron contribution =      -1.12354725 Ry
     hartree contribution      =       2.07196485 Ry
     xc contribution           =      -4.09519324 Ry
     ewald contribution        =     -12.46907478 Ry

     convergence has been achieved in   8 iterations
     Writing meta-gga kinetic term

     Writing all to output data dir ./input_pw/Ge/15/pwscf.save/
     Writing meta-gga kinetic term
 
     init_run     :     11.88s CPU     23.94s WALL (       1 calls)
     electrons    :     83.68s CPU    118.17s WALL (       1 calls)

     Called by init_run:
     wfcinit      :     11.68s CPU     23.46s WALL (       1 calls)
     potinit      :      0.09s CPU      0.19s WALL (       1 calls)
     hinit0       :      0.07s CPU      0.19s WALL (       1 calls)

     Called by electrons:
     c_bands      :     72.60s CPU    101.49s WALL (       9 calls)
     sum_band     :     10.09s CPU     15.32s WALL (       9 calls)
     v_of_rho     :      0.59s CPU      0.86s WALL (       9 calls)
     mix_rho      :      0.45s CPU      0.63s WALL (       9 calls)

     Called by c_bands:
     init_us_2    :      0.37s CPU      0.55s WALL (     893 calls)
     init_us_2:cp :      0.37s CPU      0.54s WALL (     893 calls)
     cegterg      :     72.15s CPU    100.88s WALL (     423 calls)

     Called by *egterg:
     cdiaghg      :      0.15s CPU      0.20s WALL (    2095 calls)
     h_psi        :     82.30s CPU    122.13s WALL (    2189 calls)
     g_psi        :      0.06s CPU      0.08s WALL (    1719 calls)

     Called by h_psi:
     h_psi:calbec :      0.32s CPU      0.44s WALL (    2189 calls)
     vloc_psi     :     20.35s CPU     30.14s WALL (    2189 calls)
     add_vuspsi   :      0.23s CPU      0.30s WALL (    2189 calls)
     h_psi_meta   :     61.29s CPU     91.12s WALL (    2189 calls)

     General routines
     calbec       :      0.32s CPU      0.44s WALL (    2189 calls)
     fft          :      0.11s CPU      0.22s WALL (     107 calls)
     ffts         :      0.16s CPU      0.23s WALL (     161 calls)
     fftw         :     72.38s CPU    108.49s WALL (   65768 calls)
     interpolate  :      0.00s CPU      0.00s WALL (       9 calls)
 
     Parallel routines
 
     PWSCF        :   1m35.60s CPU   2m22.22s WALL

 
   This run was terminated on:  14:28:12   7Jul2023            

=------------------------------------------------------------------------------=
   JOB DONE.
=------------------------------------------------------------------------------=
