
     Program PWSCF v.7.0 starts on 29Mar2023 at 11:45:51 

     This program is part of the open-source Quantum ESPRESSO suite
     for quantum simulation of materials; please cite
         "P. Giannozzi et al., J. Phys.:Condens. Matter 21 395502 (2009);
         "P. Giannozzi et al., J. Phys.:Condens. Matter 29 465901 (2017);
         "P. Giannozzi et al., J. Chem. Phys. 152 154105 (2020);
          URL http://www.quantum-espresso.org", 
     in publications or presentations arising from this work. More details at
     http://www.quantum-espresso.org/quote

     Parallel version (MPI), running on     1 processors

     MPI processes distributed on     1 nodes
     23084 MiB available memory on the printing compute node when the environment starts
 
     Waiting for input...
     Reading input from standard input
Warning: card &CELL ignored
Warning: card / ignored

     Current dimensions of program PWSCF are:
     Max number of different atomic species (ntypx) = 10
     Max number of k-points (npk) =  40000
     Max angular momentum in pseudopotentials (lmaxx) =  4
     file Ge.SCAN.UPF2: wavefunction(s)  0D renormalized

     WARNING: the MGGA functional with ID    5 has been 
     read together with other dft terms, but it should 
     stand alone in order to work properly. The other 
     terms will be ignored.

     Subspace diagonalization in iterative solution of the eigenvalue problem:
     a serial algorithm will be used

 
     G-vector sticks info
     --------------------
     sticks:   dense  smooth     PW     G-vecs:    dense   smooth      PW
     Sum        1309    1309    379                31415    31415    5029
 
     Using Slab Decomposition
 


     bravais-lattice index     =            2
     lattice parameter (alat)  =      13.8244  a.u.
     unit-cell volume          =     660.5099 (a.u.)^3
     number of atoms/cell      =            2
     number of atomic types    =            1
     number of electrons       =         8.00
     number of Kohn-Sham states=            4
     kinetic-energy cutoff     =      50.0000  Ry
     charge density cutoff     =     200.0000  Ry
     scf convergence threshold =      1.0E-06
     mixing beta               =       0.0100
     number of iterations used =            8  local-TF  mixing
     Exchange-correlation= SLA  PW  SCAN SCAN
                           (   0   0   0   0   0 263 267)

     celldm(1)=  13.824405  celldm(2)=   0.000000  celldm(3)=   0.000000
     celldm(4)=   0.000000  celldm(5)=   0.000000  celldm(6)=   0.000000

     crystal axes: (cart. coord. in units of alat)
               a(1) = (  -0.500000   0.000000   0.500000 )  
               a(2) = (   0.000000   0.500000   0.500000 )  
               a(3) = (  -0.500000   0.500000   0.000000 )  

     reciprocal axes: (cart. coord. in units 2 pi/alat)
               b(1) = ( -1.000000 -1.000000  1.000000 )  
               b(2) = (  1.000000  1.000000  1.000000 )  
               b(3) = ( -1.000000  1.000000 -1.000000 )  


     PseudoPot. # 1 for Ge read from file:
     ~/Documents/TA/PWDFT.jl/pseudopotentials/scan_upf/Ge.SCAN.UPF2
     MD5 check sum: Not computed, couldn't open file
     Pseudo is Norm-conserving, Zval =  4.0
     Generated by new atomic code, or converted to UPF format
     Using radial grid of 1557 points,  2 beta functions with: 
                l(1) =   0
                l(2) =   1

     atomic species   valence    mass     pseudopotential
        Ge             4.00    72.64000     Ge( 1.00)

     48 Sym. Ops., with inversion, found (24 have fractional translation)



   Cartesian axes

     site n.     atom                  positions (alat units)
         1           Ge  tau(   1) = (   0.0000000   0.0000000   0.0000000  )
         2           Ge  tau(   2) = (   0.2500000   0.2500000   0.2500000  )

     number of k points=    47
                       cart. coord. in units 2pi/alat
        k(    1) = (   0.0000000   0.0000000   0.0000000), wk =   0.0020000
        k(    2) = (  -0.1000000   0.1000000  -0.1000000), wk =   0.0160000
        k(    3) = (  -0.2000000   0.2000000  -0.2000000), wk =   0.0160000
        k(    4) = (  -0.3000000   0.3000000  -0.3000000), wk =   0.0160000
        k(    5) = (  -0.4000000   0.4000000  -0.4000000), wk =   0.0160000
        k(    6) = (   0.5000000  -0.5000000   0.5000000), wk =   0.0080000
        k(    7) = (   0.0000000   0.2000000   0.0000000), wk =   0.0120000
        k(    8) = (  -0.1000000   0.3000000  -0.1000000), wk =   0.0480000
        k(    9) = (  -0.2000000   0.4000000  -0.2000000), wk =   0.0480000
        k(   10) = (  -0.3000000   0.5000000  -0.3000000), wk =   0.0480000
        k(   11) = (   0.6000000  -0.4000000   0.6000000), wk =   0.0480000
        k(   12) = (   0.5000000  -0.3000000   0.5000000), wk =   0.0480000
        k(   13) = (   0.4000000  -0.2000000   0.4000000), wk =   0.0480000
        k(   14) = (   0.3000000  -0.1000000   0.3000000), wk =   0.0480000
        k(   15) = (   0.2000000   0.0000000   0.2000000), wk =   0.0240000
        k(   16) = (   0.0000000   0.4000000   0.0000000), wk =   0.0120000
        k(   17) = (  -0.1000000   0.5000000  -0.1000000), wk =   0.0480000
        k(   18) = (  -0.2000000   0.6000000  -0.2000000), wk =   0.0480000
        k(   19) = (   0.7000000  -0.3000000   0.7000000), wk =   0.0480000
        k(   20) = (   0.6000000  -0.2000000   0.6000000), wk =   0.0480000
        k(   21) = (   0.5000000  -0.1000000   0.5000000), wk =   0.0480000
        k(   22) = (   0.4000000   0.0000000   0.4000000), wk =   0.0240000
        k(   23) = (   0.0000000   0.6000000   0.0000000), wk =   0.0120000
        k(   24) = (  -0.1000000   0.7000000  -0.1000000), wk =   0.0480000
        k(   25) = (   0.8000000  -0.2000000   0.8000000), wk =   0.0480000
        k(   26) = (   0.7000000  -0.1000000   0.7000000), wk =   0.0480000
        k(   27) = (   0.6000000  -0.0000000   0.6000000), wk =   0.0240000
        k(   28) = (   0.0000000   0.8000000   0.0000000), wk =   0.0120000
        k(   29) = (   0.9000000  -0.1000000   0.9000000), wk =   0.0480000
        k(   30) = (   0.8000000   0.0000000   0.8000000), wk =   0.0240000
        k(   31) = (   0.0000000  -1.0000000   0.0000000), wk =   0.0060000
        k(   32) = (  -0.2000000   0.4000000   0.0000000), wk =   0.0480000
        k(   33) = (  -0.3000000   0.5000000  -0.1000000), wk =   0.0960000
        k(   34) = (   0.6000000  -0.4000000   0.8000000), wk =   0.0960000
        k(   35) = (   0.5000000  -0.3000000   0.7000000), wk =   0.0480000
        k(   36) = (  -0.2000000   0.6000000   0.0000000), wk =   0.0480000
        k(   37) = (   0.7000000  -0.3000000   0.9000000), wk =   0.0960000
        k(   38) = (   0.6000000  -0.2000000   0.8000000), wk =   0.0960000
        k(   39) = (   0.5000000  -0.1000000   0.7000000), wk =   0.0960000
        k(   40) = (   0.4000000   0.0000000   0.6000000), wk =   0.0480000
        k(   41) = (   0.8000000  -0.2000000   1.0000000), wk =   0.0480000
        k(   42) = (   0.7000000  -0.1000000   0.9000000), wk =   0.0960000
        k(   43) = (   0.6000000   0.0000000   0.8000000), wk =   0.0480000
        k(   44) = (  -0.2000000  -1.0000000   0.0000000), wk =   0.0240000
        k(   45) = (   0.6000000  -0.2000000   1.0000000), wk =   0.0480000
        k(   46) = (   0.5000000  -0.1000000   0.9000000), wk =   0.0480000
        k(   47) = (  -0.4000000  -1.0000000   0.0000000), wk =   0.0240000

     Dense  grid:    31415 G-vectors     FFT dimensions: (  48,  48,  48)

     Estimated max dynamical RAM per process >      60.38 MB

     WARNING: libxc functional with ID  263 depends
      on external parameters: check the user_guide of
      QE if you need to modify them or to check their
      default values.

     Initial potential from superposition of free atoms

     starting charge       7.9987, renormalised to       8.0000
     Starting wfcs are   18 randomized atomic wfcs

     total cpu time spent up to now is       23.3 secs

     Self-consistent Calculation

     iteration #  1     ecut=    50.00 Ry     beta= 0.01
     Davidson diagonalization with overlap
     ethr =  1.00E-02,  avg # of iterations =  1.0

     Threshold (ethr) on eigenvalues was too large:
     Diagonalizing with lowered threshold

     Davidson diagonalization with overlap
     ethr =  2.24E-04,  avg # of iterations =  4.5

     total cpu time spent up to now is       63.9 secs

     total energy              =     -15.58062952 Ry
     estimated scf accuracy    <       0.01746966 Ry

     iteration #  2     ecut=    50.00 Ry     beta= 0.01
     Davidson diagonalization with overlap
     ethr =  2.18E-04,  avg # of iterations =  1.0

     total cpu time spent up to now is       75.9 secs

     total energy              =     -15.59000748 Ry
     estimated scf accuracy    <       0.01723655 Ry

     iteration #  3     ecut=    50.00 Ry     beta= 0.01
     Davidson diagonalization with overlap
     ethr =  2.15E-04,  avg # of iterations =  1.1

     total cpu time spent up to now is       90.0 secs

     total energy              =     -15.61216819 Ry
     estimated scf accuracy    <       0.01367513 Ry

     iteration #  4     ecut=    50.00 Ry     beta= 0.01
     Davidson diagonalization with overlap
     ethr =  1.71E-04,  avg # of iterations =  2.1

     total cpu time spent up to now is      106.6 secs

     total energy              =     -15.61409878 Ry
     estimated scf accuracy    <       0.00071999 Ry

     iteration #  5     ecut=    50.00 Ry     beta= 0.01
     Davidson diagonalization with overlap
     ethr =  9.00E-06,  avg # of iterations =  9.3

     total cpu time spent up to now is      143.8 secs

     total energy              =     -15.61520077 Ry
     estimated scf accuracy    <       0.00094014 Ry

     iteration #  6     ecut=    50.00 Ry     beta= 0.01
     Davidson diagonalization with overlap
     ethr =  9.00E-06,  avg # of iterations =  1.9

     total cpu time spent up to now is      155.0 secs

     total energy              =     -15.61530686 Ry
     estimated scf accuracy    <       0.00104415 Ry

     iteration #  7     ecut=    50.00 Ry     beta= 0.01
     Davidson diagonalization with overlap
     ethr =  9.00E-06,  avg # of iterations =  1.0

     total cpu time spent up to now is      165.5 secs

     total energy              =     -15.61545936 Ry
     estimated scf accuracy    <       0.00086745 Ry

     iteration #  8     ecut=    50.00 Ry     beta= 0.01
     Davidson diagonalization with overlap
     ethr =  9.00E-06,  avg # of iterations =  1.1

     total cpu time spent up to now is      173.7 secs

     total energy              =     -15.61551601 Ry
     estimated scf accuracy    <       0.00035418 Ry

     iteration #  9     ecut=    50.00 Ry     beta= 0.01
     Davidson diagonalization with overlap
     ethr =  4.43E-06,  avg # of iterations =  2.9

     total cpu time spent up to now is      184.0 secs

     total energy              =     -15.61553631 Ry
     estimated scf accuracy    <       0.00038297 Ry

     iteration # 10     ecut=    50.00 Ry     beta= 0.01
     Davidson diagonalization with overlap
     ethr =  4.43E-06,  avg # of iterations =  1.0

     total cpu time spent up to now is      192.2 secs

     total energy              =     -15.61737456 Ry
     estimated scf accuracy    <       0.00035070 Ry

     iteration # 11     ecut=    50.00 Ry     beta= 0.01
     Davidson diagonalization with overlap
     ethr =  4.38E-06,  avg # of iterations =  8.2

     total cpu time spent up to now is      214.6 secs

     total energy              =     -15.61954989 Ry
     estimated scf accuracy    <       0.00894971 Ry

     iteration # 12     ecut=    50.00 Ry     beta= 0.01
     Davidson diagonalization with overlap
     ethr =  4.38E-06,  avg # of iterations =  2.9

     total cpu time spent up to now is      223.7 secs

     total energy              =     -15.61810420 Ry
     estimated scf accuracy    <       0.01300522 Ry

     iteration # 13     ecut=    50.00 Ry     beta= 0.01
     Davidson diagonalization with overlap
     ethr =  4.38E-06,  avg # of iterations =  1.4

     total cpu time spent up to now is      230.5 secs

     total energy              =     -15.61497726 Ry
     estimated scf accuracy    <       0.00785110 Ry

     iteration # 14     ecut=    50.00 Ry     beta= 0.01
     Davidson diagonalization with overlap
     ethr =  4.38E-06,  avg # of iterations =  6.6

     total cpu time spent up to now is      246.0 secs

     total energy              =     -15.61581135 Ry
     estimated scf accuracy    <       0.00001680 Ry

     iteration # 15     ecut=    50.00 Ry     beta= 0.01
     Davidson diagonalization with overlap
     c_bands:  1 eigenvalues not converged
     ethr =  2.10E-07,  avg # of iterations =  9.1

     total cpu time spent up to now is      259.5 secs

     total energy              =     -15.61585362 Ry
     estimated scf accuracy    <       0.00000544 Ry

     iteration # 16     ecut=    50.00 Ry     beta= 0.01
     Davidson diagonalization with overlap
     c_bands:  1 eigenvalues not converged
     ethr =  6.80E-08,  avg # of iterations =  4.7

     total cpu time spent up to now is      264.6 secs

     total energy              =     -15.61585908 Ry
     estimated scf accuracy    <       0.00000581 Ry

     iteration # 17     ecut=    50.00 Ry     beta= 0.01
     Davidson diagonalization with overlap
     c_bands:  1 eigenvalues not converged
     ethr =  6.80E-08,  avg # of iterations =  2.1

     total cpu time spent up to now is      267.9 secs

     total energy              =     -15.61586553 Ry
     estimated scf accuracy    <       0.00000376 Ry

     iteration # 18     ecut=    50.00 Ry     beta= 0.01
     Davidson diagonalization with overlap
     c_bands:  1 eigenvalues not converged
     ethr =  4.71E-08,  avg # of iterations =  5.0

     total cpu time spent up to now is      272.8 secs

     total energy              =     -15.61587028 Ry
     estimated scf accuracy    <       0.00000433 Ry

     iteration # 19     ecut=    50.00 Ry     beta= 0.01
     Davidson diagonalization with overlap
     c_bands:  1 eigenvalues not converged
     ethr =  4.71E-08,  avg # of iterations =  2.9

     total cpu time spent up to now is      277.0 secs

     End of self-consistent calculation

          k = 0.0000 0.0000 0.0000 (  3839 PWs)   bands (ev):

    -9.2175  -4.9681   0.1109   0.1109

          k =-0.1000 0.1000-0.1000 (  3903 PWs)   bands (ev):

    -9.1634  -5.1113   0.0267   0.0302

          k =-0.2000 0.2000-0.2000 (  3921 PWs)   bands (ev):

    -9.0074  -5.4833  -0.1580  -0.1570

          k =-0.3000 0.3000-0.3000 (  3912 PWs)   bands (ev):

    -8.7735  -5.9575  -0.4144  -0.3387

          k =-0.4000 0.4000-0.4000 (  3915 PWs)   bands (ev):

    -8.5252  -6.3835  -0.6055  -0.4626

          k = 0.5000-0.5000 0.5000 (  3906 PWs)   bands (ev):

    -8.4042  -6.5692  -0.6742  -0.5059

          k = 0.0000 0.2000 0.0000 (  3919 PWs)   bands (ev):

    -9.1450  -5.1572  -0.1062  -0.1061

          k =-0.1000 0.3000-0.1000 (  3920 PWs)   bands (ev):

    -9.0215  -5.4481  -0.3585  -0.3062

          k =-0.2000 0.4000-0.2000 (  3942 PWs)   bands (ev):

    -8.8092  -5.8833  -0.6847  -0.4802

          k =-0.3000 0.5000-0.3000 (  3933 PWs)   bands (ev):

    -8.5533  -6.3288  -0.9591  -0.5813

          k = 0.6000-0.4000 0.6000 (  3936 PWs)   bands (ev):

    -8.3676  -6.6118  -1.1118  -0.5927

          k = 0.5000-0.3000 0.5000 (  3932 PWs)   bands (ev):

    -8.4119  -6.5468  -1.1185  -0.5144

          k = 0.4000-0.2000 0.4000 (  3923 PWs)   bands (ev):

    -8.6405  -6.1851  -0.9766  -0.3605

          k = 0.3000-0.1000 0.3000 (  3930 PWs)   bands (ev):

    -8.8897  -5.7274  -0.7015  -0.1658

          k = 0.2000 0.0000 0.2000 (  3901 PWs)   bands (ev):

    -9.0747  -5.3279  -0.3357  -0.0023

          k = 0.0000 0.4000 0.0000 (  3931 PWs)   bands (ev):

    -8.9303  -5.6381  -0.5151  -0.5151

          k =-0.1000 0.5000-0.1000 (  3941 PWs)   bands (ev):

    -8.7438  -5.9927  -0.7986  -0.6922

          k =-0.2000 0.6000-0.2000 (  3950 PWs)   bands (ev):

    -8.4920  -6.4081  -1.1433  -0.7904

          k = 0.7000-0.3000 0.7000 (  3951 PWs)   bands (ev):

    -8.2585  -6.7438  -1.4006  -0.7922

          k = 0.6000-0.2000 0.6000 (  3938 PWs)   bands (ev):

    -8.2225  -6.7919  -1.5002  -0.6986

          k = 0.5000-0.1000 0.5000 (  3941 PWs)   bands (ev):

    -8.4243  -6.5104  -1.4157  -0.5278

          k = 0.4000 0.0000 0.4000 (  3937 PWs)   bands (ev):

    -8.6824  -6.1044  -1.1426  -0.3229

          k = 0.0000 0.6000 0.0000 (  3956 PWs)   bands (ev):

    -8.5823  -6.2616  -0.8794  -0.8794

          k =-0.1000 0.7000-0.1000 (  3953 PWs)   bands (ev):

    -8.3429  -6.6193  -1.1295  -0.9891

          k = 0.8000-0.2000 0.8000 (  3949 PWs)   bands (ev):

    -8.0798  -6.9640  -1.4405  -0.9999

          k = 0.7000-0.1000 0.7000 (  3946 PWs)   bands (ev):

    -7.9727  -7.0918  -1.6378  -0.9107

          k = 0.6000-0.0000 0.6000 (  3947 PWs)   bands (ev):

    -8.1611  -6.8619  -1.6391  -0.7389

          k = 0.0000 0.8000 0.0000 (  3968 PWs)   bands (ev):

    -8.1158  -6.9208  -1.1167  -1.1167

          k = 0.9000-0.1000 0.9000 (  3963 PWs)   bands (ev):

    -7.8391  -7.2474  -1.3028  -1.1463

          k = 0.8000 0.0000 0.8000 (  3935 PWs)   bands (ev):

    -7.7201  -7.3740  -1.5428  -1.0730

          k = 0.0000-1.0000 0.0000 (  3984 PWs)   bands (ev):

    -7.5524  -7.5524  -1.1982  -1.1982

          k =-0.2000 0.4000 0.0000 (  3949 PWs)   bands (ev):

    -8.8673  -5.7667  -0.7481  -0.3982

          k =-0.3000 0.5000-0.1000 (  3946 PWs)   bands (ev):

    -8.6338  -6.1858  -1.0964  -0.5482

          k = 0.6000-0.4000 0.8000 (  3937 PWs)   bands (ev):

    -8.3798  -6.5791  -1.3240  -0.6754

          k = 0.5000-0.3000 0.7000 (  3954 PWs)   bands (ev):

    -8.2514  -6.7586  -1.4024  -0.7226

          k =-0.2000 0.6000 0.0000 (  3958 PWs)   bands (ev):

    -8.5323  -6.3417  -1.0892  -0.8228

          k = 0.7000-0.3000 0.9000 (  3945 PWs)   bands (ev):

    -8.2698  -6.7201  -1.3727  -0.9376

          k = 0.6000-0.2000 0.8000 (  3951 PWs)   bands (ev):

    -8.0699  -6.9771  -1.5577  -0.9578

          k = 0.5000-0.1000 0.7000 (  3954 PWs)   bands (ev):

    -8.1372  -6.8929  -1.5858  -0.8689

          k = 0.4000 0.0000 0.6000 (  3933 PWs)   bands (ev):

    -8.3872  -6.5588  -1.4301  -0.7040

          k = 0.8000-0.2000 1.0000 (  3959 PWs)   bands (ev):

    -8.0858  -6.9561  -1.2786  -1.1355

          k = 0.7000-0.1000 0.9000 (  3951 PWs)   bands (ev):

    -7.8319  -7.2511  -1.4984  -1.1711

          k = 0.6000 0.0000 0.8000 (  3958 PWs)   bands (ev):

    -7.8740  -7.2026  -1.6382  -1.0626

          k =-0.2000-1.0000 0.0000 (  3954 PWs)   bands (ev):

    -7.5505  -7.5505  -1.2936  -1.2936

          k = 0.6000-0.2000 1.0000 (  3955 PWs)   bands (ev):

    -8.0009  -7.0557  -1.5301  -1.1301

          k = 0.5000-0.1000 0.9000 (  3946 PWs)   bands (ev):

    -7.8273  -7.2535  -1.5771  -1.2203

          k =-0.4000-1.0000 0.0000 (  3940 PWs)   bands (ev):

    -7.5476  -7.5476  -1.4246  -1.4246

     highest occupied level (ev):     0.1109

!    total energy              =     -15.61587157 Ry
     estimated scf accuracy    <       0.00000018 Ry

     The total energy is the sum of the following terms:
     one-electron contribution =      -1.12374834 Ry
     hartree contribution      =       2.07224060 Ry
     xc contribution           =      -4.09528906 Ry
     ewald contribution        =     -12.46907478 Ry

     convergence has been achieved in  19 iterations
     Writing meta-gga kinetic term

     Writing all to output data dir ./input_pw/Ge/15/pwscf.save/
     Writing meta-gga kinetic term
 
     init_run     :     11.46s CPU     23.29s WALL (       1 calls)
     electrons    :    192.42s CPU    253.67s WALL (       1 calls)

     Called by init_run:
     wfcinit      :     11.26s CPU     22.91s WALL (       1 calls)
     potinit      :      0.09s CPU      0.24s WALL (       1 calls)
     hinit0       :      0.07s CPU      0.09s WALL (       1 calls)

     Called by electrons:
     c_bands      :    162.51s CPU    215.00s WALL (      20 calls)
     sum_band     :     26.94s CPU     34.78s WALL (      20 calls)
     v_of_rho     :      1.45s CPU      2.08s WALL (      20 calls)
     mix_rho      :      1.54s CPU      1.93s WALL (      20 calls)

     Called by c_bands:
     init_us_2    :      0.89s CPU      1.15s WALL (    1927 calls)
     init_us_2:cp :      0.88s CPU      1.15s WALL (    1927 calls)
     cegterg      :    161.40s CPU    213.57s WALL (     940 calls)

     Called by *egterg:
     cdiaghg      :      0.32s CPU      0.44s WALL (    4183 calls)
     h_psi        :    169.76s CPU    232.36s WALL (    4277 calls)
     g_psi        :      0.12s CPU      0.18s WALL (    3290 calls)

     Called by h_psi:
     h_psi:calbec :      0.66s CPU      0.90s WALL (    4277 calls)
     vloc_psi     :     41.93s CPU     57.32s WALL (    4277 calls)
     add_vuspsi   :      0.51s CPU      0.70s WALL (    4277 calls)
     h_psi_meta   :    126.46s CPU    173.14s WALL (    4277 calls)

     General routines
     calbec       :      0.65s CPU      0.88s WALL (    4277 calls)
     fft          :      0.29s CPU      0.42s WALL (     239 calls)
     ffts         :      0.52s CPU      0.69s WALL (     408 calls)
     fftw         :    156.38s CPU    213.76s WALL (  126472 calls)
     interpolate  :      0.01s CPU      0.01s WALL (      20 calls)
 
     Parallel routines
 
     PWSCF        :   3m23.93s CPU   4m37.01s WALL

 
   This run was terminated on:  11:50:28  29Mar2023            

=------------------------------------------------------------------------------=
   JOB DONE.
=------------------------------------------------------------------------------=
