
     Program PWSCF v.7.0 starts on  7Jul2023 at 14:30:57 

     This program is part of the open-source Quantum ESPRESSO suite
     for quantum simulation of materials; please cite
         "P. Giannozzi et al., J. Phys.:Condens. Matter 21 395502 (2009);
         "P. Giannozzi et al., J. Phys.:Condens. Matter 29 465901 (2017);
         "P. Giannozzi et al., J. Chem. Phys. 152 154105 (2020);
          URL http://www.quantum-espresso.org", 
     in publications or presentations arising from this work. More details at
     http://www.quantum-espresso.org/quote

     Parallel version (MPI), running on     1 processors

     MPI processes distributed on     1 nodes
     26823 MiB available memory on the printing compute node when the environment starts
 
     Waiting for input...
     Reading input from standard input
Warning: card &CELL ignored
Warning: card / ignored

     Current dimensions of program PWSCF are:
     Max number of different atomic species (ntypx) = 10
     Max number of k-points (npk) =  40000
     Max angular momentum in pseudopotentials (lmaxx) =  4
     file Si.SCAN.UPF2: wavefunction(s)  0D renormalized

     WARNING: the MGGA functional with ID    5 has been 
     read together with other dft terms, but it should 
     stand alone in order to work properly. The other 
     terms will be ignored.

     WARNING: the MGGA functional with ID    5 has been 
     read together with other dft terms, but it should 
     stand alone in order to work properly. The other 
     terms will be ignored.

     Subspace diagonalization in iterative solution of the eigenvalue problem:
     a serial algorithm will be used

 
     G-vector sticks info
     --------------------
     sticks:   dense  smooth     PW     G-vecs:    dense   smooth      PW
     Sum         637     637    199                10369    10369    1837
 
     Using Slab Decomposition
 


     bravais-lattice index     =            2
     lattice parameter (alat)  =       9.5242  a.u.
     unit-cell volume          =     215.9873 (a.u.)^3
     number of atoms/cell      =            2
     number of atomic types    =            2
     number of electrons       =         8.00
     number of Kohn-Sham states=            4
     kinetic-energy cutoff     =      50.0000  Ry
     charge density cutoff     =     200.0000  Ry
     scf convergence threshold =      2.0E-05
     mixing beta               =       0.2000
     number of iterations used =            8  local-TF  mixing
     Exchange-correlation= SLA  PW   SCAN SCAN
                           (   0   0   0   0   0 263 267)

     celldm(1)=   9.524220  celldm(2)=   0.000000  celldm(3)=   0.000000
     celldm(4)=   0.000000  celldm(5)=   0.000000  celldm(6)=   0.000000

     crystal axes: (cart. coord. in units of alat)
               a(1) = (  -0.500000   0.000000   0.500000 )  
               a(2) = (   0.000000   0.500000   0.500000 )  
               a(3) = (  -0.500000   0.500000   0.000000 )  

     reciprocal axes: (cart. coord. in units 2 pi/alat)
               b(1) = ( -1.000000 -1.000000  1.000000 )  
               b(2) = (  1.000000  1.000000  1.000000 )  
               b(3) = ( -1.000000  1.000000 -1.000000 )  


     PseudoPot. # 1 for Si read from file:
     ~/Documents/TA/PWDFT.jl/pseudopotentials/scan_upf/Si.SCAN.UPF2
     MD5 check sum: Not computed, couldn't open file
     Pseudo is Norm-conserving, Zval =  4.0
     Generated by new atomic code, or converted to UPF format
     Using radial grid of 1475 points,  2 beta functions with: 
                l(1) =   0
                l(2) =   1

     PseudoPot. # 2 for C  read from file:
     ~/Documents/TA/PWDFT.jl/pseudopotentials/scan_upf/C.SCAN.UPF2
     MD5 check sum: Not computed, couldn't open file
     Pseudo is Norm-conserving, Zval =  4.0
     Generated by new atomic code, or converted to UPF format
     Using radial grid of 1389 points,  1 beta functions with: 
                l(1) =   0

     atomic species   valence    mass     pseudopotential
        Si             4.00    28.08550     Si( 1.00)
        C              4.00    12.01100     C ( 1.00)

     24 Sym. Ops. (no inversion) found



   Cartesian axes

     site n.     atom                  positions (alat units)
         1           Si  tau(   1) = (   0.0000000   0.0000000   0.0000000  )
         2           C   tau(   2) = (   0.2500000   0.2500000   0.2500000  )

     number of k points=    47
                       cart. coord. in units 2pi/alat
        k(    1) = (   0.0000000   0.0000000   0.0000000), wk =   0.0020000
        k(    2) = (  -0.1000000   0.1000000  -0.1000000), wk =   0.0160000
        k(    3) = (  -0.2000000   0.2000000  -0.2000000), wk =   0.0160000
        k(    4) = (  -0.3000000   0.3000000  -0.3000000), wk =   0.0160000
        k(    5) = (  -0.4000000   0.4000000  -0.4000000), wk =   0.0160000
        k(    6) = (   0.5000000  -0.5000000   0.5000000), wk =   0.0080000
        k(    7) = (   0.0000000   0.2000000   0.0000000), wk =   0.0120000
        k(    8) = (  -0.1000000   0.3000000  -0.1000000), wk =   0.0480000
        k(    9) = (  -0.2000000   0.4000000  -0.2000000), wk =   0.0480000
        k(   10) = (  -0.3000000   0.5000000  -0.3000000), wk =   0.0480000
        k(   11) = (   0.6000000  -0.4000000   0.6000000), wk =   0.0480000
        k(   12) = (   0.5000000  -0.3000000   0.5000000), wk =   0.0480000
        k(   13) = (   0.4000000  -0.2000000   0.4000000), wk =   0.0480000
        k(   14) = (   0.3000000  -0.1000000   0.3000000), wk =   0.0480000
        k(   15) = (   0.2000000   0.0000000   0.2000000), wk =   0.0240000
        k(   16) = (   0.0000000   0.4000000   0.0000000), wk =   0.0120000
        k(   17) = (  -0.1000000   0.5000000  -0.1000000), wk =   0.0480000
        k(   18) = (  -0.2000000   0.6000000  -0.2000000), wk =   0.0480000
        k(   19) = (   0.7000000  -0.3000000   0.7000000), wk =   0.0480000
        k(   20) = (   0.6000000  -0.2000000   0.6000000), wk =   0.0480000
        k(   21) = (   0.5000000  -0.1000000   0.5000000), wk =   0.0480000
        k(   22) = (   0.4000000   0.0000000   0.4000000), wk =   0.0240000
        k(   23) = (   0.0000000   0.6000000   0.0000000), wk =   0.0120000
        k(   24) = (  -0.1000000   0.7000000  -0.1000000), wk =   0.0480000
        k(   25) = (   0.8000000  -0.2000000   0.8000000), wk =   0.0480000
        k(   26) = (   0.7000000  -0.1000000   0.7000000), wk =   0.0480000
        k(   27) = (   0.6000000  -0.0000000   0.6000000), wk =   0.0240000
        k(   28) = (   0.0000000   0.8000000   0.0000000), wk =   0.0120000
        k(   29) = (   0.9000000  -0.1000000   0.9000000), wk =   0.0480000
        k(   30) = (   0.8000000   0.0000000   0.8000000), wk =   0.0240000
        k(   31) = (   0.0000000  -1.0000000   0.0000000), wk =   0.0060000
        k(   32) = (  -0.2000000   0.4000000   0.0000000), wk =   0.0480000
        k(   33) = (  -0.3000000   0.5000000  -0.1000000), wk =   0.0960000
        k(   34) = (   0.6000000  -0.4000000   0.8000000), wk =   0.0960000
        k(   35) = (   0.5000000  -0.3000000   0.7000000), wk =   0.0480000
        k(   36) = (  -0.2000000   0.6000000   0.0000000), wk =   0.0480000
        k(   37) = (   0.7000000  -0.3000000   0.9000000), wk =   0.0960000
        k(   38) = (   0.6000000  -0.2000000   0.8000000), wk =   0.0960000
        k(   39) = (   0.5000000  -0.1000000   0.7000000), wk =   0.0960000
        k(   40) = (   0.4000000   0.0000000   0.6000000), wk =   0.0480000
        k(   41) = (   0.8000000  -0.2000000   1.0000000), wk =   0.0480000
        k(   42) = (   0.7000000  -0.1000000   0.9000000), wk =   0.0960000
        k(   43) = (   0.6000000   0.0000000   0.8000000), wk =   0.0480000
        k(   44) = (  -0.2000000  -1.0000000   0.0000000), wk =   0.0240000
        k(   45) = (   0.6000000  -0.2000000   1.0000000), wk =   0.0480000
        k(   46) = (   0.5000000  -0.1000000   0.9000000), wk =   0.0480000
        k(   47) = (  -0.4000000  -1.0000000   0.0000000), wk =   0.0240000

     Dense  grid:    10369 G-vectors     FFT dimensions: (  32,  32,  32)

     Estimated max dynamical RAM per process >      19.89 MB

     WARNING: libxc functional with ID  263 depends
      on external parameters: check the user_guide of
      QE if you need to modify them or to check their
      default values.

     Initial potential from superposition of free atoms

     starting charge       7.9995, renormalised to       8.0000
     Starting wfcs are   13 randomized atomic wfcs

     total cpu time spent up to now is        2.6 secs

     Self-consistent Calculation

     iteration #  1     ecut=    50.00 Ry     beta= 0.20
     Davidson diagonalization with overlap
     ethr =  1.00E-02,  avg # of iterations =  1.6

     total cpu time spent up to now is        4.8 secs

     total energy              =     -19.11047738 Ry
     estimated scf accuracy    <       1.32914777 Ry

     iteration #  2     ecut=    50.00 Ry     beta= 0.20
     Davidson diagonalization with overlap
     ethr =  1.00E-02,  avg # of iterations =  1.0

     total cpu time spent up to now is        6.8 secs

     total energy              =     -19.08830747 Ry
     estimated scf accuracy    <       0.83879885 Ry

     iteration #  3     ecut=    50.00 Ry     beta= 0.20
     Davidson diagonalization with overlap
     ethr =  1.00E-02,  avg # of iterations =  1.0

     total cpu time spent up to now is        8.8 secs

     total energy              =     -19.13288742 Ry
     estimated scf accuracy    <       0.03382367 Ry

     iteration #  4     ecut=    50.00 Ry     beta= 0.20
     Davidson diagonalization with overlap
     ethr =  4.23E-04,  avg # of iterations =  2.0

     total cpu time spent up to now is       11.1 secs

     total energy              =     -19.14025157 Ry
     estimated scf accuracy    <       0.02192992 Ry

     iteration #  5     ecut=    50.00 Ry     beta= 0.20
     Davidson diagonalization with overlap
     ethr =  2.74E-04,  avg # of iterations =  1.0

     total cpu time spent up to now is       13.1 secs

     total energy              =     -19.14076614 Ry
     estimated scf accuracy    <       0.00946168 Ry

     iteration #  6     ecut=    50.00 Ry     beta= 0.20
     Davidson diagonalization with overlap
     ethr =  1.18E-04,  avg # of iterations =  1.0

     total cpu time spent up to now is       14.7 secs

     total energy              =     -19.14128923 Ry
     estimated scf accuracy    <       0.00104437 Ry

     iteration #  7     ecut=    50.00 Ry     beta= 0.20
     Davidson diagonalization with overlap
     ethr =  1.31E-05,  avg # of iterations =  1.0

     total cpu time spent up to now is       15.9 secs

     total energy              =     -19.14126940 Ry
     estimated scf accuracy    <       0.00025340 Ry

     iteration #  8     ecut=    50.00 Ry     beta= 0.20
     Davidson diagonalization with overlap
     ethr =  3.17E-06,  avg # of iterations =  2.0

     total cpu time spent up to now is       18.1 secs

     total energy              =     -19.14129664 Ry
     estimated scf accuracy    <       0.00007713 Ry

     iteration #  9     ecut=    50.00 Ry     beta= 0.20
     Davidson diagonalization with overlap
     ethr =  9.64E-07,  avg # of iterations =  1.0

     total cpu time spent up to now is       19.4 secs

     total energy              =     -19.14129892 Ry
     estimated scf accuracy    <       0.00002355 Ry

     iteration # 10     ecut=    50.00 Ry     beta= 0.20
     Davidson diagonalization with overlap
     ethr =  2.94E-07,  avg # of iterations =  1.2

     total cpu time spent up to now is       21.1 secs

     End of self-consistent calculation

          k = 0.0000 0.0000 0.0000 (  1243 PWs)   bands (ev):

    -8.4077   4.6675   4.6675   4.6675

          k =-0.1000 0.1000-0.1000 (  1297 PWs)   bands (ev):

    -8.2692   3.5042   4.5426   4.5426

          k =-0.2000 0.2000-0.2000 (  1302 PWs)   bands (ev):

    -7.8648   1.6885   4.2705   4.2705

          k =-0.3000 0.3000-0.3000 (  1293 PWs)   bands (ev):

    -7.2411  -0.0750   3.9901   3.9901

          k =-0.4000 0.4000-0.4000 (  1299 PWs)   bands (ev):

    -6.5406  -1.4997   3.7928   3.7928

          k = 0.5000-0.5000 0.5000 (  1308 PWs)   bands (ev):

    -6.1724  -2.1159   3.7234   3.7234

          k = 0.0000 0.2000 0.0000 (  1299 PWs)   bands (ev):

    -8.2228   3.5160   4.2955   4.2955

          k =-0.1000 0.3000-0.1000 (  1300 PWs)   bands (ev):

    -7.9059   2.1447   3.9531   4.0525

          k =-0.2000 0.4000-0.2000 (  1306 PWs)   bands (ev):

    -7.3506   0.4653   3.6652   3.6910

          k =-0.3000 0.5000-0.3000 (  1296 PWs)   bands (ev):

    -6.6548  -1.0446   3.3145   3.5153

          k = 0.6000-0.4000 0.6000 (  1283 PWs)   bands (ev):

    -6.1169  -1.9700   3.0433   3.5295

          k = 0.5000-0.3000 0.5000 (  1289 PWs)   bands (ev):

    -6.2472  -1.7595   2.9345   3.6982

          k = 0.4000-0.2000 0.4000 (  1296 PWs)   bands (ev):

    -6.8931  -0.5764   3.0224   3.9832

          k = 0.3000-0.1000 0.3000 (  1299 PWs)   bands (ev):

    -7.5603   1.0067   3.3283   4.3086

          k = 0.2000 0.0000 0.2000 (  1299 PWs)   bands (ev):

    -8.0415   2.5466   3.8914   4.5436

          k = 0.0000 0.4000 0.0000 (  1307 PWs)   bands (ev):

    -7.6796   1.8210   3.5471   3.5471

          k =-0.1000 0.5000-0.1000 (  1298 PWs)   bands (ev):

    -7.2073   0.6782   3.0928   3.2196

          k =-0.2000 0.6000-0.2000 (  1286 PWs)   bands (ev):

    -6.5592  -0.6315   2.4899   3.0568

          k = 0.7000-0.3000 0.7000 (  1280 PWs)   bands (ev):

    -5.9455  -1.6472   1.9677   3.0876

          k = 0.6000-0.2000 0.6000 (  1287 PWs)   bands (ev):

    -5.8376  -1.8015   1.6717   3.3020

          k = 0.5000-0.1000 0.5000 (  1290 PWs)   bands (ev):

    -6.3568  -0.9899   1.7028   3.6555

          k = 0.4000 0.0000 0.4000 (  1301 PWs)   bands (ev):

    -7.0252   0.1224   2.2278   4.0459

          k = 0.0000 0.6000 0.0000 (  1283 PWs)   bands (ev):

    -6.8241   0.1322   2.8434   2.8434

          k =-0.1000 0.7000-0.1000 (  1285 PWs)   bands (ev):

    -6.2562  -0.7691   2.2849   2.6351

          k = 0.8000-0.2000 0.8000 (  1281 PWs)   bands (ev):

    -5.6627  -1.5596   1.4777   2.6354

          k = 0.7000-0.1000 0.7000 (  1286 PWs)   bands (ev):

    -5.4171  -1.8269   0.9004   2.8417

          k = 0.6000-0.0000 0.6000 (  1294 PWs)   bands (ev):

    -5.7612  -1.4539   0.8941   3.2135

          k = 0.0000 0.8000 0.0000 (  1290 PWs)   bands (ev):

    -5.7973  -1.4013   2.3725   2.3725

          k = 0.9000-0.1000 0.9000 (  1295 PWs)   bands (ev):

    -5.3379  -1.9428   1.8477   2.3202

          k = 0.8000 0.0000 0.8000 (  1296 PWs)   bands (ev):

    -5.1749  -2.0286   1.0898   2.4855

          k = 0.0000-1.0000 0.0000 (  1298 PWs)   bands (ev):

    -5.1729  -2.1973   2.2088   2.2088

          k =-0.2000 0.4000 0.0000 (  1306 PWs)   bands (ev):

    -7.5112   1.1762   3.0887   3.9427

          k =-0.3000 0.5000-0.1000 (  1298 PWs)   bands (ev):

    -6.9050  -0.1384   2.4815   3.6427

          k = 0.6000-0.4000 0.8000 (  1283 PWs)   bands (ev):

    -6.2297  -1.3667   2.1945   3.3415

          k = 0.5000-0.3000 0.7000 (  1292 PWs)   bands (ev):

    -5.8789  -1.9200   2.1128   3.2186

          k =-0.2000 0.6000 0.0000 (  1298 PWs)   bands (ev):

    -6.6837  -0.1853   2.3633   2.9971

          k = 0.7000-0.3000 0.9000 (  1286 PWs)   bands (ev):

    -6.0442  -1.1353   1.7337   2.7051

          k = 0.6000-0.2000 0.8000 (  1285 PWs)   bands (ev):

    -5.5770  -1.7633   1.2911   2.6522

          k = 0.5000-0.1000 0.7000 (  1286 PWs)   bands (ev):

    -5.7098  -1.5816   1.1543   2.8772

          k = 0.4000 0.0000 0.6000 (  1286 PWs)   bands (ev):

    -6.2933  -0.8438   1.5124   3.2756

          k = 0.8000-0.2000 1.0000 (  1282 PWs)   bands (ev):

    -5.7122  -1.4480   1.9251   2.2350

          k = 0.7000-0.1000 0.9000 (  1283 PWs)   bands (ev):

    -5.2798  -1.8778   1.2387   2.1503

          k = 0.6000 0.0000 0.8000 (  1283 PWs)   bands (ev):

    -5.2904  -1.8306   0.8099   2.4167

          k =-0.2000-1.0000 0.0000 (  1294 PWs)   bands (ev):

    -5.1471  -2.1103   1.8576   1.8738

          k = 0.6000-0.2000 1.0000 (  1281 PWs)   bands (ev):

    -5.5031  -1.6059   1.1827   2.1789

          k = 0.5000-0.1000 0.9000 (  1274 PWs)   bands (ev):

    -5.2423  -1.8393   1.0107   1.9346

          k =-0.4000-1.0000 0.0000 (  1278 PWs)   bands (ev):

    -5.1041  -1.9488   1.3418   1.4426

     highest occupied level (ev):     4.6675

!    total energy              =     -19.14130002 Ry
     estimated scf accuracy    <       0.00000078 Ry

     The total energy is the sum of the following terms:
     one-electron contribution =       1.78581395 Ry
     hartree contribution      =       2.70443394 Ry
     xc contribution           =      -5.53268589 Ry
     ewald contribution        =     -18.09886203 Ry

     convergence has been achieved in  10 iterations
     Writing meta-gga kinetic term

     Writing all to output data dir ./input_pw/SiC/12/pwscf.save/
     Writing meta-gga kinetic term
 
     init_run     :      1.35s CPU      2.51s WALL (       1 calls)
     electrons    :     10.71s CPU     18.56s WALL (       1 calls)

     Called by init_run:
     wfcinit      :      1.23s CPU      2.32s WALL (       1 calls)
     potinit      :      0.02s CPU      0.07s WALL (       1 calls)
     hinit0       :      0.09s CPU      0.11s WALL (       1 calls)

     Called by electrons:
     c_bands      :      8.34s CPU     14.74s WALL (      10 calls)
     sum_band     :      2.08s CPU      3.34s WALL (      10 calls)
     v_of_rho     :      0.21s CPU      0.36s WALL (      11 calls)
     mix_rho      :      0.10s CPU      0.18s WALL (      10 calls)

     Called by c_bands:
     init_us_2    :      0.16s CPU      0.32s WALL (     987 calls)
     init_us_2:cp :      0.15s CPU      0.32s WALL (     987 calls)
     cegterg      :      8.20s CPU     14.47s WALL (     470 calls)

     Called by *egterg:
     cdiaghg      :      0.05s CPU      0.08s WALL (    1075 calls)
     h_psi        :      9.16s CPU     16.31s WALL (    1122 calls)
     g_psi        :      0.01s CPU      0.01s WALL (     605 calls)

     Called by h_psi:
     h_psi:calbec :      0.04s CPU      0.07s WALL (    1122 calls)
     vloc_psi     :      2.25s CPU      3.87s WALL (    1122 calls)
     add_vuspsi   :      0.04s CPU      0.07s WALL (    1122 calls)
     h_psi_meta   :      6.81s CPU     12.27s WALL (    1122 calls)

     General routines
     calbec       :      0.03s CPU      0.06s WALL (    1122 calls)
     fft          :      0.03s CPU      0.06s WALL (     129 calls)
     ffts         :      0.04s CPU      0.04s WALL (     189 calls)
     fftw         :      9.31s CPU     16.23s WALL (   45192 calls)
     interpolate  :      0.00s CPU      0.00s WALL (      11 calls)
 
     Parallel routines
 
     PWSCF        :     12.12s CPU     21.13s WALL

 
   This run was terminated on:  14:31:18   7Jul2023            

=------------------------------------------------------------------------------=
   JOB DONE.
=------------------------------------------------------------------------------=
