
     Program PWSCF v.7.0 starts on 29Mar2023 at 12:56: 4 

     This program is part of the open-source Quantum ESPRESSO suite
     for quantum simulation of materials; please cite
         "P. Giannozzi et al., J. Phys.:Condens. Matter 21 395502 (2009);
         "P. Giannozzi et al., J. Phys.:Condens. Matter 29 465901 (2017);
         "P. Giannozzi et al., J. Chem. Phys. 152 154105 (2020);
          URL http://www.quantum-espresso.org", 
     in publications or presentations arising from this work. More details at
     http://www.quantum-espresso.org/quote

     Parallel version (MPI), running on     1 processors

     MPI processes distributed on     1 nodes
     23563 MiB available memory on the printing compute node when the environment starts
 
     Waiting for input...
     Reading input from standard input
Warning: card &CELL ignored
Warning: card / ignored

     Current dimensions of program PWSCF are:
     Max number of different atomic species (ntypx) = 10
     Max number of k-points (npk) =  40000
     Max angular momentum in pseudopotentials (lmaxx) =  4
     file Si.SCAN.UPF2: wavefunction(s)  0D renormalized

     WARNING: the MGGA functional with ID    5 has been 
     read together with other dft terms, but it should 
     stand alone in order to work properly. The other 
     terms will be ignored.

     WARNING: the MGGA functional with ID    5 has been 
     read together with other dft terms, but it should 
     stand alone in order to work properly. The other 
     terms will be ignored.

     Subspace diagonalization in iterative solution of the eigenvalue problem:
     a serial algorithm will be used

 
     G-vector sticks info
     --------------------
     sticks:   dense  smooth     PW     G-vecs:    dense   smooth      PW
     Sum         637     637    199                10369    10369    1837
 
     Using Slab Decomposition
 


     bravais-lattice index     =            2
     lattice parameter (alat)  =       9.5242  a.u.
     unit-cell volume          =     215.9873 (a.u.)^3
     number of atoms/cell      =            2
     number of atomic types    =            2
     number of electrons       =         8.00
     number of Kohn-Sham states=            4
     kinetic-energy cutoff     =      50.0000  Ry
     charge density cutoff     =     200.0000  Ry
     scf convergence threshold =      1.0E-06
     mixing beta               =       0.0100
     number of iterations used =            8  local-TF  mixing
     Exchange-correlation= SLA  PW   SCAN SCAN
                           (   0   0   0   0   0 263 267)

     celldm(1)=   9.524220  celldm(2)=   0.000000  celldm(3)=   0.000000
     celldm(4)=   0.000000  celldm(5)=   0.000000  celldm(6)=   0.000000

     crystal axes: (cart. coord. in units of alat)
               a(1) = (  -0.500000   0.000000   0.500000 )  
               a(2) = (   0.000000   0.500000   0.500000 )  
               a(3) = (  -0.500000   0.500000   0.000000 )  

     reciprocal axes: (cart. coord. in units 2 pi/alat)
               b(1) = ( -1.000000 -1.000000  1.000000 )  
               b(2) = (  1.000000  1.000000  1.000000 )  
               b(3) = ( -1.000000  1.000000 -1.000000 )  


     PseudoPot. # 1 for Si read from file:
     ~/Documents/TA/PWDFT.jl/pseudopotentials/scan_upf/Si.SCAN.UPF2
     MD5 check sum: Not computed, couldn't open file
     Pseudo is Norm-conserving, Zval =  4.0
     Generated by new atomic code, or converted to UPF format
     Using radial grid of 1475 points,  2 beta functions with: 
                l(1) =   0
                l(2) =   1

     PseudoPot. # 2 for C  read from file:
     ~/Documents/TA/PWDFT.jl/pseudopotentials/scan_upf/C.SCAN.UPF2
     MD5 check sum: Not computed, couldn't open file
     Pseudo is Norm-conserving, Zval =  4.0
     Generated by new atomic code, or converted to UPF format
     Using radial grid of 1389 points,  1 beta functions with: 
                l(1) =   0

     atomic species   valence    mass     pseudopotential
        Si             4.00    28.08550     Si( 1.00)
        C              4.00    12.01100     C ( 1.00)

     24 Sym. Ops. (no inversion) found



   Cartesian axes

     site n.     atom                  positions (alat units)
         1           Si  tau(   1) = (   0.0000000   0.0000000   0.0000000  )
         2           C   tau(   2) = (   0.2500000   0.2500000   0.2500000  )

     number of k points=    47
                       cart. coord. in units 2pi/alat
        k(    1) = (   0.0000000   0.0000000   0.0000000), wk =   0.0020000
        k(    2) = (  -0.1000000   0.1000000  -0.1000000), wk =   0.0160000
        k(    3) = (  -0.2000000   0.2000000  -0.2000000), wk =   0.0160000
        k(    4) = (  -0.3000000   0.3000000  -0.3000000), wk =   0.0160000
        k(    5) = (  -0.4000000   0.4000000  -0.4000000), wk =   0.0160000
        k(    6) = (   0.5000000  -0.5000000   0.5000000), wk =   0.0080000
        k(    7) = (   0.0000000   0.2000000   0.0000000), wk =   0.0120000
        k(    8) = (  -0.1000000   0.3000000  -0.1000000), wk =   0.0480000
        k(    9) = (  -0.2000000   0.4000000  -0.2000000), wk =   0.0480000
        k(   10) = (  -0.3000000   0.5000000  -0.3000000), wk =   0.0480000
        k(   11) = (   0.6000000  -0.4000000   0.6000000), wk =   0.0480000
        k(   12) = (   0.5000000  -0.3000000   0.5000000), wk =   0.0480000
        k(   13) = (   0.4000000  -0.2000000   0.4000000), wk =   0.0480000
        k(   14) = (   0.3000000  -0.1000000   0.3000000), wk =   0.0480000
        k(   15) = (   0.2000000   0.0000000   0.2000000), wk =   0.0240000
        k(   16) = (   0.0000000   0.4000000   0.0000000), wk =   0.0120000
        k(   17) = (  -0.1000000   0.5000000  -0.1000000), wk =   0.0480000
        k(   18) = (  -0.2000000   0.6000000  -0.2000000), wk =   0.0480000
        k(   19) = (   0.7000000  -0.3000000   0.7000000), wk =   0.0480000
        k(   20) = (   0.6000000  -0.2000000   0.6000000), wk =   0.0480000
        k(   21) = (   0.5000000  -0.1000000   0.5000000), wk =   0.0480000
        k(   22) = (   0.4000000   0.0000000   0.4000000), wk =   0.0240000
        k(   23) = (   0.0000000   0.6000000   0.0000000), wk =   0.0120000
        k(   24) = (  -0.1000000   0.7000000  -0.1000000), wk =   0.0480000
        k(   25) = (   0.8000000  -0.2000000   0.8000000), wk =   0.0480000
        k(   26) = (   0.7000000  -0.1000000   0.7000000), wk =   0.0480000
        k(   27) = (   0.6000000  -0.0000000   0.6000000), wk =   0.0240000
        k(   28) = (   0.0000000   0.8000000   0.0000000), wk =   0.0120000
        k(   29) = (   0.9000000  -0.1000000   0.9000000), wk =   0.0480000
        k(   30) = (   0.8000000   0.0000000   0.8000000), wk =   0.0240000
        k(   31) = (   0.0000000  -1.0000000   0.0000000), wk =   0.0060000
        k(   32) = (  -0.2000000   0.4000000   0.0000000), wk =   0.0480000
        k(   33) = (  -0.3000000   0.5000000  -0.1000000), wk =   0.0960000
        k(   34) = (   0.6000000  -0.4000000   0.8000000), wk =   0.0960000
        k(   35) = (   0.5000000  -0.3000000   0.7000000), wk =   0.0480000
        k(   36) = (  -0.2000000   0.6000000   0.0000000), wk =   0.0480000
        k(   37) = (   0.7000000  -0.3000000   0.9000000), wk =   0.0960000
        k(   38) = (   0.6000000  -0.2000000   0.8000000), wk =   0.0960000
        k(   39) = (   0.5000000  -0.1000000   0.7000000), wk =   0.0960000
        k(   40) = (   0.4000000   0.0000000   0.6000000), wk =   0.0480000
        k(   41) = (   0.8000000  -0.2000000   1.0000000), wk =   0.0480000
        k(   42) = (   0.7000000  -0.1000000   0.9000000), wk =   0.0960000
        k(   43) = (   0.6000000   0.0000000   0.8000000), wk =   0.0480000
        k(   44) = (  -0.2000000  -1.0000000   0.0000000), wk =   0.0240000
        k(   45) = (   0.6000000  -0.2000000   1.0000000), wk =   0.0480000
        k(   46) = (   0.5000000  -0.1000000   0.9000000), wk =   0.0480000
        k(   47) = (  -0.4000000  -1.0000000   0.0000000), wk =   0.0240000

     Dense  grid:    10369 G-vectors     FFT dimensions: (  32,  32,  32)

     Estimated max dynamical RAM per process >      19.89 MB

     WARNING: libxc functional with ID  263 depends
      on external parameters: check the user_guide of
      QE if you need to modify them or to check their
      default values.

     Initial potential from superposition of free atoms

     starting charge       7.9995, renormalised to       8.0000
     Starting wfcs are   13 randomized atomic wfcs

     total cpu time spent up to now is        3.2 secs

     Self-consistent Calculation

     iteration #  1     ecut=    50.00 Ry     beta= 0.01
     Davidson diagonalization with overlap
     ethr =  1.00E-02,  avg # of iterations =  1.6

     total cpu time spent up to now is        5.4 secs

     total energy              =     -19.13948566 Ry
     estimated scf accuracy    <       1.32914777 Ry

     iteration #  2     ecut=    50.00 Ry     beta= 0.01
     Davidson diagonalization with overlap
     ethr =  1.00E-02,  avg # of iterations =  1.0

     total cpu time spent up to now is        7.4 secs

     total energy              =     -19.09942470 Ry
     estimated scf accuracy    <       1.30701150 Ry

     iteration #  3     ecut=    50.00 Ry     beta= 0.01
     Davidson diagonalization with overlap
     ethr =  1.00E-02,  avg # of iterations =  1.0

     total cpu time spent up to now is        9.3 secs

     total energy              =     -19.12199000 Ry
     estimated scf accuracy    <       0.07320884 Ry

     iteration #  4     ecut=    50.00 Ry     beta= 0.01
     Davidson diagonalization with overlap
     ethr =  9.15E-04,  avg # of iterations =  2.0

     total cpu time spent up to now is       11.9 secs

     total energy              =     -19.13497472 Ry
     estimated scf accuracy    <       0.03084811 Ry

     iteration #  5     ecut=    50.00 Ry     beta= 0.01
     Davidson diagonalization with overlap
     ethr =  3.86E-04,  avg # of iterations =  2.0

     total cpu time spent up to now is       14.5 secs

     total energy              =     -19.13949834 Ry
     estimated scf accuracy    <       0.12406705 Ry

     iteration #  6     ecut=    50.00 Ry     beta= 0.01
     Davidson diagonalization with overlap
     ethr =  3.86E-04,  avg # of iterations =  1.0

     total cpu time spent up to now is       16.4 secs

     total energy              =     -19.14366757 Ry
     estimated scf accuracy    <       0.15002259 Ry

     iteration #  7     ecut=    50.00 Ry     beta= 0.01
     Davidson diagonalization with overlap
     ethr =  3.86E-04,  avg # of iterations =  1.0

     total cpu time spent up to now is       18.5 secs

     total energy              =     -19.14260239 Ry
     estimated scf accuracy    <       0.05893282 Ry

     iteration #  8     ecut=    50.00 Ry     beta= 0.01
     Davidson diagonalization with overlap
     ethr =  3.86E-04,  avg # of iterations =  1.0

     total cpu time spent up to now is       20.3 secs

     total energy              =     -19.14285466 Ry
     estimated scf accuracy    <       0.01536164 Ry

     iteration #  9     ecut=    50.00 Ry     beta= 0.01
     Davidson diagonalization with overlap
     ethr =  1.92E-04,  avg # of iterations =  1.0

     total cpu time spent up to now is       22.3 secs

     total energy              =     -19.14209748 Ry
     estimated scf accuracy    <       0.01279807 Ry

     iteration # 10     ecut=    50.00 Ry     beta= 0.01
     Davidson diagonalization with overlap
     ethr =  1.60E-04,  avg # of iterations =  1.0

     total cpu time spent up to now is       24.4 secs

     total energy              =     -19.13947792 Ry
     estimated scf accuracy    <       0.00894836 Ry

     iteration # 11     ecut=    50.00 Ry     beta= 0.01
     Davidson diagonalization with overlap
     ethr =  1.12E-04,  avg # of iterations =  2.0

     total cpu time spent up to now is       27.2 secs

     total energy              =     -19.14229945 Ry
     estimated scf accuracy    <       0.00421759 Ry

     iteration # 12     ecut=    50.00 Ry     beta= 0.01
     Davidson diagonalization with overlap
     ethr =  5.27E-05,  avg # of iterations =  1.0

     total cpu time spent up to now is       29.2 secs

     total energy              =     -19.14266812 Ry
     estimated scf accuracy    <       0.00674098 Ry

     iteration # 13     ecut=    50.00 Ry     beta= 0.01
     Davidson diagonalization with overlap
     ethr =  5.27E-05,  avg # of iterations =  1.0

     total cpu time spent up to now is       30.8 secs

     total energy              =     -19.14292426 Ry
     estimated scf accuracy    <       0.01007605 Ry

     iteration # 14     ecut=    50.00 Ry     beta= 0.01
     Davidson diagonalization with overlap
     ethr =  5.27E-05,  avg # of iterations =  1.0

     total cpu time spent up to now is       32.3 secs

     total energy              =     -19.14180764 Ry
     estimated scf accuracy    <       0.01269431 Ry

     iteration # 15     ecut=    50.00 Ry     beta= 0.01
     Davidson diagonalization with overlap
     ethr =  5.27E-05,  avg # of iterations =  1.0

     total cpu time spent up to now is       34.3 secs

     total energy              =     -19.14099433 Ry
     estimated scf accuracy    <       0.00688156 Ry

     iteration # 16     ecut=    50.00 Ry     beta= 0.01
     Davidson diagonalization with overlap
     ethr =  5.27E-05,  avg # of iterations =  1.1

     total cpu time spent up to now is       35.9 secs

     total energy              =     -19.14138889 Ry
     estimated scf accuracy    <       0.00099997 Ry

     iteration # 17     ecut=    50.00 Ry     beta= 0.01
     Davidson diagonalization with overlap
     ethr =  1.25E-05,  avg # of iterations =  1.0

     total cpu time spent up to now is       37.5 secs

     total energy              =     -19.14146652 Ry
     estimated scf accuracy    <       0.00110127 Ry

     iteration # 18     ecut=    50.00 Ry     beta= 0.01
     Davidson diagonalization with overlap
     ethr =  1.25E-05,  avg # of iterations =  1.0

     total cpu time spent up to now is       39.1 secs

     total energy              =     -19.14142783 Ry
     estimated scf accuracy    <       0.00126717 Ry

     iteration # 19     ecut=    50.00 Ry     beta= 0.01
     Davidson diagonalization with overlap
     ethr =  1.25E-05,  avg # of iterations =  1.0

     total cpu time spent up to now is       40.6 secs

     total energy              =     -19.14139456 Ry
     estimated scf accuracy    <       0.00108825 Ry

     iteration # 20     ecut=    50.00 Ry     beta= 0.01
     Davidson diagonalization with overlap
     ethr =  1.25E-05,  avg # of iterations =  1.0

     total cpu time spent up to now is       42.3 secs

     total energy              =     -19.14131785 Ry
     estimated scf accuracy    <       0.00084951 Ry

     iteration # 21     ecut=    50.00 Ry     beta= 0.01
     Davidson diagonalization with overlap
     ethr =  1.06E-05,  avg # of iterations =  1.0

     total cpu time spent up to now is       43.5 secs

     total energy              =     -19.14140263 Ry
     estimated scf accuracy    <       0.00038707 Ry

     iteration # 22     ecut=    50.00 Ry     beta= 0.01
     Davidson diagonalization with overlap
     ethr =  4.84E-06,  avg # of iterations =  1.0

     total cpu time spent up to now is       45.3 secs

     total energy              =     -19.14137058 Ry
     estimated scf accuracy    <       0.00074272 Ry

     iteration # 23     ecut=    50.00 Ry     beta= 0.01
     Davidson diagonalization with overlap
     ethr =  4.84E-06,  avg # of iterations =  1.0

     total cpu time spent up to now is       46.8 secs

     total energy              =     -19.14132523 Ry
     estimated scf accuracy    <       0.00068632 Ry

     iteration # 24     ecut=    50.00 Ry     beta= 0.01
     Davidson diagonalization with overlap
     ethr =  4.84E-06,  avg # of iterations =  1.0

     total cpu time spent up to now is       48.1 secs

     total energy              =     -19.14132760 Ry
     estimated scf accuracy    <       0.00043482 Ry

     iteration # 25     ecut=    50.00 Ry     beta= 0.01
     Davidson diagonalization with overlap
     ethr =  4.84E-06,  avg # of iterations =  1.0

     total cpu time spent up to now is       49.4 secs

     total energy              =     -19.14128540 Ry
     estimated scf accuracy    <       0.00024809 Ry

     iteration # 26     ecut=    50.00 Ry     beta= 0.01
     Davidson diagonalization with overlap
     ethr =  3.10E-06,  avg # of iterations =  1.0

     total cpu time spent up to now is       50.3 secs

     total energy              =     -19.14127857 Ry
     estimated scf accuracy    <       0.00010125 Ry

     iteration # 27     ecut=    50.00 Ry     beta= 0.01
     Davidson diagonalization with overlap
     ethr =  1.27E-06,  avg # of iterations =  2.0

     total cpu time spent up to now is       51.1 secs

     total energy              =     -19.14129911 Ry
     estimated scf accuracy    <       0.00001310 Ry

     iteration # 28     ecut=    50.00 Ry     beta= 0.01
     Davidson diagonalization with overlap
     ethr =  1.64E-07,  avg # of iterations =  2.9

     total cpu time spent up to now is       52.0 secs

     total energy              =     -19.14130737 Ry
     estimated scf accuracy    <       0.00011663 Ry

     iteration # 29     ecut=    50.00 Ry     beta= 0.01
     Davidson diagonalization with overlap
     ethr =  1.64E-07,  avg # of iterations =  1.0

     total cpu time spent up to now is       52.6 secs

     total energy              =     -19.14131543 Ry
     estimated scf accuracy    <       0.00011993 Ry

     iteration # 30     ecut=    50.00 Ry     beta= 0.01
     Davidson diagonalization with overlap
     ethr =  1.64E-07,  avg # of iterations =  2.0

     total cpu time spent up to now is       53.4 secs

     total energy              =     -19.14129444 Ry
     estimated scf accuracy    <       0.00021538 Ry

     iteration # 31     ecut=    50.00 Ry     beta= 0.01
     Davidson diagonalization with overlap
     ethr =  1.64E-07,  avg # of iterations =  3.0

     total cpu time spent up to now is       54.4 secs

     total energy              =     -19.14130764 Ry
     estimated scf accuracy    <       0.00000710 Ry

     iteration # 32     ecut=    50.00 Ry     beta= 0.01
     Davidson diagonalization with overlap
     ethr =  8.88E-08,  avg # of iterations =  1.0

     total cpu time spent up to now is       55.0 secs

     total energy              =     -19.14130857 Ry
     estimated scf accuracy    <       0.00002805 Ry

     iteration # 33     ecut=    50.00 Ry     beta= 0.01
     Davidson diagonalization with overlap
     ethr =  8.88E-08,  avg # of iterations =  1.0

     total cpu time spent up to now is       55.7 secs

     total energy              =     -19.14131077 Ry
     estimated scf accuracy    <       0.00004529 Ry

     iteration # 34     ecut=    50.00 Ry     beta= 0.01
     Davidson diagonalization with overlap
     ethr =  8.88E-08,  avg # of iterations =  2.0

     total cpu time spent up to now is       56.5 secs

     total energy              =     -19.14131053 Ry
     estimated scf accuracy    <       0.00009407 Ry

     iteration # 35     ecut=    50.00 Ry     beta= 0.01
     Davidson diagonalization with overlap
     ethr =  8.88E-08,  avg # of iterations =  1.0

     total cpu time spent up to now is       57.1 secs

     total energy              =     -19.14129688 Ry
     estimated scf accuracy    <       0.00008557 Ry

     iteration # 36     ecut=    50.00 Ry     beta= 0.01
     Davidson diagonalization with overlap
     ethr =  8.88E-08,  avg # of iterations =  2.6

     total cpu time spent up to now is       58.0 secs

     total energy              =     -19.14129931 Ry
     estimated scf accuracy    <       0.00000595 Ry

     iteration # 37     ecut=    50.00 Ry     beta= 0.01
     Davidson diagonalization with overlap
     ethr =  7.44E-08,  avg # of iterations =  2.0

     total cpu time spent up to now is       58.9 secs

     End of self-consistent calculation

          k = 0.0000 0.0000 0.0000 (  1243 PWs)   bands (ev):

    -8.4068   4.6676   4.6676   4.6676

          k =-0.1000 0.1000-0.1000 (  1297 PWs)   bands (ev):

    -8.2683   3.5045   4.5427   4.5427

          k =-0.2000 0.2000-0.2000 (  1302 PWs)   bands (ev):

    -7.8640   1.6890   4.2707   4.2707

          k =-0.3000 0.3000-0.3000 (  1293 PWs)   bands (ev):

    -7.2403  -0.0744   3.9903   3.9903

          k =-0.4000 0.4000-0.4000 (  1299 PWs)   bands (ev):

    -6.5399  -1.4989   3.7929   3.7929

          k = 0.5000-0.5000 0.5000 (  1308 PWs)   bands (ev):

    -6.1718  -2.1151   3.7235   3.7235

          k = 0.0000 0.2000 0.0000 (  1299 PWs)   bands (ev):

    -8.2219   3.5164   4.2957   4.2957

          k =-0.1000 0.3000-0.1000 (  1300 PWs)   bands (ev):

    -7.9051   2.1452   3.9533   4.0527

          k =-0.2000 0.4000-0.2000 (  1306 PWs)   bands (ev):

    -7.3498   0.4658   3.6655   3.6913

          k =-0.3000 0.5000-0.3000 (  1296 PWs)   bands (ev):

    -6.6541  -1.0439   3.3148   3.5156

          k = 0.6000-0.4000 0.6000 (  1283 PWs)   bands (ev):

    -6.1163  -1.9692   3.0436   3.5297

          k = 0.5000-0.3000 0.5000 (  1289 PWs)   bands (ev):

    -6.2465  -1.7587   2.9348   3.6983

          k = 0.4000-0.2000 0.4000 (  1296 PWs)   bands (ev):

    -6.8923  -0.5757   3.0227   3.9833

          k = 0.3000-0.1000 0.3000 (  1299 PWs)   bands (ev):

    -7.5595   1.0073   3.3286   4.3087

          k = 0.2000 0.0000 0.2000 (  1299 PWs)   bands (ev):

    -8.0406   2.5471   3.8916   4.5438

          k = 0.0000 0.4000 0.0000 (  1307 PWs)   bands (ev):

    -7.6788   1.8215   3.5474   3.5474

          k =-0.1000 0.5000-0.1000 (  1298 PWs)   bands (ev):

    -7.2065   0.6787   3.0931   3.2199

          k =-0.2000 0.6000-0.2000 (  1286 PWs)   bands (ev):

    -6.5585  -0.6309   2.4903   3.0571

          k = 0.7000-0.3000 0.7000 (  1280 PWs)   bands (ev):

    -5.9448  -1.6464   1.9681   3.0879

          k = 0.6000-0.2000 0.6000 (  1287 PWs)   bands (ev):

    -5.8370  -1.8007   1.6721   3.3023

          k = 0.5000-0.1000 0.5000 (  1290 PWs)   bands (ev):

    -6.3561  -0.9892   1.7033   3.6557

          k = 0.4000 0.0000 0.4000 (  1301 PWs)   bands (ev):

    -7.0244   0.1230   2.2282   4.0461

          k = 0.0000 0.6000 0.0000 (  1283 PWs)   bands (ev):

    -6.8234   0.1328   2.8437   2.8437

          k =-0.1000 0.7000-0.1000 (  1285 PWs)   bands (ev):

    -6.2556  -0.7684   2.2853   2.6354

          k = 0.8000-0.2000 0.8000 (  1281 PWs)   bands (ev):

    -5.6622  -1.5588   1.4782   2.6357

          k = 0.7000-0.1000 0.7000 (  1286 PWs)   bands (ev):

    -5.4165  -1.8261   0.9009   2.8420

          k = 0.6000-0.0000 0.6000 (  1294 PWs)   bands (ev):

    -5.7606  -1.4532   0.8946   3.2137

          k = 0.0000 0.8000 0.0000 (  1290 PWs)   bands (ev):

    -5.7967  -1.4005   2.3729   2.3729

          k = 0.9000-0.1000 0.9000 (  1295 PWs)   bands (ev):

    -5.3374  -1.9420   1.8481   2.3205

          k = 0.8000 0.0000 0.8000 (  1296 PWs)   bands (ev):

    -5.1745  -2.0277   1.0903   2.4859

          k = 0.0000-1.0000 0.0000 (  1298 PWs)   bands (ev):

    -5.1725  -2.1964   2.2092   2.2092

          k =-0.2000 0.4000 0.0000 (  1306 PWs)   bands (ev):

    -7.5104   1.1768   3.0890   3.9429

          k =-0.3000 0.5000-0.1000 (  1298 PWs)   bands (ev):

    -6.9042  -0.1378   2.4819   3.6429

          k = 0.6000-0.4000 0.8000 (  1283 PWs)   bands (ev):

    -6.2291  -1.3660   2.1949   3.3418

          k = 0.5000-0.3000 0.7000 (  1292 PWs)   bands (ev):

    -5.8783  -1.9192   2.1132   3.2188

          k =-0.2000 0.6000 0.0000 (  1298 PWs)   bands (ev):

    -6.6829  -0.1847   2.3637   2.9973

          k = 0.7000-0.3000 0.9000 (  1286 PWs)   bands (ev):

    -6.0436  -1.1346   1.7341   2.7054

          k = 0.6000-0.2000 0.8000 (  1285 PWs)   bands (ev):

    -5.5765  -1.7625   1.2916   2.6525

          k = 0.5000-0.1000 0.7000 (  1286 PWs)   bands (ev):

    -5.7092  -1.5808   1.1548   2.8775

          k = 0.4000 0.0000 0.6000 (  1286 PWs)   bands (ev):

    -6.2926  -0.8431   1.5128   3.2758

          k = 0.8000-0.2000 1.0000 (  1282 PWs)   bands (ev):

    -5.7116  -1.4473   1.9255   2.2354

          k = 0.7000-0.1000 0.9000 (  1283 PWs)   bands (ev):

    -5.2793  -1.8770   1.2392   2.1507

          k = 0.6000 0.0000 0.8000 (  1283 PWs)   bands (ev):

    -5.2899  -1.8298   0.8103   2.4171

          k =-0.2000-1.0000 0.0000 (  1294 PWs)   bands (ev):

    -5.1466  -2.1094   1.8580   1.8742

          k = 0.6000-0.2000 1.0000 (  1281 PWs)   bands (ev):

    -5.5026  -1.6051   1.1832   2.1793

          k = 0.5000-0.1000 0.9000 (  1274 PWs)   bands (ev):

    -5.2418  -1.8384   1.0112   1.9350

          k =-0.4000-1.0000 0.0000 (  1278 PWs)   bands (ev):

    -5.1036  -1.9480   1.3422   1.4431

     highest occupied level (ev):     4.6676

!    total energy              =     -19.14130041 Ry
     estimated scf accuracy    <       0.00000046 Ry

     The total energy is the sum of the following terms:
     one-electron contribution =       1.78578417 Ry
     hartree contribution      =       2.70444644 Ry
     xc contribution           =      -5.53266899 Ry
     ewald contribution        =     -18.09886203 Ry

     convergence has been achieved in  37 iterations
     Writing meta-gga kinetic term

     Writing all to output data dir ./input_pw/SiC/12/pwscf.save/
     Writing meta-gga kinetic term
 
     init_run     :      1.36s CPU      3.08s WALL (       1 calls)
     electrons    :     35.55s CPU     55.70s WALL (       1 calls)

     Called by init_run:
     wfcinit      :      1.22s CPU      2.59s WALL (       1 calls)
     potinit      :      0.03s CPU      0.11s WALL (       1 calls)
     hinit0       :      0.10s CPU      0.34s WALL (       1 calls)

     Called by electrons:
     c_bands      :     27.83s CPU     43.55s WALL (      37 calls)
     sum_band     :      6.69s CPU     10.49s WALL (      37 calls)
     v_of_rho     :      0.64s CPU      1.11s WALL (      38 calls)
     mix_rho      :      0.40s CPU      0.64s WALL (      37 calls)

     Called by c_bands:
     init_us_2    :      0.49s CPU      0.80s WALL (    3525 calls)
     init_us_2:cp :      0.48s CPU      0.78s WALL (    3525 calls)
     cegterg      :     27.37s CPU     42.80s WALL (    1739 calls)

     Called by *egterg:
     cdiaghg      :      0.16s CPU      0.35s WALL (    4098 calls)
     h_psi        :     27.84s CPU     44.10s WALL (    4145 calls)
     g_psi        :      0.03s CPU      0.05s WALL (    2359 calls)

     Called by h_psi:
     h_psi:calbec :      0.11s CPU      0.23s WALL (    4145 calls)
     vloc_psi     :      6.83s CPU     10.75s WALL (    4145 calls)
     add_vuspsi   :      0.12s CPU      0.16s WALL (    4145 calls)
     h_psi_meta   :     20.72s CPU     32.87s WALL (    4145 calls)

     General routines
     calbec       :      0.10s CPU      0.21s WALL (    4145 calls)
     fft          :      0.08s CPU      0.23s WALL (     453 calls)
     ffts         :      0.14s CPU      0.19s WALL (     760 calls)
     fftw         :     28.64s CPU     45.01s WALL (  159600 calls)
     interpolate  :      0.00s CPU      0.00s WALL (      38 calls)
 
     Parallel routines
 
     PWSCF        :     36.97s CPU     58.90s WALL

 
   This run was terminated on:  12:57: 3  29Mar2023            

=------------------------------------------------------------------------------=
   JOB DONE.
=------------------------------------------------------------------------------=
