
     Program PWSCF v.7.0 starts on 14Mar2023 at 12: 2:31 

     This program is part of the open-source Quantum ESPRESSO suite
     for quantum simulation of materials; please cite
         "P. Giannozzi et al., J. Phys.:Condens. Matter 21 395502 (2009);
         "P. Giannozzi et al., J. Phys.:Condens. Matter 29 465901 (2017);
         "P. Giannozzi et al., J. Chem. Phys. 152 154105 (2020);
          URL http://www.quantum-espresso.org", 
     in publications or presentations arising from this work. More details at
     http://www.quantum-espresso.org/quote

     Parallel version (MPI), running on     1 processors

     MPI processes distributed on     1 nodes
     27220 MiB available memory on the printing compute node when the environment starts
 
     Waiting for input...
     Reading input from standard input
Warning: card &CELL ignored
Warning: card / ignored

     Current dimensions of program PWSCF are:
     Max number of different atomic species (ntypx) = 10
     Max number of k-points (npk) =  40000
     Max angular momentum in pseudopotentials (lmaxx) =  4
     file Si.SCAN.UPF2: wavefunction(s)  0D renormalized

     WARNING: the MGGA functional with ID    5 has been 
     read together with other dft terms, but it should 
     stand alone in order to work properly. The other 
     terms will be ignored.

     WARNING: the MGGA functional with ID    5 has been 
     read together with other dft terms, but it should 
     stand alone in order to work properly. The other 
     terms will be ignored.

     Subspace diagonalization in iterative solution of the eigenvalue problem:
     a serial algorithm will be used

 
     G-vector sticks info
     --------------------
     sticks:   dense  smooth     PW     G-vecs:    dense   smooth      PW
     Sum         769     769    241                14331    14331    2445
 
     Using Slab Decomposition
 


     bravais-lattice index     =            2
     lattice parameter (alat)  =      10.6510  a.u.
     unit-cell volume          =     302.0725 (a.u.)^3
     number of atoms/cell      =            2
     number of atomic types    =            2
     number of electrons       =         8.00
     number of Kohn-Sham states=            4
     kinetic-energy cutoff     =      50.0000  Ry
     charge density cutoff     =     200.0000  Ry
     scf convergence threshold =      1.0E-06
     mixing beta               =       0.0100
     number of iterations used =            8  local-TF  mixing
     Exchange-correlation= SLA  PW   SCAN SCAN
                           (   0   0   0   0   0 263 267)

     celldm(1)=  10.651000  celldm(2)=   0.000000  celldm(3)=   0.000000
     celldm(4)=   0.000000  celldm(5)=   0.000000  celldm(6)=   0.000000

     crystal axes: (cart. coord. in units of alat)
               a(1) = (  -0.500000   0.000000   0.500000 )  
               a(2) = (   0.000000   0.500000   0.500000 )  
               a(3) = (  -0.500000   0.500000   0.000000 )  

     reciprocal axes: (cart. coord. in units 2 pi/alat)
               b(1) = ( -1.000000 -1.000000  1.000000 )  
               b(2) = (  1.000000  1.000000  1.000000 )  
               b(3) = ( -1.000000  1.000000 -1.000000 )  


     PseudoPot. # 1 for Si read from file:
     ~/Documents/TA/PWDFT.jl/pseudopotentials/scan_upf/Si.SCAN.UPF2
     MD5 check sum: Not computed, couldn't open file
     Pseudo is Norm-conserving, Zval =  4.0
     Generated by new atomic code, or converted to UPF format
     Using radial grid of 1475 points,  2 beta functions with: 
                l(1) =   0
                l(2) =   1

     PseudoPot. # 2 for C  read from file:
     ~/Documents/TA/PWDFT.jl/pseudopotentials/scan_upf/C.SCAN.UPF2
     MD5 check sum: Not computed, couldn't open file
     Pseudo is Norm-conserving, Zval =  4.0
     Generated by new atomic code, or converted to UPF format
     Using radial grid of 1389 points,  1 beta functions with: 
                l(1) =   0

     atomic species   valence    mass     pseudopotential
        Si             4.00    28.08550     Si( 1.00)
        C              4.00    12.01100     C ( 1.00)

     24 Sym. Ops. (no inversion) found



   Cartesian axes

     site n.     atom                  positions (alat units)
         1           Si  tau(   1) = (   0.0000000   0.0000000   0.0000000  )
         2           C   tau(   2) = (   0.2500000   0.2500000   0.2500000  )

     number of k points=    47
                       cart. coord. in units 2pi/alat
        k(    1) = (   0.0000000   0.0000000   0.0000000), wk =   0.0020000
        k(    2) = (  -0.1000000   0.1000000  -0.1000000), wk =   0.0160000
        k(    3) = (  -0.2000000   0.2000000  -0.2000000), wk =   0.0160000
        k(    4) = (  -0.3000000   0.3000000  -0.3000000), wk =   0.0160000
        k(    5) = (  -0.4000000   0.4000000  -0.4000000), wk =   0.0160000
        k(    6) = (   0.5000000  -0.5000000   0.5000000), wk =   0.0080000
        k(    7) = (   0.0000000   0.2000000   0.0000000), wk =   0.0120000
        k(    8) = (  -0.1000000   0.3000000  -0.1000000), wk =   0.0480000
        k(    9) = (  -0.2000000   0.4000000  -0.2000000), wk =   0.0480000
        k(   10) = (  -0.3000000   0.5000000  -0.3000000), wk =   0.0480000
        k(   11) = (   0.6000000  -0.4000000   0.6000000), wk =   0.0480000
        k(   12) = (   0.5000000  -0.3000000   0.5000000), wk =   0.0480000
        k(   13) = (   0.4000000  -0.2000000   0.4000000), wk =   0.0480000
        k(   14) = (   0.3000000  -0.1000000   0.3000000), wk =   0.0480000
        k(   15) = (   0.2000000   0.0000000   0.2000000), wk =   0.0240000
        k(   16) = (   0.0000000   0.4000000   0.0000000), wk =   0.0120000
        k(   17) = (  -0.1000000   0.5000000  -0.1000000), wk =   0.0480000
        k(   18) = (  -0.2000000   0.6000000  -0.2000000), wk =   0.0480000
        k(   19) = (   0.7000000  -0.3000000   0.7000000), wk =   0.0480000
        k(   20) = (   0.6000000  -0.2000000   0.6000000), wk =   0.0480000
        k(   21) = (   0.5000000  -0.1000000   0.5000000), wk =   0.0480000
        k(   22) = (   0.4000000   0.0000000   0.4000000), wk =   0.0240000
        k(   23) = (   0.0000000   0.6000000   0.0000000), wk =   0.0120000
        k(   24) = (  -0.1000000   0.7000000  -0.1000000), wk =   0.0480000
        k(   25) = (   0.8000000  -0.2000000   0.8000000), wk =   0.0480000
        k(   26) = (   0.7000000  -0.1000000   0.7000000), wk =   0.0480000
        k(   27) = (   0.6000000  -0.0000000   0.6000000), wk =   0.0240000
        k(   28) = (   0.0000000   0.8000000   0.0000000), wk =   0.0120000
        k(   29) = (   0.9000000  -0.1000000   0.9000000), wk =   0.0480000
        k(   30) = (   0.8000000   0.0000000   0.8000000), wk =   0.0240000
        k(   31) = (   0.0000000  -1.0000000   0.0000000), wk =   0.0060000
        k(   32) = (  -0.2000000   0.4000000   0.0000000), wk =   0.0480000
        k(   33) = (  -0.3000000   0.5000000  -0.1000000), wk =   0.0960000
        k(   34) = (   0.6000000  -0.4000000   0.8000000), wk =   0.0960000
        k(   35) = (   0.5000000  -0.3000000   0.7000000), wk =   0.0480000
        k(   36) = (  -0.2000000   0.6000000   0.0000000), wk =   0.0480000
        k(   37) = (   0.7000000  -0.3000000   0.9000000), wk =   0.0960000
        k(   38) = (   0.6000000  -0.2000000   0.8000000), wk =   0.0960000
        k(   39) = (   0.5000000  -0.1000000   0.7000000), wk =   0.0960000
        k(   40) = (   0.4000000   0.0000000   0.6000000), wk =   0.0480000
        k(   41) = (   0.8000000  -0.2000000   1.0000000), wk =   0.0480000
        k(   42) = (   0.7000000  -0.1000000   0.9000000), wk =   0.0960000
        k(   43) = (   0.6000000   0.0000000   0.8000000), wk =   0.0480000
        k(   44) = (  -0.2000000  -1.0000000   0.0000000), wk =   0.0240000
        k(   45) = (   0.6000000  -0.2000000   1.0000000), wk =   0.0480000
        k(   46) = (   0.5000000  -0.1000000   0.9000000), wk =   0.0480000
        k(   47) = (  -0.4000000  -1.0000000   0.0000000), wk =   0.0240000

     Dense  grid:    14331 G-vectors     FFT dimensions: (  36,  36,  36)

     Estimated max dynamical RAM per process >      27.63 MB

     WARNING: libxc functional with ID  263 depends
      on external parameters: check the user_guide of
      QE if you need to modify them or to check their
      default values.

     Initial potential from superposition of free atoms

     starting charge       7.9995, renormalised to       8.0000
     Starting wfcs are   13 randomized atomic wfcs

     total cpu time spent up to now is        7.3 secs

     Self-consistent Calculation

     iteration #  1     ecut=    50.00 Ry     beta= 0.01
     Davidson diagonalization with overlap
     ethr =  1.00E-02,  avg # of iterations =  1.1

     total cpu time spent up to now is       13.1 secs

     total energy              =     -18.93274060 Ry
     estimated scf accuracy    <       0.91304151 Ry

     iteration #  2     ecut=    50.00 Ry     beta= 0.01
     Davidson diagonalization with overlap
     ethr =  1.00E-02,  avg # of iterations =  1.0

     total cpu time spent up to now is       18.4 secs

     total energy              =     -18.89443475 Ry
     estimated scf accuracy    <       0.90000873 Ry

     iteration #  3     ecut=    50.00 Ry     beta= 0.01
     Davidson diagonalization with overlap
     ethr =  1.00E-02,  avg # of iterations =  1.0

     total cpu time spent up to now is       23.7 secs

     total energy              =     -18.89943225 Ry
     estimated scf accuracy    <       0.16790608 Ry

     iteration #  4     ecut=    50.00 Ry     beta= 0.01
     Davidson diagonalization with overlap
     ethr =  2.10E-03,  avg # of iterations =  2.0

     total cpu time spent up to now is       30.3 secs

     total energy              =     -18.91696752 Ry
     estimated scf accuracy    <       0.02315633 Ry

     iteration #  5     ecut=    50.00 Ry     beta= 0.01
     Davidson diagonalization with overlap
     ethr =  2.89E-04,  avg # of iterations =  3.1

     total cpu time spent up to now is       37.7 secs

     total energy              =     -18.92327047 Ry
     estimated scf accuracy    <       0.06987519 Ry

     iteration #  6     ecut=    50.00 Ry     beta= 0.01
     Davidson diagonalization with overlap
     ethr =  2.89E-04,  avg # of iterations =  1.0

     total cpu time spent up to now is       43.6 secs

     total energy              =     -18.92752879 Ry
     estimated scf accuracy    <       0.07833854 Ry

     iteration #  7     ecut=    50.00 Ry     beta= 0.01
     Davidson diagonalization with overlap
     ethr =  2.89E-04,  avg # of iterations =  1.1

     total cpu time spent up to now is       49.0 secs

     total energy              =     -18.93190007 Ry
     estimated scf accuracy    <       0.01963818 Ry

     iteration #  8     ecut=    50.00 Ry     beta= 0.01
     Davidson diagonalization with overlap
     ethr =  2.45E-04,  avg # of iterations =  1.0

     total cpu time spent up to now is       54.1 secs

     total energy              =     -18.93288740 Ry
     estimated scf accuracy    <       0.05315574 Ry

     iteration #  9     ecut=    50.00 Ry     beta= 0.01
     Davidson diagonalization with overlap
     ethr =  2.45E-04,  avg # of iterations =  1.0

     total cpu time spent up to now is       59.6 secs

     total energy              =     -18.93256707 Ry
     estimated scf accuracy    <       0.05938224 Ry

     iteration # 10     ecut=    50.00 Ry     beta= 0.01
     Davidson diagonalization with overlap
     ethr =  2.45E-04,  avg # of iterations =  1.0

     total cpu time spent up to now is       63.8 secs

     total energy              =     -18.92557341 Ry
     estimated scf accuracy    <       0.06348796 Ry

     iteration # 11     ecut=    50.00 Ry     beta= 0.01
     Davidson diagonalization with overlap
     ethr =  2.45E-04,  avg # of iterations =  1.0

     total cpu time spent up to now is       67.9 secs

     total energy              =     -18.92647966 Ry
     estimated scf accuracy    <       0.03634242 Ry

     iteration # 12     ecut=    50.00 Ry     beta= 0.01
     Davidson diagonalization with overlap
     ethr =  2.45E-04,  avg # of iterations =  1.0

     total cpu time spent up to now is       71.4 secs

     total energy              =     -18.92656041 Ry
     estimated scf accuracy    <       0.03504357 Ry

     iteration # 13     ecut=    50.00 Ry     beta= 0.01
     Davidson diagonalization with overlap
     ethr =  2.45E-04,  avg # of iterations =  1.0

     total cpu time spent up to now is       74.5 secs

     total energy              =     -18.92578656 Ry
     estimated scf accuracy    <       0.03114872 Ry

     iteration # 14     ecut=    50.00 Ry     beta= 0.01
     Davidson diagonalization with overlap
     ethr =  2.45E-04,  avg # of iterations =  1.0

     total cpu time spent up to now is       77.1 secs

     total energy              =     -18.92223336 Ry
     estimated scf accuracy    <       0.02708754 Ry

     iteration # 15     ecut=    50.00 Ry     beta= 0.01
     Davidson diagonalization with overlap
     ethr =  2.45E-04,  avg # of iterations =  1.0

     total cpu time spent up to now is       79.4 secs

     total energy              =     -18.92371119 Ry
     estimated scf accuracy    <       0.00350259 Ry

     iteration # 16     ecut=    50.00 Ry     beta= 0.01
     Davidson diagonalization with overlap
     ethr =  4.38E-05,  avg # of iterations =  1.7

     total cpu time spent up to now is       82.1 secs

     total energy              =     -18.92376443 Ry
     estimated scf accuracy    <       0.00430670 Ry

     iteration # 17     ecut=    50.00 Ry     beta= 0.01
     Davidson diagonalization with overlap
     ethr =  4.38E-05,  avg # of iterations =  1.0

     total cpu time spent up to now is       84.5 secs

     total energy              =     -18.92388504 Ry
     estimated scf accuracy    <       0.00251540 Ry

     iteration # 18     ecut=    50.00 Ry     beta= 0.01
     Davidson diagonalization with overlap
     ethr =  3.14E-05,  avg # of iterations =  1.0

     total cpu time spent up to now is       86.6 secs

     total energy              =     -18.92374346 Ry
     estimated scf accuracy    <       0.00259840 Ry

     iteration # 19     ecut=    50.00 Ry     beta= 0.01
     Davidson diagonalization with overlap
     ethr =  3.14E-05,  avg # of iterations =  1.0

     total cpu time spent up to now is       88.5 secs

     total energy              =     -18.92377163 Ry
     estimated scf accuracy    <       0.00135047 Ry

     iteration # 20     ecut=    50.00 Ry     beta= 0.01
     Davidson diagonalization with overlap
     ethr =  1.69E-05,  avg # of iterations =  1.0

     total cpu time spent up to now is       90.8 secs

     total energy              =     -18.92377276 Ry
     estimated scf accuracy    <       0.00133268 Ry

     iteration # 21     ecut=    50.00 Ry     beta= 0.01
     Davidson diagonalization with overlap
     ethr =  1.67E-05,  avg # of iterations =  1.0

     total cpu time spent up to now is       93.1 secs

     total energy              =     -18.92386477 Ry
     estimated scf accuracy    <       0.00119653 Ry

     iteration # 22     ecut=    50.00 Ry     beta= 0.01
     Davidson diagonalization with overlap
     ethr =  1.50E-05,  avg # of iterations =  1.0

     total cpu time spent up to now is       95.5 secs

     total energy              =     -18.92410508 Ry
     estimated scf accuracy    <       0.00172039 Ry

     iteration # 23     ecut=    50.00 Ry     beta= 0.01
     Davidson diagonalization with overlap
     ethr =  1.50E-05,  avg # of iterations =  1.0

     total cpu time spent up to now is       97.8 secs

     total energy              =     -18.92402159 Ry
     estimated scf accuracy    <       0.00368953 Ry

     iteration # 24     ecut=    50.00 Ry     beta= 0.01
     Davidson diagonalization with overlap
     ethr =  1.50E-05,  avg # of iterations =  1.0

     total cpu time spent up to now is      100.1 secs

     total energy              =     -18.92367177 Ry
     estimated scf accuracy    <       0.00326471 Ry

     iteration # 25     ecut=    50.00 Ry     beta= 0.01
     Davidson diagonalization with overlap
     ethr =  1.50E-05,  avg # of iterations =  1.0

     total cpu time spent up to now is      102.5 secs

     total energy              =     -18.92352397 Ry
     estimated scf accuracy    <       0.00117204 Ry

     iteration # 26     ecut=    50.00 Ry     beta= 0.01
     Davidson diagonalization with overlap
     ethr =  1.47E-05,  avg # of iterations =  2.0

     total cpu time spent up to now is      105.2 secs

     total energy              =     -18.92365331 Ry
     estimated scf accuracy    <       0.00002393 Ry

     iteration # 27     ecut=    50.00 Ry     beta= 0.01
     Davidson diagonalization with overlap
     ethr =  2.99E-07,  avg # of iterations =  4.4

     total cpu time spent up to now is      109.4 secs

     total energy              =     -18.92383353 Ry
     estimated scf accuracy    <       0.00020595 Ry

     iteration # 28     ecut=    50.00 Ry     beta= 0.01
     Davidson diagonalization with overlap
     ethr =  2.99E-07,  avg # of iterations =  6.1

     total cpu time spent up to now is      115.1 secs

     total energy              =     -18.92416268 Ry
     estimated scf accuracy    <       0.00357019 Ry

     iteration # 29     ecut=    50.00 Ry     beta= 0.01
     Davidson diagonalization with overlap
     ethr =  2.99E-07,  avg # of iterations =  3.1

     total cpu time spent up to now is      119.0 secs

     total energy              =     -18.92383358 Ry
     estimated scf accuracy    <       0.00576977 Ry

     iteration # 30     ecut=    50.00 Ry     beta= 0.01
     Davidson diagonalization with overlap
     ethr =  2.99E-07,  avg # of iterations =  4.4

     total cpu time spent up to now is      123.6 secs

     total energy              =     -18.92386136 Ry
     estimated scf accuracy    <       0.00263637 Ry

     iteration # 31     ecut=    50.00 Ry     beta= 0.01
     Davidson diagonalization with overlap
     ethr =  2.99E-07,  avg # of iterations =  1.0

     total cpu time spent up to now is      126.0 secs

     total energy              =     -18.92391998 Ry
     estimated scf accuracy    <       0.00243485 Ry

     iteration # 32     ecut=    50.00 Ry     beta= 0.01
     Davidson diagonalization with overlap
     ethr =  2.99E-07,  avg # of iterations =  2.0

     total cpu time spent up to now is      128.9 secs

     total energy              =     -18.92395250 Ry
     estimated scf accuracy    <       0.00281956 Ry

     iteration # 33     ecut=    50.00 Ry     beta= 0.01
     Davidson diagonalization with overlap
     ethr =  2.99E-07,  avg # of iterations =  2.0

     total cpu time spent up to now is      132.1 secs

     total energy              =     -18.92378032 Ry
     estimated scf accuracy    <       0.00310682 Ry

     iteration # 34     ecut=    50.00 Ry     beta= 0.01
     Davidson diagonalization with overlap
     ethr =  2.99E-07,  avg # of iterations =  3.3

     total cpu time spent up to now is      136.1 secs

     total energy              =     -18.92367011 Ry
     estimated scf accuracy    <       0.00154337 Ry

     iteration # 35     ecut=    50.00 Ry     beta= 0.01
     Davidson diagonalization with overlap
     ethr =  2.99E-07,  avg # of iterations =  4.4

     total cpu time spent up to now is      140.7 secs

     total energy              =     -18.92397852 Ry
     estimated scf accuracy    <       0.00066345 Ry

     iteration # 36     ecut=    50.00 Ry     beta= 0.01
     Davidson diagonalization with overlap
     ethr =  2.99E-07,  avg # of iterations =  6.0

     total cpu time spent up to now is      146.6 secs

     total energy              =     -18.92311504 Ry
     estimated scf accuracy    <       0.00429980 Ry

     iteration # 37     ecut=    50.00 Ry     beta= 0.01
     Davidson diagonalization with overlap
     ethr =  2.99E-07,  avg # of iterations =  7.9

     total cpu time spent up to now is      153.8 secs

     total energy              =     -18.92353934 Ry
     estimated scf accuracy    <       0.00041993 Ry

     iteration # 38     ecut=    50.00 Ry     beta= 0.01
     Davidson diagonalization with overlap
     ethr =  2.99E-07,  avg # of iterations =  8.2

     total cpu time spent up to now is      159.1 secs

     total energy              =     -18.92441039 Ry
     estimated scf accuracy    <       0.00571003 Ry

     iteration # 39     ecut=    50.00 Ry     beta= 0.01
     Davidson diagonalization with overlap
     ethr =  2.99E-07,  avg # of iterations =  2.4

     total cpu time spent up to now is      161.1 secs

     total energy              =     -18.92396247 Ry
     estimated scf accuracy    <       0.00666512 Ry

     iteration # 40     ecut=    50.00 Ry     beta= 0.01
     Davidson diagonalization with overlap
     ethr =  2.99E-07,  avg # of iterations =  4.7

     total cpu time spent up to now is      163.8 secs

     total energy              =     -18.92298592 Ry
     estimated scf accuracy    <       0.00346573 Ry

     iteration # 41     ecut=    50.00 Ry     beta= 0.01
     Davidson diagonalization with overlap
     ethr =  2.99E-07,  avg # of iterations =  8.7

     total cpu time spent up to now is      169.5 secs

     total energy              =     -18.92367706 Ry
     estimated scf accuracy    <       0.00206073 Ry

     iteration # 42     ecut=    50.00 Ry     beta= 0.01
     Davidson diagonalization with overlap
     ethr =  2.99E-07,  avg # of iterations =  4.5

     total cpu time spent up to now is      174.1 secs

     total energy              =     -18.92364933 Ry
     estimated scf accuracy    <       0.00053605 Ry

     iteration # 43     ecut=    50.00 Ry     beta= 0.01
     Davidson diagonalization with overlap
     ethr =  2.99E-07,  avg # of iterations =  3.9

     total cpu time spent up to now is      178.3 secs

     total energy              =     -18.92367129 Ry
     estimated scf accuracy    <       0.00004347 Ry

     iteration # 44     ecut=    50.00 Ry     beta= 0.01
     Davidson diagonalization with overlap
     ethr =  2.99E-07,  avg # of iterations =  2.0

     total cpu time spent up to now is      181.1 secs

     total energy              =     -18.92367513 Ry
     estimated scf accuracy    <       0.00000431 Ry

     iteration # 45     ecut=    50.00 Ry     beta= 0.01
     Davidson diagonalization with overlap
     ethr =  5.39E-08,  avg # of iterations =  2.7

     total cpu time spent up to now is      184.3 secs

     End of self-consistent calculation

          k = 0.0000 0.0000 0.0000 (  1807 PWs)   bands (ev):

    -9.3315   0.5954   2.0358   2.0358

          k =-0.1000 0.1000-0.1000 (  1829 PWs)   bands (ev):

    -9.2332  -0.1460   1.9381   1.9381

          k =-0.2000 0.2000-0.2000 (  1811 PWs)   bands (ev):

    -8.9498  -1.3849   1.7174   1.7174

          k =-0.3000 0.3000-0.3000 (  1823 PWs)   bands (ev):

    -8.5262  -2.6025   1.4876   1.4876

          k =-0.4000 0.4000-0.4000 (  1829 PWs)   bands (ev):

    -8.0805  -3.5590   1.3257   1.3257

          k = 0.5000-0.5000 0.5000 (  1802 PWs)   bands (ev):

    -7.8663  -3.9486   1.2705   1.2705

          k = 0.0000 0.2000 0.0000 (  1824 PWs)   bands (ev):

    -9.2001  -0.2739   1.7601   1.7601

          k =-0.1000 0.3000-0.1000 (  1811 PWs)   bands (ev):

    -8.9772  -1.1860   1.4961   1.5017

          k =-0.2000 0.4000-0.2000 (  1821 PWs)   bands (ev):

    -8.5958  -2.3113   1.1581   1.2658

          k =-0.3000 0.5000-0.3000 (  1815 PWs)   bands (ev):

    -8.1421  -3.3183   0.8336   1.1365

          k = 0.6000-0.4000 0.6000 (  1801 PWs)   bands (ev):

    -7.8213  -3.9057   0.6217   1.1342

          k = 0.5000-0.3000 0.5000 (  1805 PWs)   bands (ev):

    -7.8962  -3.7752   0.5647   1.2537

          k = 0.4000-0.2000 0.4000 (  1812 PWs)   bands (ev):

    -8.2944  -3.0087   0.6831   1.4699

          k = 0.3000-0.1000 0.3000 (  1818 PWs)   bands (ev):

    -8.7389  -1.9425   0.9835   1.7250

          k = 0.2000 0.0000 0.2000 (  1819 PWs)   bands (ev):

    -9.0726  -0.8718   1.4540   1.9200

          k = 0.0000 0.4000 0.0000 (  1808 PWs)   bands (ev):

    -8.8174  -1.5713   1.1955   1.1955

          k =-0.1000 0.5000-0.1000 (  1802 PWs)   bands (ev):

    -8.4917  -2.3642   0.8114   0.9435

          k =-0.2000 0.6000-0.2000 (  1798 PWs)   bands (ev):

    -8.0634  -3.2258   0.3114   0.8102

          k = 0.7000-0.3000 0.7000 (  1793 PWs)   bands (ev):

    -7.6893  -3.8599  -0.0968   0.8207

          k = 0.6000-0.2000 0.6000 (  1802 PWs)   bands (ev):

    -7.6309  -3.9486  -0.2942   0.9708

          k = 0.5000-0.1000 0.5000 (  1800 PWs)   bands (ev):

    -7.9424  -3.4462  -0.2107   1.2285

          k = 0.4000 0.0000 0.4000 (  1809 PWs)   bands (ev):

    -8.3755  -2.6790   0.2163   1.5202

          k = 0.0000 0.6000 0.0000 (  1808 PWs)   bands (ev):

    -8.2271  -2.8344   0.6607   0.6607

          k =-0.1000 0.7000-0.1000 (  1797 PWs)   bands (ev):

    -7.8519  -3.4670   0.2553   0.5003

          k = 0.8000-0.2000 0.8000 (  1792 PWs)   bands (ev):

    -7.4888  -3.9892  -0.3059   0.4933

          k = 0.7000-0.1000 0.7000 (  1800 PWs)   bands (ev):

    -7.3573  -4.1514  -0.6901   0.6384

          k = 0.6000-0.0000 0.6000 (  1792 PWs)   bands (ev):

    -7.5668  -3.8879  -0.6934   0.9085

          k = 0.0000 0.8000 0.0000 (  1772 PWs)   bands (ev):

    -7.5535  -3.9111   0.3046   0.3046

          k = 0.9000-0.1000 0.9000 (  1793 PWs)   bands (ev):

    -7.2804  -4.2681  -0.0447   0.2614

          k = 0.8000 0.0000 0.8000 (  1806 PWs)   bands (ev):

    -7.1989  -4.3336  -0.5299   0.3804

          k = 0.0000-1.0000 0.0000 (  1772 PWs)   bands (ev):

    -7.1836  -4.4152   0.1800   0.1800

          k =-0.2000 0.4000 0.0000 (  1810 PWs)   bands (ev):

    -8.7028  -1.9368   0.8512   1.4328

          k =-0.3000 0.5000-0.1000 (  1816 PWs)   bands (ev):

    -8.2943  -2.8446   0.3487   1.2109

          k = 0.6000-0.4000 0.8000 (  1800 PWs)   bands (ev):

    -7.8672  -3.6355   0.0580   1.0034

          k = 0.5000-0.3000 0.7000 (  1806 PWs)   bands (ev):

    -7.6635  -3.9715  -0.0355   0.9220

          k =-0.2000 0.6000 0.0000 (  1807 PWs)   bands (ev):

    -8.1382  -3.0182   0.3138   0.7621

          k = 0.7000-0.3000 0.9000 (  1805 PWs)   bands (ev):

    -7.7295  -3.6694  -0.1597   0.5658

          k = 0.6000-0.2000 0.8000 (  1804 PWs)   bands (ev):

    -7.4564  -4.0575  -0.4869   0.5301

          k = 0.5000-0.1000 0.7000 (  1803 PWs)   bands (ev):

    -7.5363  -3.9446  -0.5591   0.6825

          k = 0.4000 0.0000 0.6000 (  1800 PWs)   bands (ev):

    -7.8943  -3.4416  -0.2886   0.9580

          k = 0.8000-0.2000 1.0000 (  1792 PWs)   bands (ev):

    -7.5083  -3.9492  -0.0002   0.2368

          k = 0.7000-0.1000 0.9000 (  1795 PWs)   bands (ev):

    -7.2591  -4.2441  -0.4387   0.1744

          k = 0.6000 0.0000 0.8000 (  1801 PWs)   bands (ev):

    -7.2768  -4.2088  -0.7171   0.3590

          k =-0.2000-1.0000 0.0000 (  1790 PWs)   bands (ev):

    -7.1743  -4.3818  -0.0331  -0.0273

          k = 0.6000-0.2000 1.0000 (  1799 PWs)   bands (ev):

    -7.3967  -4.0601  -0.4907   0.2167

          k = 0.5000-0.1000 0.9000 (  1800 PWs)   bands (ev):

    -7.2458  -4.2295  -0.5931   0.0522

          k =-0.4000-1.0000 0.0000 (  1792 PWs)   bands (ev):

    -7.1590  -4.3247  -0.3347  -0.3006

     highest occupied level (ev):     2.0358

!    total energy              =     -18.92367580 Ry
     estimated scf accuracy    <       0.00000011 Ry

     The total energy is the sum of the following terms:
     one-electron contribution =      -0.58855263 Ry
     hartree contribution      =       3.04548886 Ry
     xc contribution           =      -5.19644737 Ry
     ewald contribution        =     -16.18416466 Ry

     convergence has been achieved in  45 iterations
     Writing meta-gga kinetic term

     Writing all to output data dir ./input_pw/SiC/12/pwscf.save/
     Writing meta-gga kinetic term
 
     init_run     :      2.98s CPU      7.17s WALL (       1 calls)
     electrons    :    139.94s CPU    177.04s WALL (       1 calls)

     Called by init_run:
     wfcinit      :      2.83s CPU      6.83s WALL (       1 calls)
     potinit      :      0.04s CPU      0.11s WALL (       1 calls)
     hinit0       :      0.10s CPU      0.20s WALL (       1 calls)

     Called by electrons:
     c_bands      :    116.62s CPU    145.56s WALL (      45 calls)
     sum_band     :     20.72s CPU     27.95s WALL (      45 calls)
     v_of_rho     :      1.35s CPU      1.89s WALL (      46 calls)
     mix_rho      :      1.24s CPU      1.64s WALL (      45 calls)

     Called by c_bands:
     init_us_2    :      0.95s CPU      1.35s WALL (    4277 calls)
     init_us_2:cp :      0.93s CPU      1.32s WALL (    4277 calls)
     cegterg      :    115.72s CPU    144.43s WALL (    2115 calls)

     Called by *egterg:
     cdiaghg      :      0.44s CPU      0.51s WALL (    7420 calls)
     h_psi        :    116.24s CPU    148.30s WALL (    7467 calls)
     g_psi        :      0.10s CPU      0.12s WALL (    5305 calls)

     Called by h_psi:
     h_psi:calbec :      0.36s CPU      0.44s WALL (    7467 calls)
     vloc_psi     :     28.80s CPU     36.56s WALL (    7467 calls)
     add_vuspsi   :      0.33s CPU      0.40s WALL (    7467 calls)
     h_psi_meta   :     86.58s CPU    110.73s WALL (    7467 calls)

     General routines
     calbec       :      0.34s CPU      0.42s WALL (    7467 calls)
     fft          :      0.27s CPU      0.45s WALL (     549 calls)
     ffts         :      0.50s CPU      0.66s WALL (    1016 calls)
     fftw         :    119.29s CPU    153.56s WALL (  250400 calls)
     interpolate  :      0.00s CPU      0.00s WALL (      46 calls)
 
     Parallel routines
 
     PWSCF        :   2m22.98s CPU   3m 4.32s WALL

 
   This run was terminated on:  12: 5:35  14Mar2023            

=------------------------------------------------------------------------------=
   JOB DONE.
=------------------------------------------------------------------------------=
