
     Program PWSCF v.7.0 starts on 29Mar2023 at 10:21:34 

     This program is part of the open-source Quantum ESPRESSO suite
     for quantum simulation of materials; please cite
         "P. Giannozzi et al., J. Phys.:Condens. Matter 21 395502 (2009);
         "P. Giannozzi et al., J. Phys.:Condens. Matter 29 465901 (2017);
         "P. Giannozzi et al., J. Chem. Phys. 152 154105 (2020);
          URL http://www.quantum-espresso.org", 
     in publications or presentations arising from this work. More details at
     http://www.quantum-espresso.org/quote

     Parallel version (MPI), running on     1 processors

     MPI processes distributed on     1 nodes
     23846 MiB available memory on the printing compute node when the environment starts
 
     Waiting for input...
     Reading input from standard input
Warning: card &CELL ignored
Warning: card / ignored

     Current dimensions of program PWSCF are:
     Max number of different atomic species (ntypx) = 10
     Max number of k-points (npk) =  40000
     Max angular momentum in pseudopotentials (lmaxx) =  4
     file Cl.SCAN.UPF2: wavefunction(s)  0D renormalized

     WARNING: the MGGA functional with ID    5 has been 
     read together with other dft terms, but it should 
     stand alone in order to work properly. The other 
     terms will be ignored.

     WARNING: the MGGA functional with ID    5 has been 
     read together with other dft terms, but it should 
     stand alone in order to work properly. The other 
     terms will be ignored.

     Subspace diagonalization in iterative solution of the eigenvalue problem:
     a serial algorithm will be used

 
     G-vector sticks info
     --------------------
     sticks:   dense  smooth     PW     G-vecs:    dense   smooth      PW
     Sum        1003    1003    301                20875    20875    3479
 
     Using Slab Decomposition
 


     bravais-lattice index     =            2
     lattice parameter (alat)  =      12.0540  a.u.
     unit-cell volume          =     437.8583 (a.u.)^3
     number of atoms/cell      =            2
     number of atomic types    =            2
     number of electrons       =         8.00
     number of Kohn-Sham states=            4
     kinetic-energy cutoff     =      50.0000  Ry
     charge density cutoff     =     200.0000  Ry
     scf convergence threshold =      1.0E-06
     mixing beta               =       0.0100
     number of iterations used =            8  local-TF  mixing
     Exchange-correlation= SLA  PW   SCAN SCAN
                           (   0   0   0   0   0 263 267)

     celldm(1)=  12.054000  celldm(2)=   0.000000  celldm(3)=   0.000000
     celldm(4)=   0.000000  celldm(5)=   0.000000  celldm(6)=   0.000000

     crystal axes: (cart. coord. in units of alat)
               a(1) = (  -0.500000   0.000000   0.500000 )  
               a(2) = (   0.000000   0.500000   0.500000 )  
               a(3) = (  -0.500000   0.500000   0.000000 )  

     reciprocal axes: (cart. coord. in units 2 pi/alat)
               b(1) = ( -1.000000 -1.000000  1.000000 )  
               b(2) = (  1.000000  1.000000  1.000000 )  
               b(3) = ( -1.000000  1.000000 -1.000000 )  


     PseudoPot. # 1 for Li read from file:
     ~/Documents/TA/PWDFT.jl/pseudopotentials/scan_upf/Li.SCAN.UPF2
     MD5 check sum: Not computed, couldn't open file
     Pseudo is Norm-conserving, Zval =  1.0
     Generated by new atomic code, or converted to UPF format
     Using radial grid of 1321 points,  1 beta functions with: 
                l(1) =   0

     PseudoPot. # 2 for Cl read from file:
     ~/Documents/TA/PWDFT.jl/pseudopotentials/scan_upf/Cl.SCAN.UPF2
     MD5 check sum: Not computed, couldn't open file
     Pseudo is Norm-conserving, Zval =  7.0
     Generated by new atomic code, or converted to UPF format
     Using radial grid of 1493 points,  2 beta functions with: 
                l(1) =   0
                l(2) =   1

     atomic species   valence    mass     pseudopotential
        Li             1.00     6.94100     Li( 1.00)
        Cl             7.00    35.45300     Cl( 1.00)

     48 Sym. Ops., with inversion, found



   Cartesian axes

     site n.     atom                  positions (alat units)
         1           Li  tau(   1) = (   0.0000000   0.0000000   0.0000000  )
         2           Cl  tau(   2) = (   0.5000000   0.5000000   0.5000000  )

     number of k points=    47
                       cart. coord. in units 2pi/alat
        k(    1) = (   0.0000000   0.0000000   0.0000000), wk =   0.0020000
        k(    2) = (  -0.1000000   0.1000000  -0.1000000), wk =   0.0160000
        k(    3) = (  -0.2000000   0.2000000  -0.2000000), wk =   0.0160000
        k(    4) = (  -0.3000000   0.3000000  -0.3000000), wk =   0.0160000
        k(    5) = (  -0.4000000   0.4000000  -0.4000000), wk =   0.0160000
        k(    6) = (   0.5000000  -0.5000000   0.5000000), wk =   0.0080000
        k(    7) = (   0.0000000   0.2000000   0.0000000), wk =   0.0120000
        k(    8) = (  -0.1000000   0.3000000  -0.1000000), wk =   0.0480000
        k(    9) = (  -0.2000000   0.4000000  -0.2000000), wk =   0.0480000
        k(   10) = (  -0.3000000   0.5000000  -0.3000000), wk =   0.0480000
        k(   11) = (   0.6000000  -0.4000000   0.6000000), wk =   0.0480000
        k(   12) = (   0.5000000  -0.3000000   0.5000000), wk =   0.0480000
        k(   13) = (   0.4000000  -0.2000000   0.4000000), wk =   0.0480000
        k(   14) = (   0.3000000  -0.1000000   0.3000000), wk =   0.0480000
        k(   15) = (   0.2000000   0.0000000   0.2000000), wk =   0.0240000
        k(   16) = (   0.0000000   0.4000000   0.0000000), wk =   0.0120000
        k(   17) = (  -0.1000000   0.5000000  -0.1000000), wk =   0.0480000
        k(   18) = (  -0.2000000   0.6000000  -0.2000000), wk =   0.0480000
        k(   19) = (   0.7000000  -0.3000000   0.7000000), wk =   0.0480000
        k(   20) = (   0.6000000  -0.2000000   0.6000000), wk =   0.0480000
        k(   21) = (   0.5000000  -0.1000000   0.5000000), wk =   0.0480000
        k(   22) = (   0.4000000   0.0000000   0.4000000), wk =   0.0240000
        k(   23) = (   0.0000000   0.6000000   0.0000000), wk =   0.0120000
        k(   24) = (  -0.1000000   0.7000000  -0.1000000), wk =   0.0480000
        k(   25) = (   0.8000000  -0.2000000   0.8000000), wk =   0.0480000
        k(   26) = (   0.7000000  -0.1000000   0.7000000), wk =   0.0480000
        k(   27) = (   0.6000000  -0.0000000   0.6000000), wk =   0.0240000
        k(   28) = (   0.0000000   0.8000000   0.0000000), wk =   0.0120000
        k(   29) = (   0.9000000  -0.1000000   0.9000000), wk =   0.0480000
        k(   30) = (   0.8000000   0.0000000   0.8000000), wk =   0.0240000
        k(   31) = (   0.0000000  -1.0000000   0.0000000), wk =   0.0060000
        k(   32) = (  -0.2000000   0.4000000   0.0000000), wk =   0.0480000
        k(   33) = (  -0.3000000   0.5000000  -0.1000000), wk =   0.0960000
        k(   34) = (   0.6000000  -0.4000000   0.8000000), wk =   0.0960000
        k(   35) = (   0.5000000  -0.3000000   0.7000000), wk =   0.0480000
        k(   36) = (  -0.2000000   0.6000000   0.0000000), wk =   0.0480000
        k(   37) = (   0.7000000  -0.3000000   0.9000000), wk =   0.0960000
        k(   38) = (   0.6000000  -0.2000000   0.8000000), wk =   0.0960000
        k(   39) = (   0.5000000  -0.1000000   0.7000000), wk =   0.0960000
        k(   40) = (   0.4000000   0.0000000   0.6000000), wk =   0.0480000
        k(   41) = (   0.8000000  -0.2000000   1.0000000), wk =   0.0480000
        k(   42) = (   0.7000000  -0.1000000   0.9000000), wk =   0.0960000
        k(   43) = (   0.6000000   0.0000000   0.8000000), wk =   0.0480000
        k(   44) = (  -0.2000000  -1.0000000   0.0000000), wk =   0.0240000
        k(   45) = (   0.6000000  -0.2000000   1.0000000), wk =   0.0480000
        k(   46) = (   0.5000000  -0.1000000   0.9000000), wk =   0.0480000
        k(   47) = (  -0.4000000  -1.0000000   0.0000000), wk =   0.0240000

     Dense  grid:    20875 G-vectors     FFT dimensions: (  40,  40,  40)

     Estimated max dynamical RAM per process >      39.66 MB

     WARNING: libxc functional with ID  263 depends
      on external parameters: check the user_guide of
      QE if you need to modify them or to check their
      default values.

     Initial potential from superposition of free atoms

     starting charge       7.9953, renormalised to       8.0000
     Starting wfcs are   13 randomized atomic wfcs

     total cpu time spent up to now is        8.1 secs

     Self-consistent Calculation

     iteration #  1     ecut=    50.00 Ry     beta= 0.01
     Davidson diagonalization with overlap
     ethr =  1.00E-02,  avg # of iterations =  1.0

     total cpu time spent up to now is       14.3 secs

     total energy              =     -30.60363663 Ry
     estimated scf accuracy    <       0.39315731 Ry

     iteration #  2     ecut=    50.00 Ry     beta= 0.01
     Davidson diagonalization with overlap
     ethr =  4.91E-03,  avg # of iterations =  1.0

     total cpu time spent up to now is       20.7 secs

     total energy              =     -30.65058793 Ry
     estimated scf accuracy    <       0.37375321 Ry

     iteration #  3     ecut=    50.00 Ry     beta= 0.01
     Davidson diagonalization with overlap
     ethr =  4.67E-03,  avg # of iterations =  1.0

     total cpu time spent up to now is       26.3 secs

     total energy              =     -30.68254599 Ry
     estimated scf accuracy    <       0.26952973 Ry

     iteration #  4     ecut=    50.00 Ry     beta= 0.01
     Davidson diagonalization with overlap
     ethr =  3.37E-03,  avg # of iterations =  1.0

     total cpu time spent up to now is       32.8 secs

     total energy              =     -30.68473794 Ry
     estimated scf accuracy    <       0.01395420 Ry

     iteration #  5     ecut=    50.00 Ry     beta= 0.01
     Davidson diagonalization with overlap
     ethr =  1.74E-04,  avg # of iterations =  1.0

     total cpu time spent up to now is       37.6 secs

     total energy              =     -30.68117325 Ry
     estimated scf accuracy    <       0.01221366 Ry

     iteration #  6     ecut=    50.00 Ry     beta= 0.01
     Davidson diagonalization with overlap
     ethr =  1.53E-04,  avg # of iterations =  1.0

     total cpu time spent up to now is       41.7 secs

     total energy              =     -30.68235320 Ry
     estimated scf accuracy    <       0.00629852 Ry

     iteration #  7     ecut=    50.00 Ry     beta= 0.01
     Davidson diagonalization with overlap
     ethr =  7.87E-05,  avg # of iterations =  2.0

     total cpu time spent up to now is       46.6 secs

     total energy              =     -30.68513908 Ry
     estimated scf accuracy    <       0.00444432 Ry

     iteration #  8     ecut=    50.00 Ry     beta= 0.01
     Davidson diagonalization with overlap
     ethr =  5.56E-05,  avg # of iterations =  1.0

     total cpu time spent up to now is       50.1 secs

     total energy              =     -30.68485851 Ry
     estimated scf accuracy    <       0.00533074 Ry

     iteration #  9     ecut=    50.00 Ry     beta= 0.01
     Davidson diagonalization with overlap
     ethr =  5.56E-05,  avg # of iterations =  1.0

     total cpu time spent up to now is       53.6 secs

     total energy              =     -30.68356524 Ry
     estimated scf accuracy    <       0.00456433 Ry

     iteration # 10     ecut=    50.00 Ry     beta= 0.01
     Davidson diagonalization with overlap
     ethr =  5.56E-05,  avg # of iterations =  1.9

     total cpu time spent up to now is       57.5 secs

     total energy              =     -30.68407073 Ry
     estimated scf accuracy    <       0.00019480 Ry

     iteration # 11     ecut=    50.00 Ry     beta= 0.01
     Davidson diagonalization with overlap
     ethr =  2.44E-06,  avg # of iterations =  1.9

     total cpu time spent up to now is       59.7 secs

     total energy              =     -30.68417012 Ry
     estimated scf accuracy    <       0.00022640 Ry

     iteration # 12     ecut=    50.00 Ry     beta= 0.01
     Davidson diagonalization with overlap
     ethr =  2.44E-06,  avg # of iterations =  1.0

     total cpu time spent up to now is       61.3 secs

     total energy              =     -30.68419716 Ry
     estimated scf accuracy    <       0.00032558 Ry

     iteration # 13     ecut=    50.00 Ry     beta= 0.01
     Davidson diagonalization with overlap
     ethr =  2.44E-06,  avg # of iterations =  1.0

     total cpu time spent up to now is       62.8 secs

     total energy              =     -30.68405053 Ry
     estimated scf accuracy    <       0.00039615 Ry

     iteration # 14     ecut=    50.00 Ry     beta= 0.01
     Davidson diagonalization with overlap
     ethr =  2.44E-06,  avg # of iterations =  2.0

     total cpu time spent up to now is       64.8 secs

     total energy              =     -30.68410273 Ry
     estimated scf accuracy    <       0.00000884 Ry

     iteration # 15     ecut=    50.00 Ry     beta= 0.01
     Davidson diagonalization with overlap
     ethr =  1.11E-07,  avg # of iterations =  1.0

     total cpu time spent up to now is       66.3 secs

     total energy              =     -30.68409635 Ry
     estimated scf accuracy    <       0.00001789 Ry

     iteration # 16     ecut=    50.00 Ry     beta= 0.01
     Davidson diagonalization with overlap
     ethr =  1.11E-07,  avg # of iterations =  2.0

     total cpu time spent up to now is       68.4 secs

     total energy              =     -30.68410169 Ry
     estimated scf accuracy    <       0.00000167 Ry

     iteration # 17     ecut=    50.00 Ry     beta= 0.01
     Davidson diagonalization with overlap
     ethr =  2.09E-08,  avg # of iterations =  2.0

     total cpu time spent up to now is       70.4 secs

     total energy              =     -30.68410209 Ry
     estimated scf accuracy    <       0.00000341 Ry

     iteration # 18     ecut=    50.00 Ry     beta= 0.01
     Davidson diagonalization with overlap
     ethr =  2.09E-08,  avg # of iterations =  1.0

     total cpu time spent up to now is       71.9 secs

     total energy              =     -30.68410141 Ry
     estimated scf accuracy    <       0.00000303 Ry

     iteration # 19     ecut=    50.00 Ry     beta= 0.01
     Davidson diagonalization with overlap
     ethr =  2.09E-08,  avg # of iterations =  1.0

     total cpu time spent up to now is       73.4 secs

     End of self-consistent calculation

          k = 0.0000 0.0000 0.0000 (  2685 PWs)   bands (ev):

   -15.0830  -2.5976  -2.5976  -2.5976

          k =-0.1000 0.1000-0.1000 (  2661 PWs)   bands (ev):

   -15.0733  -2.7195  -2.6060  -2.6060

          k =-0.2000 0.2000-0.2000 (  2629 PWs)   bands (ev):

   -15.0482  -3.0059  -2.6277  -2.6277

          k =-0.3000 0.3000-0.3000 (  2629 PWs)   bands (ev):

   -15.0172  -3.3134  -2.6539  -2.6539

          k =-0.4000 0.4000-0.4000 (  2599 PWs)   bands (ev):

   -14.9914  -3.5358  -2.6745  -2.6745

          k = 0.5000-0.5000 0.5000 (  2608 PWs)   bands (ev):

   -14.9817  -3.6159  -2.6823  -2.6823

          k = 0.0000 0.2000 0.0000 (  2653 PWs)   bands (ev):

   -15.0701  -2.7141  -2.6323  -2.6323

          k =-0.1000 0.3000-0.1000 (  2630 PWs)   bands (ev):

   -15.0502  -2.9294  -2.6683  -2.6482

          k =-0.2000 0.4000-0.2000 (  2615 PWs)   bands (ev):

   -15.0210  -3.2186  -2.6999  -2.6769

          k =-0.3000 0.5000-0.3000 (  2605 PWs)   bands (ev):

   -14.9934  -3.4575  -2.7186  -2.7153

          k = 0.6000-0.4000 0.6000 (  2604 PWs)   bands (ev):

   -14.9783  -3.5776  -2.7568  -2.7091

          k = 0.5000-0.3000 0.5000 (  2602 PWs)   bands (ev):

   -14.9816  -3.5509  -2.7762  -2.6837

          k = 0.4000-0.2000 0.4000 (  2622 PWs)   bands (ev):

   -15.0021  -3.3848  -2.7681  -2.6484

          k = 0.3000-0.1000 0.3000 (  2615 PWs)   bands (ev):

   -15.0314  -3.1249  -2.7315  -2.6164

          k = 0.2000 0.0000 0.2000 (  2635 PWs)   bands (ev):

   -15.0585  -2.8636  -2.6701  -2.6000

          k = 0.0000 0.4000 0.0000 (  2613 PWs)   bands (ev):

   -15.0365  -2.9848  -2.7217  -2.7217

          k =-0.1000 0.5000-0.1000 (  2625 PWs)   bands (ev):

   -15.0126  -3.1826  -2.7695  -2.7672

          k =-0.2000 0.6000-0.2000 (  2606 PWs)   bands (ev):

   -14.9868  -3.3771  -2.8398  -2.7883

          k = 0.7000-0.3000 0.7000 (  2618 PWs)   bands (ev):

   -14.9698  -3.4879  -2.9231  -2.7776

          k = 0.6000-0.2000 0.6000 (  2605 PWs)   bands (ev):

   -14.9677  -3.4883  -2.9825  -2.7388

          k = 0.5000-0.1000 0.5000 (  2611 PWs)   bands (ev):

   -14.9817  -3.3937  -2.9789  -2.6860

          k = 0.4000 0.0000 0.4000 (  2615 PWs)   bands (ev):

   -15.0061  -3.2574  -2.8845  -2.6389

          k = 0.0000 0.6000 0.0000 (  2626 PWs)   bands (ev):

   -14.9947  -3.2731  -2.8295  -2.8295

          k =-0.1000 0.7000-0.1000 (  2606 PWs)   bands (ev):

   -14.9740  -3.3953  -2.9018  -2.8641

          k = 0.8000-0.2000 0.8000 (  2621 PWs)   bands (ev):

   -14.9590  -3.4460  -3.0271  -2.8592

          k = 0.7000-0.1000 0.7000 (  2601 PWs)   bands (ev):

   -14.9548  -3.3934  -3.1714  -2.8164

          k = 0.6000-0.0000 0.6000 (  2614 PWs)   bands (ev):

   -14.9636  -3.3422  -3.1876  -2.7505

          k = 0.0000 0.8000 0.0000 (  2606 PWs)   bands (ev):

   -14.9599  -3.4817  -2.9147  -2.9147

          k = 0.9000-0.1000 0.9000 (  2596 PWs)   bands (ev):

   -14.9499  -3.5147  -2.9846  -2.9229

          k = 0.8000 0.0000 0.8000 (  2606 PWs)   bands (ev):

   -14.9481  -3.4528  -3.1171  -2.8860

          k = 0.0000-1.0000 0.0000 (  2586 PWs)   bands (ev):

   -14.9464  -3.5570  -2.9468  -2.9468

          k =-0.2000 0.4000 0.0000 (  2616 PWs)   bands (ev):

   -15.0281  -3.0969  -2.7675  -2.6593

          k =-0.3000 0.5000-0.1000 (  2617 PWs)   bands (ev):

   -15.0008  -3.3044  -2.8495  -2.6885

          k = 0.6000-0.4000 0.8000 (  2618 PWs)   bands (ev):

   -14.9784  -3.4670  -2.8913  -2.7265

          k = 0.5000-0.3000 0.7000 (  2604 PWs)   bands (ev):

   -14.9697  -3.5273  -2.9026  -2.7444

          k =-0.2000 0.6000 0.0000 (  2608 PWs)   bands (ev):

   -14.9901  -3.3105  -2.8845  -2.7851

          k = 0.7000-0.3000 0.9000 (  2615 PWs)   bands (ev):

   -14.9697  -3.4065  -2.9863  -2.8186

          k = 0.6000-0.2000 0.8000 (  2607 PWs)   bands (ev):

   -14.9590  -3.4325  -3.0757  -2.8230

          k = 0.5000-0.1000 0.7000 (  2621 PWs)   bands (ev):

   -14.9624  -3.3980  -3.1109  -2.7853

          k = 0.4000 0.0000 0.6000 (  2623 PWs)   bands (ev):

   -14.9785  -3.3565  -3.0238  -2.7294

          k = 0.8000-0.2000 1.0000 (  2611 PWs)   bands (ev):

   -14.9588  -3.4541  -2.9766  -2.9023

          k = 0.7000-0.1000 0.9000 (  2608 PWs)   bands (ev):

   -14.9502  -3.4296  -3.1018  -2.9069

          k = 0.6000 0.0000 0.8000 (  2604 PWs)   bands (ev):

   -14.9515  -3.3139  -3.2562  -2.8581

          k =-0.2000-1.0000 0.0000 (  2600 PWs)   bands (ev):

   -14.9466  -3.5041  -3.0112  -2.9493

          k = 0.6000-0.2000 1.0000 (  2627 PWs)   bands (ev):

   -14.9558  -3.3752  -3.1325  -2.8745

          k = 0.5000-0.1000 0.9000 (  2618 PWs)   bands (ev):

   -14.9503  -3.3246  -3.2186  -2.9052

          k =-0.4000-1.0000 0.0000 (  2610 PWs)   bands (ev):

   -14.9469  -3.3609  -3.1731  -2.9534

     highest occupied level (ev):    -2.5976

!    total energy              =     -30.68410117 Ry
     estimated scf accuracy    <       0.00000076 Ry

     The total energy is the sum of the following terms:
     one-electron contribution =     -13.23129688 Ry
     hartree contribution      =       9.04704582 Ry
     xc contribution           =      -6.21617956 Ry
     ewald contribution        =     -20.28367054 Ry

     convergence has been achieved in  19 iterations
     Writing meta-gga kinetic term

     Writing all to output data dir ./input_pw/LiCl/15/pwscf.save/
     Writing meta-gga kinetic term
 
     init_run     :      3.92s CPU      8.07s WALL (       1 calls)
     electrons    :     48.79s CPU     65.26s WALL (       1 calls)

     Called by init_run:
     wfcinit      :      3.76s CPU      7.59s WALL (       1 calls)
     potinit      :      0.05s CPU      0.15s WALL (       1 calls)
     hinit0       :      0.09s CPU      0.27s WALL (       1 calls)

     Called by electrons:
     c_bands      :     38.16s CPU     51.15s WALL (      19 calls)
     sum_band     :      9.26s CPU     12.35s WALL (      19 calls)
     v_of_rho     :      0.70s CPU      0.96s WALL (      20 calls)
     mix_rho      :      0.70s CPU      0.89s WALL (      19 calls)

     Called by c_bands:
     init_us_2    :      0.48s CPU      0.66s WALL (    1833 calls)
     init_us_2:cp :      0.47s CPU      0.65s WALL (    1833 calls)
     cegterg      :     37.71s CPU     50.51s WALL (     893 calls)

     Called by *egterg:
     cdiaghg      :      0.10s CPU      0.12s WALL (    2060 calls)
     h_psi        :     40.75s CPU     57.09s WALL (    2107 calls)
     g_psi        :      0.03s CPU      0.04s WALL (    1167 calls)

     Called by h_psi:
     h_psi:calbec :      0.13s CPU      0.16s WALL (    2107 calls)
     vloc_psi     :     10.06s CPU     14.16s WALL (    2107 calls)
     add_vuspsi   :      0.11s CPU      0.14s WALL (    2107 calls)
     h_psi_meta   :     30.40s CPU     42.56s WALL (    2107 calls)

     General routines
     calbec       :      0.12s CPU      0.16s WALL (    2107 calls)
     fft          :      0.12s CPU      0.22s WALL (     237 calls)
     ffts         :      0.27s CPU      0.35s WALL (     526 calls)
     fftw         :     42.53s CPU     59.10s WALL (   83376 calls)
     interpolate  :      0.00s CPU      0.00s WALL (      20 calls)
 
     Parallel routines
 
     PWSCF        :     52.75s CPU   1m13.41s WALL

 
   This run was terminated on:  10:22:48  29Mar2023            

=------------------------------------------------------------------------------=
   JOB DONE.
=------------------------------------------------------------------------------=
