
     Program PWSCF v.7.0 starts on  7Jul2023 at 14:24:18 

     This program is part of the open-source Quantum ESPRESSO suite
     for quantum simulation of materials; please cite
         "P. Giannozzi et al., J. Phys.:Condens. Matter 21 395502 (2009);
         "P. Giannozzi et al., J. Phys.:Condens. Matter 29 465901 (2017);
         "P. Giannozzi et al., J. Chem. Phys. 152 154105 (2020);
          URL http://www.quantum-espresso.org", 
     in publications or presentations arising from this work. More details at
     http://www.quantum-espresso.org/quote

     Parallel version (MPI), running on     1 processors

     MPI processes distributed on     1 nodes
     26884 MiB available memory on the printing compute node when the environment starts
 
     Waiting for input...
     Reading input from standard input
Warning: card &CELL ignored
Warning: card / ignored

     Current dimensions of program PWSCF are:
     Max number of different atomic species (ntypx) = 10
     Max number of k-points (npk) =  40000
     Max angular momentum in pseudopotentials (lmaxx) =  4
     file Cl.SCAN.UPF2: wavefunction(s)  0D renormalized

     WARNING: the MGGA functional with ID    5 has been 
     read together with other dft terms, but it should 
     stand alone in order to work properly. The other 
     terms will be ignored.

     WARNING: the MGGA functional with ID    5 has been 
     read together with other dft terms, but it should 
     stand alone in order to work properly. The other 
     terms will be ignored.

     Subspace diagonalization in iterative solution of the eigenvalue problem:
     a serial algorithm will be used

 
     G-vector sticks info
     --------------------
     sticks:   dense  smooth     PW     G-vecs:    dense   smooth      PW
     Sum        1003    1003    301                20875    20875    3479
 
     Using Slab Decomposition
 


     bravais-lattice index     =            2
     lattice parameter (alat)  =      12.0540  a.u.
     unit-cell volume          =     437.8556 (a.u.)^3
     number of atoms/cell      =            2
     number of atomic types    =            2
     number of electrons       =         8.00
     number of Kohn-Sham states=            4
     kinetic-energy cutoff     =      50.0000  Ry
     charge density cutoff     =     200.0000  Ry
     scf convergence threshold =      2.0E-05
     mixing beta               =       0.2000
     number of iterations used =            8  local-TF  mixing
     Exchange-correlation= SLA  PW   SCAN SCAN
                           (   0   0   0   0   0 263 267)

     celldm(1)=  12.053975  celldm(2)=   0.000000  celldm(3)=   0.000000
     celldm(4)=   0.000000  celldm(5)=   0.000000  celldm(6)=   0.000000

     crystal axes: (cart. coord. in units of alat)
               a(1) = (  -0.500000   0.000000   0.500000 )  
               a(2) = (   0.000000   0.500000   0.500000 )  
               a(3) = (  -0.500000   0.500000   0.000000 )  

     reciprocal axes: (cart. coord. in units 2 pi/alat)
               b(1) = ( -1.000000 -1.000000  1.000000 )  
               b(2) = (  1.000000  1.000000  1.000000 )  
               b(3) = ( -1.000000  1.000000 -1.000000 )  


     PseudoPot. # 1 for Li read from file:
     ~/Documents/TA/PWDFT.jl/pseudopotentials/scan_upf/Li.SCAN.UPF2
     MD5 check sum: Not computed, couldn't open file
     Pseudo is Norm-conserving, Zval =  1.0
     Generated by new atomic code, or converted to UPF format
     Using radial grid of 1321 points,  1 beta functions with: 
                l(1) =   0

     PseudoPot. # 2 for Cl read from file:
     ~/Documents/TA/PWDFT.jl/pseudopotentials/scan_upf/Cl.SCAN.UPF2
     MD5 check sum: Not computed, couldn't open file
     Pseudo is Norm-conserving, Zval =  7.0
     Generated by new atomic code, or converted to UPF format
     Using radial grid of 1493 points,  2 beta functions with: 
                l(1) =   0
                l(2) =   1

     atomic species   valence    mass     pseudopotential
        Li             1.00     6.94100     Li( 1.00)
        Cl             7.00    35.45300     Cl( 1.00)

     48 Sym. Ops., with inversion, found



   Cartesian axes

     site n.     atom                  positions (alat units)
         1           Li  tau(   1) = (   0.0000000   0.0000000   0.0000000  )
         2           Cl  tau(   2) = (   0.5000000   0.5000000   0.5000000  )

     number of k points=    47
                       cart. coord. in units 2pi/alat
        k(    1) = (   0.0000000   0.0000000   0.0000000), wk =   0.0020000
        k(    2) = (  -0.1000000   0.1000000  -0.1000000), wk =   0.0160000
        k(    3) = (  -0.2000000   0.2000000  -0.2000000), wk =   0.0160000
        k(    4) = (  -0.3000000   0.3000000  -0.3000000), wk =   0.0160000
        k(    5) = (  -0.4000000   0.4000000  -0.4000000), wk =   0.0160000
        k(    6) = (   0.5000000  -0.5000000   0.5000000), wk =   0.0080000
        k(    7) = (   0.0000000   0.2000000   0.0000000), wk =   0.0120000
        k(    8) = (  -0.1000000   0.3000000  -0.1000000), wk =   0.0480000
        k(    9) = (  -0.2000000   0.4000000  -0.2000000), wk =   0.0480000
        k(   10) = (  -0.3000000   0.5000000  -0.3000000), wk =   0.0480000
        k(   11) = (   0.6000000  -0.4000000   0.6000000), wk =   0.0480000
        k(   12) = (   0.5000000  -0.3000000   0.5000000), wk =   0.0480000
        k(   13) = (   0.4000000  -0.2000000   0.4000000), wk =   0.0480000
        k(   14) = (   0.3000000  -0.1000000   0.3000000), wk =   0.0480000
        k(   15) = (   0.2000000   0.0000000   0.2000000), wk =   0.0240000
        k(   16) = (   0.0000000   0.4000000   0.0000000), wk =   0.0120000
        k(   17) = (  -0.1000000   0.5000000  -0.1000000), wk =   0.0480000
        k(   18) = (  -0.2000000   0.6000000  -0.2000000), wk =   0.0480000
        k(   19) = (   0.7000000  -0.3000000   0.7000000), wk =   0.0480000
        k(   20) = (   0.6000000  -0.2000000   0.6000000), wk =   0.0480000
        k(   21) = (   0.5000000  -0.1000000   0.5000000), wk =   0.0480000
        k(   22) = (   0.4000000   0.0000000   0.4000000), wk =   0.0240000
        k(   23) = (   0.0000000   0.6000000   0.0000000), wk =   0.0120000
        k(   24) = (  -0.1000000   0.7000000  -0.1000000), wk =   0.0480000
        k(   25) = (   0.8000000  -0.2000000   0.8000000), wk =   0.0480000
        k(   26) = (   0.7000000  -0.1000000   0.7000000), wk =   0.0480000
        k(   27) = (   0.6000000  -0.0000000   0.6000000), wk =   0.0240000
        k(   28) = (   0.0000000   0.8000000   0.0000000), wk =   0.0120000
        k(   29) = (   0.9000000  -0.1000000   0.9000000), wk =   0.0480000
        k(   30) = (   0.8000000   0.0000000   0.8000000), wk =   0.0240000
        k(   31) = (   0.0000000  -1.0000000   0.0000000), wk =   0.0060000
        k(   32) = (  -0.2000000   0.4000000   0.0000000), wk =   0.0480000
        k(   33) = (  -0.3000000   0.5000000  -0.1000000), wk =   0.0960000
        k(   34) = (   0.6000000  -0.4000000   0.8000000), wk =   0.0960000
        k(   35) = (   0.5000000  -0.3000000   0.7000000), wk =   0.0480000
        k(   36) = (  -0.2000000   0.6000000   0.0000000), wk =   0.0480000
        k(   37) = (   0.7000000  -0.3000000   0.9000000), wk =   0.0960000
        k(   38) = (   0.6000000  -0.2000000   0.8000000), wk =   0.0960000
        k(   39) = (   0.5000000  -0.1000000   0.7000000), wk =   0.0960000
        k(   40) = (   0.4000000   0.0000000   0.6000000), wk =   0.0480000
        k(   41) = (   0.8000000  -0.2000000   1.0000000), wk =   0.0480000
        k(   42) = (   0.7000000  -0.1000000   0.9000000), wk =   0.0960000
        k(   43) = (   0.6000000   0.0000000   0.8000000), wk =   0.0480000
        k(   44) = (  -0.2000000  -1.0000000   0.0000000), wk =   0.0240000
        k(   45) = (   0.6000000  -0.2000000   1.0000000), wk =   0.0480000
        k(   46) = (   0.5000000  -0.1000000   0.9000000), wk =   0.0480000
        k(   47) = (  -0.4000000  -1.0000000   0.0000000), wk =   0.0240000

     Dense  grid:    20875 G-vectors     FFT dimensions: (  40,  40,  40)

     Estimated max dynamical RAM per process >      39.66 MB

     WARNING: libxc functional with ID  263 depends
      on external parameters: check the user_guide of
      QE if you need to modify them or to check their
      default values.

     Initial potential from superposition of free atoms

     starting charge       7.9953, renormalised to       8.0000
     Starting wfcs are   13 randomized atomic wfcs

     total cpu time spent up to now is        7.9 secs

     Self-consistent Calculation

     iteration #  1     ecut=    50.00 Ry     beta= 0.20
     Davidson diagonalization with overlap
     ethr =  1.00E-02,  avg # of iterations =  1.0

     total cpu time spent up to now is       13.7 secs

     total energy              =     -30.65202437 Ry
     estimated scf accuracy    <       0.39315648 Ry

     iteration #  2     ecut=    50.00 Ry     beta= 0.20
     Davidson diagonalization with overlap
     ethr =  4.91E-03,  avg # of iterations =  1.0

     total cpu time spent up to now is       19.0 secs

     total energy              =     -30.67813564 Ry
     estimated scf accuracy    <       0.26236884 Ry

     iteration #  3     ecut=    50.00 Ry     beta= 0.20
     Davidson diagonalization with overlap
     ethr =  3.28E-03,  avg # of iterations =  1.0

     total cpu time spent up to now is       22.9 secs

     total energy              =     -30.68226253 Ry
     estimated scf accuracy    <       0.00852099 Ry

     iteration #  4     ecut=    50.00 Ry     beta= 0.20
     Davidson diagonalization with overlap
     ethr =  1.07E-04,  avg # of iterations =  1.5

     total cpu time spent up to now is       26.3 secs

     total energy              =     -30.68302369 Ry
     estimated scf accuracy    <       0.00363458 Ry

     iteration #  5     ecut=    50.00 Ry     beta= 0.20
     Davidson diagonalization with overlap
     ethr =  4.54E-05,  avg # of iterations =  2.0

     total cpu time spent up to now is       30.3 secs

     total energy              =     -30.68406879 Ry
     estimated scf accuracy    <       0.00058133 Ry

     iteration #  6     ecut=    50.00 Ry     beta= 0.20
     Davidson diagonalization with overlap
     ethr =  7.27E-06,  avg # of iterations =  2.0

     total cpu time spent up to now is       33.9 secs

     total energy              =     -30.68400664 Ry
     estimated scf accuracy    <       0.00028326 Ry

     iteration #  7     ecut=    50.00 Ry     beta= 0.20
     Davidson diagonalization with overlap
     ethr =  3.54E-06,  avg # of iterations =  2.0

     total cpu time spent up to now is       37.0 secs

     total energy              =     -30.68410310 Ry
     estimated scf accuracy    <       0.00009927 Ry

     iteration #  8     ecut=    50.00 Ry     beta= 0.20
     Davidson diagonalization with overlap
     ethr =  1.24E-06,  avg # of iterations =  1.0

     total cpu time spent up to now is       38.5 secs

     total energy              =     -30.68409620 Ry
     estimated scf accuracy    <       0.00003822 Ry

     iteration #  9     ecut=    50.00 Ry     beta= 0.20
     Davidson diagonalization with overlap
     ethr =  4.78E-07,  avg # of iterations =  2.0

     total cpu time spent up to now is       40.5 secs

     End of self-consistent calculation

          k = 0.0000 0.0000 0.0000 (  2685 PWs)   bands (ev):

   -15.0783  -2.5937  -2.5937  -2.5937

          k =-0.1000 0.1000-0.1000 (  2661 PWs)   bands (ev):

   -15.0686  -2.7157  -2.6021  -2.6021

          k =-0.2000 0.2000-0.2000 (  2629 PWs)   bands (ev):

   -15.0435  -3.0023  -2.6238  -2.6238

          k =-0.3000 0.3000-0.3000 (  2629 PWs)   bands (ev):

   -15.0124  -3.3101  -2.6500  -2.6500

          k =-0.4000 0.4000-0.4000 (  2599 PWs)   bands (ev):

   -14.9866  -3.5326  -2.6706  -2.6706

          k = 0.5000-0.5000 0.5000 (  2608 PWs)   bands (ev):

   -14.9769  -3.6128  -2.6784  -2.6784

          k = 0.0000 0.2000 0.0000 (  2653 PWs)   bands (ev):

   -15.0654  -2.7103  -2.6284  -2.6284

          k =-0.1000 0.3000-0.1000 (  2630 PWs)   bands (ev):

   -15.0455  -2.9258  -2.6644  -2.6443

          k =-0.2000 0.4000-0.2000 (  2615 PWs)   bands (ev):

   -15.0162  -3.2152  -2.6960  -2.6730

          k =-0.3000 0.5000-0.3000 (  2605 PWs)   bands (ev):

   -14.9887  -3.4543  -2.7148  -2.7115

          k = 0.6000-0.4000 0.6000 (  2604 PWs)   bands (ev):

   -14.9736  -3.5745  -2.7530  -2.7052

          k = 0.5000-0.3000 0.5000 (  2602 PWs)   bands (ev):

   -14.9768  -3.5477  -2.7724  -2.6798

          k = 0.4000-0.2000 0.4000 (  2622 PWs)   bands (ev):

   -14.9974  -3.3815  -2.7643  -2.6445

          k = 0.3000-0.1000 0.3000 (  2615 PWs)   bands (ev):

   -15.0266  -3.1214  -2.7277  -2.6124

          k = 0.2000 0.0000 0.2000 (  2635 PWs)   bands (ev):

   -15.0538  -2.8600  -2.6662  -2.5960

          k = 0.0000 0.4000 0.0000 (  2613 PWs)   bands (ev):

   -15.0317  -2.9812  -2.7178  -2.7178

          k =-0.1000 0.5000-0.1000 (  2625 PWs)   bands (ev):

   -15.0078  -3.1791  -2.7657  -2.7634

          k =-0.2000 0.6000-0.2000 (  2606 PWs)   bands (ev):

   -14.9820  -3.3739  -2.8361  -2.7845

          k = 0.7000-0.3000 0.7000 (  2618 PWs)   bands (ev):

   -14.9650  -3.4847  -2.9194  -2.7738

          k = 0.6000-0.2000 0.6000 (  2605 PWs)   bands (ev):

   -14.9629  -3.4851  -2.9789  -2.7350

          k = 0.5000-0.1000 0.5000 (  2611 PWs)   bands (ev):

   -14.9769  -3.3905  -2.9753  -2.6821

          k = 0.4000 0.0000 0.4000 (  2615 PWs)   bands (ev):

   -15.0013  -3.2541  -2.8808  -2.6350

          k = 0.0000 0.6000 0.0000 (  2626 PWs)   bands (ev):

   -14.9899  -3.2697  -2.8258  -2.8258

          k =-0.1000 0.7000-0.1000 (  2606 PWs)   bands (ev):

   -14.9693  -3.3920  -2.8981  -2.8604

          k = 0.8000-0.2000 0.8000 (  2621 PWs)   bands (ev):

   -14.9542  -3.4428  -3.0235  -2.8554

          k = 0.7000-0.1000 0.7000 (  2601 PWs)   bands (ev):

   -14.9500  -3.3901  -3.1679  -2.8126

          k = 0.6000-0.0000 0.6000 (  2614 PWs)   bands (ev):

   -14.9589  -3.3388  -3.1841  -2.7467

          k = 0.0000 0.8000 0.0000 (  2606 PWs)   bands (ev):

   -14.9552  -3.4785  -2.9110  -2.9110

          k = 0.9000-0.1000 0.9000 (  2596 PWs)   bands (ev):

   -14.9451  -3.5115  -2.9810  -2.9192

          k = 0.8000 0.0000 0.8000 (  2606 PWs)   bands (ev):

   -14.9433  -3.4495  -3.1136  -2.8823

          k = 0.0000-1.0000 0.0000 (  2586 PWs)   bands (ev):

   -14.9416  -3.5539  -2.9431  -2.9431

          k =-0.2000 0.4000 0.0000 (  2616 PWs)   bands (ev):

   -15.0234  -3.0935  -2.7637  -2.6554

          k =-0.3000 0.5000-0.1000 (  2617 PWs)   bands (ev):

   -14.9960  -3.3011  -2.8457  -2.6846

          k = 0.6000-0.4000 0.8000 (  2618 PWs)   bands (ev):

   -14.9737  -3.4638  -2.8876  -2.7226

          k = 0.5000-0.3000 0.7000 (  2604 PWs)   bands (ev):

   -14.9649  -3.5241  -2.8989  -2.7406

          k =-0.2000 0.6000 0.0000 (  2608 PWs)   bands (ev):

   -14.9853  -3.3072  -2.8808  -2.7813

          k = 0.7000-0.3000 0.9000 (  2615 PWs)   bands (ev):

   -14.9649  -3.4032  -2.9827  -2.8149

          k = 0.6000-0.2000 0.8000 (  2607 PWs)   bands (ev):

   -14.9542  -3.4292  -3.0721  -2.8192

          k = 0.5000-0.1000 0.7000 (  2621 PWs)   bands (ev):

   -14.9576  -3.3947  -3.1074  -2.7815

          k = 0.4000 0.0000 0.6000 (  2623 PWs)   bands (ev):

   -14.9737  -3.3532  -3.0202  -2.7256

          k = 0.8000-0.2000 1.0000 (  2611 PWs)   bands (ev):

   -14.9540  -3.4509  -2.9730  -2.8986

          k = 0.7000-0.1000 0.9000 (  2608 PWs)   bands (ev):

   -14.9454  -3.4264  -3.0983  -2.9032

          k = 0.6000 0.0000 0.8000 (  2604 PWs)   bands (ev):

   -14.9467  -3.3106  -3.2528  -2.8544

          k =-0.2000-1.0000 0.0000 (  2600 PWs)   bands (ev):

   -14.9418  -3.5009  -3.0076  -2.9456

          k = 0.6000-0.2000 1.0000 (  2627 PWs)   bands (ev):

   -14.9510  -3.3719  -3.1290  -2.8708

          k = 0.5000-0.1000 0.9000 (  2618 PWs)   bands (ev):

   -14.9455  -3.3212  -3.2151  -2.9015

          k =-0.4000-1.0000 0.0000 (  2610 PWs)   bands (ev):

   -14.9421  -3.3575  -3.1696  -2.9498

     highest occupied level (ev):    -2.5937

!    total energy              =     -30.68410236 Ry
     estimated scf accuracy    <       0.00000004 Ry

     The total energy is the sum of the following terms:
     one-electron contribution =     -13.23001836 Ry
     hartree contribution      =       9.04542699 Ry
     xc contribution           =      -6.21579884 Ry
     ewald contribution        =     -20.28371214 Ry

     convergence has been achieved in   9 iterations
     Writing meta-gga kinetic term

     Writing all to output data dir ./input_pw/LiCl/15/pwscf.save/
     Writing meta-gga kinetic term
 
     init_run     :      3.85s CPU      7.88s WALL (       1 calls)
     electrons    :     26.41s CPU     32.62s WALL (       1 calls)

     Called by init_run:
     wfcinit      :      3.68s CPU      7.52s WALL (       1 calls)
     potinit      :      0.05s CPU      0.24s WALL (       1 calls)
     hinit0       :      0.09s CPU      0.10s WALL (       1 calls)

     Called by electrons:
     c_bands      :     21.16s CPU     26.26s WALL (       9 calls)
     sum_band     :      4.61s CPU      5.56s WALL (       9 calls)
     v_of_rho     :      0.36s CPU      0.62s WALL (      10 calls)
     mix_rho      :      0.30s CPU      0.37s WALL (       9 calls)

     Called by c_bands:
     init_us_2    :      0.25s CPU      0.31s WALL (     893 calls)
     init_us_2:cp :      0.25s CPU      0.30s WALL (     893 calls)
     cegterg      :     20.93s CPU     25.95s WALL (     423 calls)

     Called by *egterg:
     cdiaghg      :      0.06s CPU      0.07s WALL (    1059 calls)
     h_psi        :     24.14s CPU     32.77s WALL (    1106 calls)
     g_psi        :      0.02s CPU      0.02s WALL (     636 calls)

     Called by h_psi:
     h_psi:calbec :      0.08s CPU      0.09s WALL (    1106 calls)
     vloc_psi     :      5.96s CPU      8.10s WALL (    1106 calls)
     add_vuspsi   :      0.07s CPU      0.07s WALL (    1106 calls)
     h_psi_meta   :     18.01s CPU     24.47s WALL (    1106 calls)

     General routines
     calbec       :      0.07s CPU      0.09s WALL (    1106 calls)
     fft          :      0.06s CPU      0.09s WALL (     117 calls)
     ffts         :      0.12s CPU      0.12s WALL (     222 calls)
     fftw         :     24.67s CPU     33.08s WALL (   44304 calls)
     interpolate  :      0.00s CPU      0.00s WALL (      10 calls)
 
     Parallel routines
 
     PWSCF        :     30.29s CPU     40.56s WALL

 
   This run was terminated on:  14:24:58   7Jul2023            

=------------------------------------------------------------------------------=
   JOB DONE.
=------------------------------------------------------------------------------=
