
     Program PWSCF v.7.0 starts on 14Mar2023 at 14:28:43 

     This program is part of the open-source Quantum ESPRESSO suite
     for quantum simulation of materials; please cite
         "P. Giannozzi et al., J. Phys.:Condens. Matter 21 395502 (2009);
         "P. Giannozzi et al., J. Phys.:Condens. Matter 29 465901 (2017);
         "P. Giannozzi et al., J. Chem. Phys. 152 154105 (2020);
          URL http://www.quantum-espresso.org", 
     in publications or presentations arising from this work. More details at
     http://www.quantum-espresso.org/quote

     Parallel version (MPI), running on     1 processors

     MPI processes distributed on     1 nodes
     26707 MiB available memory on the printing compute node when the environment starts
 
     Waiting for input...
     Reading input from standard input
Warning: card &CELL ignored
Warning: card / ignored

     Current dimensions of program PWSCF are:
     Max number of different atomic species (ntypx) = 10
     Max number of k-points (npk) =  40000
     Max angular momentum in pseudopotentials (lmaxx) =  4
     file Cl.SCAN.UPF2: wavefunction(s)  0D renormalized

     WARNING: the MGGA functional with ID    5 has been 
     read together with other dft terms, but it should 
     stand alone in order to work properly. The other 
     terms will be ignored.

     WARNING: the MGGA functional with ID    5 has been 
     read together with other dft terms, but it should 
     stand alone in order to work properly. The other 
     terms will be ignored.

     Subspace diagonalization in iterative solution of the eigenvalue problem:
     a serial algorithm will be used

 
     G-vector sticks info
     --------------------
     sticks:   dense  smooth     PW     G-vecs:    dense   smooth      PW
     Sum         931     931    283                18763    18763    3119
 
     Using Slab Decomposition
 


     bravais-lattice index     =            2
     lattice parameter (alat)  =      11.6190  a.u.
     unit-cell volume          =     392.1446 (a.u.)^3
     number of atoms/cell      =            2
     number of atomic types    =            2
     number of electrons       =         8.00
     number of Kohn-Sham states=            4
     kinetic-energy cutoff     =      50.0000  Ry
     charge density cutoff     =     200.0000  Ry
     scf convergence threshold =      1.0E-06
     mixing beta               =       0.0100
     number of iterations used =            8  local-TF  mixing
     Exchange-correlation= SLA  PW   SCAN SCAN
                           (   0   0   0   0   0 263 267)

     celldm(1)=  11.619000  celldm(2)=   0.000000  celldm(3)=   0.000000
     celldm(4)=   0.000000  celldm(5)=   0.000000  celldm(6)=   0.000000

     crystal axes: (cart. coord. in units of alat)
               a(1) = (  -0.500000   0.000000   0.500000 )  
               a(2) = (   0.000000   0.500000   0.500000 )  
               a(3) = (  -0.500000   0.500000   0.000000 )  

     reciprocal axes: (cart. coord. in units 2 pi/alat)
               b(1) = ( -1.000000 -1.000000  1.000000 )  
               b(2) = (  1.000000  1.000000  1.000000 )  
               b(3) = ( -1.000000  1.000000 -1.000000 )  


     PseudoPot. # 1 for Li read from file:
     ~/Documents/TA/PWDFT.jl/pseudopotentials/scan_upf/Li.SCAN.UPF2
     MD5 check sum: Not computed, couldn't open file
     Pseudo is Norm-conserving, Zval =  1.0
     Generated by new atomic code, or converted to UPF format
     Using radial grid of 1321 points,  1 beta functions with: 
                l(1) =   0

     PseudoPot. # 2 for Cl read from file:
     ~/Documents/TA/PWDFT.jl/pseudopotentials/scan_upf/Cl.SCAN.UPF2
     MD5 check sum: Not computed, couldn't open file
     Pseudo is Norm-conserving, Zval =  7.0
     Generated by new atomic code, or converted to UPF format
     Using radial grid of 1493 points,  2 beta functions with: 
                l(1) =   0
                l(2) =   1

     atomic species   valence    mass     pseudopotential
        Li             1.00     6.94100     Li( 1.00)
        Cl             7.00    35.45300     Cl( 1.00)

     48 Sym. Ops., with inversion, found



   Cartesian axes

     site n.     atom                  positions (alat units)
         1           Li  tau(   1) = (   0.0000000   0.0000000   0.0000000  )
         2           Cl  tau(   2) = (   0.5000000   0.5000000   0.5000000  )

     number of k points=    47
                       cart. coord. in units 2pi/alat
        k(    1) = (   0.0000000   0.0000000   0.0000000), wk =   0.0020000
        k(    2) = (  -0.1000000   0.1000000  -0.1000000), wk =   0.0160000
        k(    3) = (  -0.2000000   0.2000000  -0.2000000), wk =   0.0160000
        k(    4) = (  -0.3000000   0.3000000  -0.3000000), wk =   0.0160000
        k(    5) = (  -0.4000000   0.4000000  -0.4000000), wk =   0.0160000
        k(    6) = (   0.5000000  -0.5000000   0.5000000), wk =   0.0080000
        k(    7) = (   0.0000000   0.2000000   0.0000000), wk =   0.0120000
        k(    8) = (  -0.1000000   0.3000000  -0.1000000), wk =   0.0480000
        k(    9) = (  -0.2000000   0.4000000  -0.2000000), wk =   0.0480000
        k(   10) = (  -0.3000000   0.5000000  -0.3000000), wk =   0.0480000
        k(   11) = (   0.6000000  -0.4000000   0.6000000), wk =   0.0480000
        k(   12) = (   0.5000000  -0.3000000   0.5000000), wk =   0.0480000
        k(   13) = (   0.4000000  -0.2000000   0.4000000), wk =   0.0480000
        k(   14) = (   0.3000000  -0.1000000   0.3000000), wk =   0.0480000
        k(   15) = (   0.2000000   0.0000000   0.2000000), wk =   0.0240000
        k(   16) = (   0.0000000   0.4000000   0.0000000), wk =   0.0120000
        k(   17) = (  -0.1000000   0.5000000  -0.1000000), wk =   0.0480000
        k(   18) = (  -0.2000000   0.6000000  -0.2000000), wk =   0.0480000
        k(   19) = (   0.7000000  -0.3000000   0.7000000), wk =   0.0480000
        k(   20) = (   0.6000000  -0.2000000   0.6000000), wk =   0.0480000
        k(   21) = (   0.5000000  -0.1000000   0.5000000), wk =   0.0480000
        k(   22) = (   0.4000000   0.0000000   0.4000000), wk =   0.0240000
        k(   23) = (   0.0000000   0.6000000   0.0000000), wk =   0.0120000
        k(   24) = (  -0.1000000   0.7000000  -0.1000000), wk =   0.0480000
        k(   25) = (   0.8000000  -0.2000000   0.8000000), wk =   0.0480000
        k(   26) = (   0.7000000  -0.1000000   0.7000000), wk =   0.0480000
        k(   27) = (   0.6000000  -0.0000000   0.6000000), wk =   0.0240000
        k(   28) = (   0.0000000   0.8000000   0.0000000), wk =   0.0120000
        k(   29) = (   0.9000000  -0.1000000   0.9000000), wk =   0.0480000
        k(   30) = (   0.8000000   0.0000000   0.8000000), wk =   0.0240000
        k(   31) = (   0.0000000  -1.0000000   0.0000000), wk =   0.0060000
        k(   32) = (  -0.2000000   0.4000000   0.0000000), wk =   0.0480000
        k(   33) = (  -0.3000000   0.5000000  -0.1000000), wk =   0.0960000
        k(   34) = (   0.6000000  -0.4000000   0.8000000), wk =   0.0960000
        k(   35) = (   0.5000000  -0.3000000   0.7000000), wk =   0.0480000
        k(   36) = (  -0.2000000   0.6000000   0.0000000), wk =   0.0480000
        k(   37) = (   0.7000000  -0.3000000   0.9000000), wk =   0.0960000
        k(   38) = (   0.6000000  -0.2000000   0.8000000), wk =   0.0960000
        k(   39) = (   0.5000000  -0.1000000   0.7000000), wk =   0.0960000
        k(   40) = (   0.4000000   0.0000000   0.6000000), wk =   0.0480000
        k(   41) = (   0.8000000  -0.2000000   1.0000000), wk =   0.0480000
        k(   42) = (   0.7000000  -0.1000000   0.9000000), wk =   0.0960000
        k(   43) = (   0.6000000   0.0000000   0.8000000), wk =   0.0480000
        k(   44) = (  -0.2000000  -1.0000000   0.0000000), wk =   0.0240000
        k(   45) = (   0.6000000  -0.2000000   1.0000000), wk =   0.0480000
        k(   46) = (   0.5000000  -0.1000000   0.9000000), wk =   0.0480000
        k(   47) = (  -0.4000000  -1.0000000   0.0000000), wk =   0.0240000

     Dense  grid:    18763 G-vectors     FFT dimensions: (  40,  40,  40)

     Estimated max dynamical RAM per process >      36.39 MB

     WARNING: libxc functional with ID  263 depends
      on external parameters: check the user_guide of
      QE if you need to modify them or to check their
      default values.

     Initial potential from superposition of free atoms

     starting charge       7.9953, renormalised to       8.0000
     Starting wfcs are   13 randomized atomic wfcs

     total cpu time spent up to now is       10.0 secs

     Self-consistent Calculation

     iteration #  1     ecut=    50.00 Ry     beta= 0.01
     Davidson diagonalization with overlap
     ethr =  1.00E-02,  avg # of iterations =  1.0

     total cpu time spent up to now is       17.3 secs

     total energy              =     -30.61927395 Ry
     estimated scf accuracy    <       0.37996405 Ry

     iteration #  2     ecut=    50.00 Ry     beta= 0.01
     Davidson diagonalization with overlap
     ethr =  4.75E-03,  avg # of iterations =  1.0

     total cpu time spent up to now is       24.4 secs

     total energy              =     -30.65982485 Ry
     estimated scf accuracy    <       0.36138774 Ry

     iteration #  3     ecut=    50.00 Ry     beta= 0.01
     Davidson diagonalization with overlap
     ethr =  4.52E-03,  avg # of iterations =  1.0

     total cpu time spent up to now is       30.5 secs

     total energy              =     -30.69961692 Ry
     estimated scf accuracy    <       0.26337523 Ry

     iteration #  4     ecut=    50.00 Ry     beta= 0.01
     Davidson diagonalization with overlap
     ethr =  3.29E-03,  avg # of iterations =  1.0

     total cpu time spent up to now is       36.7 secs

     total energy              =     -30.70179591 Ry
     estimated scf accuracy    <       0.01092872 Ry

     iteration #  5     ecut=    50.00 Ry     beta= 0.01
     Davidson diagonalization with overlap
     ethr =  1.37E-04,  avg # of iterations =  1.0

     total cpu time spent up to now is       41.8 secs

     total energy              =     -30.69913524 Ry
     estimated scf accuracy    <       0.00980164 Ry

     iteration #  6     ecut=    50.00 Ry     beta= 0.01
     Davidson diagonalization with overlap
     ethr =  1.23E-04,  avg # of iterations =  1.0

     total cpu time spent up to now is       45.4 secs

     total energy              =     -30.69909462 Ry
     estimated scf accuracy    <       0.00567817 Ry

     iteration #  7     ecut=    50.00 Ry     beta= 0.01
     Davidson diagonalization with overlap
     ethr =  7.10E-05,  avg # of iterations =  2.0

     total cpu time spent up to now is       50.7 secs

     total energy              =     -30.70166537 Ry
     estimated scf accuracy    <       0.00362252 Ry

     iteration #  8     ecut=    50.00 Ry     beta= 0.01
     Davidson diagonalization with overlap
     ethr =  4.53E-05,  avg # of iterations =  1.0

     total cpu time spent up to now is       54.0 secs

     total energy              =     -30.70130126 Ry
     estimated scf accuracy    <       0.00422677 Ry

     iteration #  9     ecut=    50.00 Ry     beta= 0.01
     Davidson diagonalization with overlap
     ethr =  4.53E-05,  avg # of iterations =  1.0

     total cpu time spent up to now is       57.3 secs

     total energy              =     -30.70051593 Ry
     estimated scf accuracy    <       0.00316227 Ry

     iteration # 10     ecut=    50.00 Ry     beta= 0.01
     Davidson diagonalization with overlap
     ethr =  3.95E-05,  avg # of iterations =  1.9

     total cpu time spent up to now is       60.9 secs

     total energy              =     -30.70087568 Ry
     estimated scf accuracy    <       0.00011161 Ry

     iteration # 11     ecut=    50.00 Ry     beta= 0.01
     Davidson diagonalization with overlap
     ethr =  1.40E-06,  avg # of iterations =  2.0

     total cpu time spent up to now is       64.0 secs

     total energy              =     -30.70095256 Ry
     estimated scf accuracy    <       0.00024173 Ry

     iteration # 12     ecut=    50.00 Ry     beta= 0.01
     Davidson diagonalization with overlap
     ethr =  1.40E-06,  avg # of iterations =  1.0

     total cpu time spent up to now is       65.6 secs

     total energy              =     -30.70088096 Ry
     estimated scf accuracy    <       0.00037091 Ry

     iteration # 13     ecut=    50.00 Ry     beta= 0.01
     Davidson diagonalization with overlap
     ethr =  1.40E-06,  avg # of iterations =  1.0

     total cpu time spent up to now is       67.2 secs

     total energy              =     -30.70080966 Ry
     estimated scf accuracy    <       0.00016928 Ry

     iteration # 14     ecut=    50.00 Ry     beta= 0.01
     Davidson diagonalization with overlap
     ethr =  1.40E-06,  avg # of iterations =  2.0

     total cpu time spent up to now is       70.5 secs

     total energy              =     -30.70084607 Ry
     estimated scf accuracy    <       0.00000396 Ry

     iteration # 15     ecut=    50.00 Ry     beta= 0.01
     Davidson diagonalization with overlap
     ethr =  4.95E-08,  avg # of iterations =  1.0

     total cpu time spent up to now is       73.0 secs

     total energy              =     -30.70084679 Ry
     estimated scf accuracy    <       0.00000250 Ry

     iteration # 16     ecut=    50.00 Ry     beta= 0.01
     Davidson diagonalization with overlap
     ethr =  3.13E-08,  avg # of iterations =  1.0

     total cpu time spent up to now is       74.5 secs

     total energy              =     -30.70084604 Ry
     estimated scf accuracy    <       0.00000572 Ry

     iteration # 17     ecut=    50.00 Ry     beta= 0.01
     Davidson diagonalization with overlap
     ethr =  3.13E-08,  avg # of iterations =  1.0

     total cpu time spent up to now is       76.1 secs

     total energy              =     -30.70084561 Ry
     estimated scf accuracy    <       0.00000209 Ry

     iteration # 18     ecut=    50.00 Ry     beta= 0.01
     Davidson diagonalization with overlap
     ethr =  2.61E-08,  avg # of iterations =  2.0

     total cpu time spent up to now is       78.2 secs

     End of self-consistent calculation

          k = 0.0000 0.0000 0.0000 (  2277 PWs)   bands (ev):

   -14.8203  -2.2029  -2.2029  -2.2029

          k =-0.1000 0.1000-0.1000 (  2334 PWs)   bands (ev):

   -14.8077  -2.3513  -2.2132  -2.2132

          k =-0.2000 0.2000-0.2000 (  2331 PWs)   bands (ev):

   -14.7729  -2.6977  -2.2398  -2.2398

          k =-0.3000 0.3000-0.3000 (  2355 PWs)   bands (ev):

   -14.7294  -3.0673  -2.2718  -2.2718

          k =-0.4000 0.4000-0.4000 (  2352 PWs)   bands (ev):

   -14.6934  -3.3342  -2.2970  -2.2970

          k = 0.5000-0.5000 0.5000 (  2362 PWs)   bands (ev):

   -14.6796  -3.4303  -2.3065  -2.3065

          k = 0.0000 0.2000 0.0000 (  2333 PWs)   bands (ev):

   -14.8033  -2.3439  -2.2459  -2.2459

          k =-0.1000 0.3000-0.1000 (  2336 PWs)   bands (ev):

   -14.7757  -2.6051  -2.2903  -2.2653

          k =-0.2000 0.4000-0.2000 (  2340 PWs)   bands (ev):

   -14.7348  -2.9538  -2.3290  -2.3009

          k =-0.3000 0.5000-0.3000 (  2350 PWs)   bands (ev):

   -14.6962  -3.2412  -2.3525  -2.3476

          k = 0.6000-0.4000 0.6000 (  2342 PWs)   bands (ev):

   -14.6747  -3.3856  -2.3995  -2.3397

          k = 0.5000-0.3000 0.5000 (  2344 PWs)   bands (ev):

   -14.6793  -3.3534  -2.4235  -2.3083

          k = 0.4000-0.2000 0.4000 (  2354 PWs)   bands (ev):

   -14.7083  -3.1535  -2.4136  -2.2649

          k = 0.3000-0.1000 0.3000 (  2333 PWs)   bands (ev):

   -14.7494  -2.8405  -2.3688  -2.2255

          k = 0.2000 0.0000 0.2000 (  2327 PWs)   bands (ev):

   -14.7873  -2.5254  -2.2929  -2.2055

          k = 0.0000 0.4000 0.0000 (  2345 PWs)   bands (ev):

   -14.7568  -2.6720  -2.3563  -2.3563

          k =-0.1000 0.5000-0.1000 (  2343 PWs)   bands (ev):

   -14.7228  -2.9118  -2.4155  -2.4122

          k =-0.2000 0.6000-0.2000 (  2337 PWs)   bands (ev):

   -14.6866  -3.1472  -2.5026  -2.4378

          k = 0.7000-0.3000 0.7000 (  2340 PWs)   bands (ev):

   -14.6622  -3.2813  -2.6051  -2.4243

          k = 0.6000-0.2000 0.6000 (  2351 PWs)   bands (ev):

   -14.6595  -3.2816  -2.6778  -2.3765

          k = 0.5000-0.1000 0.5000 (  2351 PWs)   bands (ev):

   -14.6794  -3.1658  -2.6738  -2.3113

          k = 0.4000 0.0000 0.4000 (  2347 PWs)   bands (ev):

   -14.7138  -2.9998  -2.5582  -2.2532

          k = 0.0000 0.6000 0.0000 (  2361 PWs)   bands (ev):

   -14.6977  -3.0238  -2.4886  -2.4886

          k =-0.1000 0.7000-0.1000 (  2352 PWs)   bands (ev):

   -14.6686  -3.1734  -2.5774  -2.5307

          k = 0.8000-0.2000 0.8000 (  2338 PWs)   bands (ev):

   -14.6467  -3.2365  -2.7308  -2.5245

          k = 0.7000-0.1000 0.7000 (  2327 PWs)   bands (ev):

   -14.6409  -3.1737  -2.9059  -2.4720

          k = 0.6000-0.0000 0.6000 (  2329 PWs)   bands (ev):

   -14.6534  -3.1058  -2.9293  -2.3911

          k = 0.0000 0.8000 0.0000 (  2345 PWs)   bands (ev):

   -14.6484  -3.2807  -2.5924  -2.5924

          k = 0.9000-0.1000 0.9000 (  2341 PWs)   bands (ev):

   -14.6341  -3.3226  -2.6778  -2.6024

          k = 0.8000 0.0000 0.8000 (  2332 PWs)   bands (ev):

   -14.6312  -3.2495  -2.8382  -2.5574

          k = 0.0000-1.0000 0.0000 (  2346 PWs)   bands (ev):

   -14.6293  -3.3742  -2.6314  -2.6314

          k =-0.2000 0.4000 0.0000 (  2342 PWs)   bands (ev):

   -14.7450  -2.8070  -2.4133  -2.2789

          k =-0.3000 0.5000-0.1000 (  2338 PWs)   bands (ev):

   -14.7063  -3.0576  -2.5145  -2.3148

          k = 0.6000-0.4000 0.8000 (  2351 PWs)   bands (ev):

   -14.6747  -3.2544  -2.5660  -2.3614

          k = 0.5000-0.3000 0.7000 (  2342 PWs)   bands (ev):

   -14.6623  -3.3276  -2.5800  -2.3834

          k =-0.2000 0.6000 0.0000 (  2349 PWs)   bands (ev):

   -14.6913  -3.0677  -2.5570  -2.4340

          k = 0.7000-0.3000 0.9000 (  2343 PWs)   bands (ev):

   -14.6622  -3.1853  -2.6825  -2.4748

          k = 0.6000-0.2000 0.8000 (  2340 PWs)   bands (ev):

   -14.6469  -3.2179  -2.7919  -2.4798

          k = 0.5000-0.1000 0.7000 (  2334 PWs)   bands (ev):

   -14.6516  -3.1748  -2.8351  -2.4337

          k = 0.4000 0.0000 0.6000 (  2343 PWs)   bands (ev):

   -14.6745  -3.1219  -2.7292  -2.3651

          k = 0.8000-0.2000 1.0000 (  2343 PWs)   bands (ev):

   -14.6467  -3.2472  -2.6694  -2.5768

          k = 0.7000-0.1000 0.9000 (  2343 PWs)   bands (ev):

   -14.6343  -3.2202  -2.8218  -2.5819

          k = 0.6000 0.0000 0.8000 (  2338 PWs)   bands (ev):

   -14.6363  -3.0822  -3.0063  -2.5227

          k =-0.2000-1.0000 0.0000 (  2346 PWs)   bands (ev):

   -14.6294  -3.3110  -2.7115  -2.6333

          k = 0.6000-0.2000 1.0000 (  2320 PWs)   bands (ev):

   -14.6419  -3.1511  -2.8614  -2.5422

          k = 0.5000-0.1000 0.9000 (  2332 PWs)   bands (ev):

   -14.6344  -3.0917  -2.9663  -2.5789

          k =-0.4000-1.0000 0.0000 (  2340 PWs)   bands (ev):

   -14.6296  -3.1387  -2.9106  -2.6365

     highest occupied level (ev):    -2.2029

!    total energy              =     -30.70084611 Ry
     estimated scf accuracy    <       0.00000016 Ry

     The total energy is the sum of the following terms:
     one-electron contribution =     -11.90864460 Ry
     hartree contribution      =       8.48149431 Ry
     xc contribution           =      -6.23063147 Ry
     ewald contribution        =     -21.04306435 Ry

     convergence has been achieved in  18 iterations
     Writing meta-gga kinetic term

     Writing all to output data dir ./input_pw/LiCl/15/pwscf.save/
     Writing meta-gga kinetic term
 
     init_run     :      3.78s CPU      9.91s WALL (       1 calls)
     electrons    :     49.81s CPU     68.21s WALL (       1 calls)

     Called by init_run:
     wfcinit      :      3.61s CPU      9.32s WALL (       1 calls)
     potinit      :      0.05s CPU      0.24s WALL (       1 calls)
     hinit0       :      0.09s CPU      0.28s WALL (       1 calls)

     Called by electrons:
     c_bands      :     39.11s CPU     53.35s WALL (      18 calls)
     sum_band     :      9.37s CPU     12.98s WALL (      18 calls)
     v_of_rho     :      0.67s CPU      1.17s WALL (      19 calls)
     mix_rho      :      0.67s CPU      0.91s WALL (      18 calls)

     Called by c_bands:
     init_us_2    :      0.44s CPU      0.61s WALL (    1739 calls)
     init_us_2:cp :      0.43s CPU      0.60s WALL (    1739 calls)
     cegterg      :     38.70s CPU     52.77s WALL (     846 calls)

     Called by *egterg:
     cdiaghg      :      0.11s CPU      0.16s WALL (    1921 calls)
     h_psi        :     41.63s CPU     61.07s WALL (    1968 calls)
     g_psi        :      0.03s CPU      0.03s WALL (    1075 calls)

     Called by h_psi:
     h_psi:calbec :      0.12s CPU      0.16s WALL (    1968 calls)
     vloc_psi     :     10.33s CPU     15.51s WALL (    1968 calls)
     add_vuspsi   :      0.10s CPU      0.13s WALL (    1968 calls)
     h_psi_meta   :     31.02s CPU     45.19s WALL (    1968 calls)

     General routines
     calbec       :      0.12s CPU      0.16s WALL (    1968 calls)
     fft          :      0.12s CPU      0.18s WALL (     225 calls)
     ffts         :      0.26s CPU      0.37s WALL (     471 calls)
     fftw         :     43.19s CPU     63.42s WALL (   78944 calls)
     interpolate  :      0.00s CPU      0.00s WALL (      19 calls)
 
     Parallel routines
 
     PWSCF        :     53.64s CPU   1m18.18s WALL

 
   This run was terminated on:  14:30: 1  14Mar2023            

=------------------------------------------------------------------------------=
   JOB DONE.
=------------------------------------------------------------------------------=
