
     Program PWSCF v.7.0 starts on 29Mar2023 at 12:56: 5 

     This program is part of the open-source Quantum ESPRESSO suite
     for quantum simulation of materials; please cite
         "P. Giannozzi et al., J. Phys.:Condens. Matter 21 395502 (2009);
         "P. Giannozzi et al., J. Phys.:Condens. Matter 29 465901 (2017);
         "P. Giannozzi et al., J. Chem. Phys. 152 154105 (2020);
          URL http://www.quantum-espresso.org", 
     in publications or presentations arising from this work. More details at
     http://www.quantum-espresso.org/quote

     Parallel version (MPI), running on     1 processors

     MPI processes distributed on     1 nodes
     22862 MiB available memory on the printing compute node when the environment starts
 
     Waiting for input...
     Reading input from standard input
Warning: card &CELL ignored
Warning: card / ignored

     Current dimensions of program PWSCF are:
     Max number of different atomic species (ntypx) = 10
     Max number of k-points (npk) =  40000
     Max angular momentum in pseudopotentials (lmaxx) =  4
     file Si.SCAN.UPF2: wavefunction(s)  0D renormalized

     WARNING: the MGGA functional with ID    5 has been 
     read together with other dft terms, but it should 
     stand alone in order to work properly. The other 
     terms will be ignored.

     WARNING: the MGGA functional with ID    5 has been 
     read together with other dft terms, but it should 
     stand alone in order to work properly. The other 
     terms will be ignored.

     Subspace diagonalization in iterative solution of the eigenvalue problem:
     a serial algorithm will be used

 
     G-vector sticks info
     --------------------
     sticks:   dense  smooth     PW     G-vecs:    dense   smooth      PW
     Sum         595     595    187                 9577     9577    1687
 
     Using Slab Decomposition
 


     bravais-lattice index     =            2
     lattice parameter (alat)  =       9.2975  a.u.
     unit-cell volume          =     200.9240 (a.u.)^3
     number of atoms/cell      =            2
     number of atomic types    =            2
     number of electrons       =         8.00
     number of Kohn-Sham states=            4
     kinetic-energy cutoff     =      50.0000  Ry
     charge density cutoff     =     200.0000  Ry
     scf convergence threshold =      1.0E-06
     mixing beta               =       0.0100
     number of iterations used =            8  local-TF  mixing
     Exchange-correlation= SLA  PW   SCAN SCAN
                           (   0   0   0   0   0 263 267)

     celldm(1)=   9.297453  celldm(2)=   0.000000  celldm(3)=   0.000000
     celldm(4)=   0.000000  celldm(5)=   0.000000  celldm(6)=   0.000000

     crystal axes: (cart. coord. in units of alat)
               a(1) = (  -0.500000   0.000000   0.500000 )  
               a(2) = (   0.000000   0.500000   0.500000 )  
               a(3) = (  -0.500000   0.500000   0.000000 )  

     reciprocal axes: (cart. coord. in units 2 pi/alat)
               b(1) = ( -1.000000 -1.000000  1.000000 )  
               b(2) = (  1.000000  1.000000  1.000000 )  
               b(3) = ( -1.000000  1.000000 -1.000000 )  


     PseudoPot. # 1 for Si read from file:
     ~/Documents/TA/PWDFT.jl/pseudopotentials/scan_upf/Si.SCAN.UPF2
     MD5 check sum: Not computed, couldn't open file
     Pseudo is Norm-conserving, Zval =  4.0
     Generated by new atomic code, or converted to UPF format
     Using radial grid of 1475 points,  2 beta functions with: 
                l(1) =   0
                l(2) =   1

     PseudoPot. # 2 for C  read from file:
     ~/Documents/TA/PWDFT.jl/pseudopotentials/scan_upf/C.SCAN.UPF2
     MD5 check sum: Not computed, couldn't open file
     Pseudo is Norm-conserving, Zval =  4.0
     Generated by new atomic code, or converted to UPF format
     Using radial grid of 1389 points,  1 beta functions with: 
                l(1) =   0

     atomic species   valence    mass     pseudopotential
        Si             4.00    28.08550     Si( 1.00)
        C              4.00    12.01100     C ( 1.00)

     24 Sym. Ops. (no inversion) found



   Cartesian axes

     site n.     atom                  positions (alat units)
         1           Si  tau(   1) = (   0.0000000   0.0000000   0.0000000  )
         2           C   tau(   2) = (   0.2500000   0.2500000   0.2500000  )

     number of k points=    47
                       cart. coord. in units 2pi/alat
        k(    1) = (   0.0000000   0.0000000   0.0000000), wk =   0.0020000
        k(    2) = (  -0.1000000   0.1000000  -0.1000000), wk =   0.0160000
        k(    3) = (  -0.2000000   0.2000000  -0.2000000), wk =   0.0160000
        k(    4) = (  -0.3000000   0.3000000  -0.3000000), wk =   0.0160000
        k(    5) = (  -0.4000000   0.4000000  -0.4000000), wk =   0.0160000
        k(    6) = (   0.5000000  -0.5000000   0.5000000), wk =   0.0080000
        k(    7) = (   0.0000000   0.2000000   0.0000000), wk =   0.0120000
        k(    8) = (  -0.1000000   0.3000000  -0.1000000), wk =   0.0480000
        k(    9) = (  -0.2000000   0.4000000  -0.2000000), wk =   0.0480000
        k(   10) = (  -0.3000000   0.5000000  -0.3000000), wk =   0.0480000
        k(   11) = (   0.6000000  -0.4000000   0.6000000), wk =   0.0480000
        k(   12) = (   0.5000000  -0.3000000   0.5000000), wk =   0.0480000
        k(   13) = (   0.4000000  -0.2000000   0.4000000), wk =   0.0480000
        k(   14) = (   0.3000000  -0.1000000   0.3000000), wk =   0.0480000
        k(   15) = (   0.2000000   0.0000000   0.2000000), wk =   0.0240000
        k(   16) = (   0.0000000   0.4000000   0.0000000), wk =   0.0120000
        k(   17) = (  -0.1000000   0.5000000  -0.1000000), wk =   0.0480000
        k(   18) = (  -0.2000000   0.6000000  -0.2000000), wk =   0.0480000
        k(   19) = (   0.7000000  -0.3000000   0.7000000), wk =   0.0480000
        k(   20) = (   0.6000000  -0.2000000   0.6000000), wk =   0.0480000
        k(   21) = (   0.5000000  -0.1000000   0.5000000), wk =   0.0480000
        k(   22) = (   0.4000000   0.0000000   0.4000000), wk =   0.0240000
        k(   23) = (   0.0000000   0.6000000   0.0000000), wk =   0.0120000
        k(   24) = (  -0.1000000   0.7000000  -0.1000000), wk =   0.0480000
        k(   25) = (   0.8000000  -0.2000000   0.8000000), wk =   0.0480000
        k(   26) = (   0.7000000  -0.1000000   0.7000000), wk =   0.0480000
        k(   27) = (   0.6000000  -0.0000000   0.6000000), wk =   0.0240000
        k(   28) = (   0.0000000   0.8000000   0.0000000), wk =   0.0120000
        k(   29) = (   0.9000000  -0.1000000   0.9000000), wk =   0.0480000
        k(   30) = (   0.8000000   0.0000000   0.8000000), wk =   0.0240000
        k(   31) = (   0.0000000  -1.0000000   0.0000000), wk =   0.0060000
        k(   32) = (  -0.2000000   0.4000000   0.0000000), wk =   0.0480000
        k(   33) = (  -0.3000000   0.5000000  -0.1000000), wk =   0.0960000
        k(   34) = (   0.6000000  -0.4000000   0.8000000), wk =   0.0960000
        k(   35) = (   0.5000000  -0.3000000   0.7000000), wk =   0.0480000
        k(   36) = (  -0.2000000   0.6000000   0.0000000), wk =   0.0480000
        k(   37) = (   0.7000000  -0.3000000   0.9000000), wk =   0.0960000
        k(   38) = (   0.6000000  -0.2000000   0.8000000), wk =   0.0960000
        k(   39) = (   0.5000000  -0.1000000   0.7000000), wk =   0.0960000
        k(   40) = (   0.4000000   0.0000000   0.6000000), wk =   0.0480000
        k(   41) = (   0.8000000  -0.2000000   1.0000000), wk =   0.0480000
        k(   42) = (   0.7000000  -0.1000000   0.9000000), wk =   0.0960000
        k(   43) = (   0.6000000   0.0000000   0.8000000), wk =   0.0480000
        k(   44) = (  -0.2000000  -1.0000000   0.0000000), wk =   0.0240000
        k(   45) = (   0.6000000  -0.2000000   1.0000000), wk =   0.0480000
        k(   46) = (   0.5000000  -0.1000000   0.9000000), wk =   0.0480000
        k(   47) = (  -0.4000000  -1.0000000   0.0000000), wk =   0.0240000

     Dense  grid:     9577 G-vectors     FFT dimensions: (  30,  30,  30)

     Estimated max dynamical RAM per process >      18.03 MB

     WARNING: libxc functional with ID  263 depends
      on external parameters: check the user_guide of
      QE if you need to modify them or to check their
      default values.

     Initial potential from superposition of free atoms

     starting charge       7.9995, renormalised to       8.0000
     Starting wfcs are   13 randomized atomic wfcs

     total cpu time spent up to now is        3.8 secs

     Self-consistent Calculation

     iteration #  1     ecut=    50.00 Ry     beta= 0.01
     Davidson diagonalization with overlap
     ethr =  1.00E-02,  avg # of iterations =  1.7

     total cpu time spent up to now is        6.8 secs

     total energy              =     -19.18538785 Ry
     estimated scf accuracy    <       1.45449973 Ry

     iteration #  2     ecut=    50.00 Ry     beta= 0.01
     Davidson diagonalization with overlap
     ethr =  1.00E-02,  avg # of iterations =  1.0

     total cpu time spent up to now is        9.4 secs

     total energy              =     -19.13378755 Ry
     estimated scf accuracy    <       1.43212043 Ry

     iteration #  3     ecut=    50.00 Ry     beta= 0.01
     Davidson diagonalization with overlap
     ethr =  1.00E-02,  avg # of iterations =  1.0

     total cpu time spent up to now is       12.1 secs

     total energy              =     -19.16622929 Ry
     estimated scf accuracy    <       0.04178977 Ry

     iteration #  4     ecut=    50.00 Ry     beta= 0.01
     Davidson diagonalization with overlap
     ethr =  5.22E-04,  avg # of iterations =  2.0

     total cpu time spent up to now is       15.4 secs

     total energy              =     -19.17681674 Ry
     estimated scf accuracy    <       0.03256615 Ry

     iteration #  5     ecut=    50.00 Ry     beta= 0.01
     Davidson diagonalization with overlap
     ethr =  4.07E-04,  avg # of iterations =  2.0

     total cpu time spent up to now is       18.7 secs

     total energy              =     -19.18044099 Ry
     estimated scf accuracy    <       0.13364578 Ry

     iteration #  6     ecut=    50.00 Ry     beta= 0.01
     Davidson diagonalization with overlap
     ethr =  4.07E-04,  avg # of iterations =  1.0

     total cpu time spent up to now is       21.4 secs

     total energy              =     -19.18416659 Ry
     estimated scf accuracy    <       0.16517491 Ry

     iteration #  7     ecut=    50.00 Ry     beta= 0.01
     Davidson diagonalization with overlap
     ethr =  4.07E-04,  avg # of iterations =  1.0

     total cpu time spent up to now is       24.1 secs

     total energy              =     -19.18365713 Ry
     estimated scf accuracy    <       0.04745059 Ry

     iteration #  8     ecut=    50.00 Ry     beta= 0.01
     Davidson diagonalization with overlap
     ethr =  4.07E-04,  avg # of iterations =  1.0

     total cpu time spent up to now is       26.8 secs

     total energy              =     -19.18389675 Ry
     estimated scf accuracy    <       0.01211750 Ry

     iteration #  9     ecut=    50.00 Ry     beta= 0.01
     Davidson diagonalization with overlap
     ethr =  1.51E-04,  avg # of iterations =  1.0

     total cpu time spent up to now is       29.1 secs

     total energy              =     -19.18300776 Ry
     estimated scf accuracy    <       0.01027536 Ry

     iteration # 10     ecut=    50.00 Ry     beta= 0.01
     Davidson diagonalization with overlap
     ethr =  1.28E-04,  avg # of iterations =  1.0

     total cpu time spent up to now is       31.1 secs

     total energy              =     -19.18173348 Ry
     estimated scf accuracy    <       0.00586396 Ry

     iteration # 11     ecut=    50.00 Ry     beta= 0.01
     Davidson diagonalization with overlap
     ethr =  7.33E-05,  avg # of iterations =  2.0

     total cpu time spent up to now is       34.2 secs

     total energy              =     -19.18343030 Ry
     estimated scf accuracy    <       0.00243856 Ry

     iteration # 12     ecut=    50.00 Ry     beta= 0.01
     Davidson diagonalization with overlap
     ethr =  3.05E-05,  avg # of iterations =  1.0

     total cpu time spent up to now is       36.3 secs

     total energy              =     -19.18374842 Ry
     estimated scf accuracy    <       0.00405842 Ry

     iteration # 13     ecut=    50.00 Ry     beta= 0.01
     Davidson diagonalization with overlap
     ethr =  3.05E-05,  avg # of iterations =  1.0

     total cpu time spent up to now is       38.1 secs

     total energy              =     -19.18377810 Ry
     estimated scf accuracy    <       0.00666755 Ry

     iteration # 14     ecut=    50.00 Ry     beta= 0.01
     Davidson diagonalization with overlap
     ethr =  3.05E-05,  avg # of iterations =  1.0

     total cpu time spent up to now is       40.2 secs

     total energy              =     -19.18385224 Ry
     estimated scf accuracy    <       0.00726801 Ry

     iteration # 15     ecut=    50.00 Ry     beta= 0.01
     Davidson diagonalization with overlap
     ethr =  3.05E-05,  avg # of iterations =  1.0

     total cpu time spent up to now is       42.2 secs

     total energy              =     -19.18307106 Ry
     estimated scf accuracy    <       0.00807537 Ry

     iteration # 16     ecut=    50.00 Ry     beta= 0.01
     Davidson diagonalization with overlap
     ethr =  3.05E-05,  avg # of iterations =  1.0

     total cpu time spent up to now is       43.9 secs

     total energy              =     -19.18201638 Ry
     estimated scf accuracy    <       0.00468377 Ry

     iteration # 17     ecut=    50.00 Ry     beta= 0.01
     Davidson diagonalization with overlap
     ethr =  3.05E-05,  avg # of iterations =  2.0

     total cpu time spent up to now is       46.2 secs

     total energy              =     -19.18265064 Ry
     estimated scf accuracy    <       0.00006401 Ry

     iteration # 18     ecut=    50.00 Ry     beta= 0.01
     Davidson diagonalization with overlap
     ethr =  8.00E-07,  avg # of iterations =  3.5

     total cpu time spent up to now is       48.9 secs

     total energy              =     -19.18268967 Ry
     estimated scf accuracy    <       0.00037251 Ry

     iteration # 19     ecut=    50.00 Ry     beta= 0.01
     Davidson diagonalization with overlap
     ethr =  8.00E-07,  avg # of iterations =  1.0

     total cpu time spent up to now is       50.2 secs

     total energy              =     -19.18264004 Ry
     estimated scf accuracy    <       0.00020124 Ry

     iteration # 20     ecut=    50.00 Ry     beta= 0.01
     Davidson diagonalization with overlap
     ethr =  8.00E-07,  avg # of iterations =  4.0

     total cpu time spent up to now is       52.6 secs

     total energy              =     -19.18274750 Ry
     estimated scf accuracy    <       0.00017585 Ry

     iteration # 21     ecut=    50.00 Ry     beta= 0.01
     Davidson diagonalization with overlap
     ethr =  8.00E-07,  avg # of iterations =  2.0

     total cpu time spent up to now is       54.3 secs

     total energy              =     -19.18272631 Ry
     estimated scf accuracy    <       0.00028955 Ry

     iteration # 22     ecut=    50.00 Ry     beta= 0.01
     Davidson diagonalization with overlap
     ethr =  8.00E-07,  avg # of iterations =  1.2

     total cpu time spent up to now is       55.6 secs

     total energy              =     -19.18273224 Ry
     estimated scf accuracy    <       0.00012896 Ry

     iteration # 23     ecut=    50.00 Ry     beta= 0.01
     Davidson diagonalization with overlap
     ethr =  8.00E-07,  avg # of iterations =  1.0

     total cpu time spent up to now is       56.9 secs

     total energy              =     -19.18272712 Ry
     estimated scf accuracy    <       0.00012034 Ry

     iteration # 24     ecut=    50.00 Ry     beta= 0.01
     Davidson diagonalization with overlap
     ethr =  8.00E-07,  avg # of iterations =  1.0

     total cpu time spent up to now is       58.1 secs

     total energy              =     -19.18272776 Ry
     estimated scf accuracy    <       0.00006602 Ry

     iteration # 25     ecut=    50.00 Ry     beta= 0.01
     Davidson diagonalization with overlap
     ethr =  8.00E-07,  avg # of iterations =  1.0

     total cpu time spent up to now is       58.8 secs

     total energy              =     -19.18272620 Ry
     estimated scf accuracy    <       0.00005383 Ry

     iteration # 26     ecut=    50.00 Ry     beta= 0.01
     Davidson diagonalization with overlap
     ethr =  6.73E-07,  avg # of iterations =  1.0

     total cpu time spent up to now is       59.5 secs

     total energy              =     -19.18272178 Ry
     estimated scf accuracy    <       0.00004418 Ry

     iteration # 27     ecut=    50.00 Ry     beta= 0.01
     Davidson diagonalization with overlap
     ethr =  5.52E-07,  avg # of iterations =  1.0

     total cpu time spent up to now is       60.2 secs

     total energy              =     -19.18271827 Ry
     estimated scf accuracy    <       0.00001699 Ry

     iteration # 28     ecut=    50.00 Ry     beta= 0.01
     Davidson diagonalization with overlap
     ethr =  2.12E-07,  avg # of iterations =  3.0

     total cpu time spent up to now is       61.3 secs

     total energy              =     -19.18271321 Ry
     estimated scf accuracy    <       0.00006551 Ry

     iteration # 29     ecut=    50.00 Ry     beta= 0.01
     Davidson diagonalization with overlap
     ethr =  2.12E-07,  avg # of iterations =  2.7

     total cpu time spent up to now is       62.2 secs

     End of self-consistent calculation

          k = 0.0000 0.0000 0.0000 (  1243 PWs)   bands (ev):

    -8.1892   5.3259   5.3259   5.3259

          k =-0.1000 0.1000-0.1000 (  1218 PWs)   bands (ev):

    -8.0410   4.2349   5.2051   5.2051

          k =-0.2000 0.2000-0.2000 (  1215 PWs)   bands (ev):

    -7.6079   2.3539   4.9246   4.9246

          k =-0.3000 0.3000-0.3000 (  1209 PWs)   bands (ev):

    -6.9361   0.4872   4.6342   4.6342

          k =-0.4000 0.4000-0.4000 (  1188 PWs)   bands (ev):

    -6.1711  -1.0404   4.4337   4.4337

          k = 0.5000-0.5000 0.5000 (  1194 PWs)   bands (ev):

    -5.7605  -1.7119   4.3610   4.3610

          k = 0.0000 0.2000 0.0000 (  1219 PWs)   bands (ev):

    -7.9914   4.2944   4.9416   4.9416

          k =-0.1000 0.3000-0.1000 (  1209 PWs)   bands (ev):

    -7.6523   2.8639   4.5827   4.7092

          k =-0.2000 0.4000-0.2000 (  1208 PWs)   bands (ev):

    -7.0555   1.0808   4.2843   4.3459

          k =-0.3000 0.5000-0.3000 (  1200 PWs)   bands (ev):

    -6.2999  -0.5368   3.9559   4.1305

          k = 0.6000-0.4000 0.6000 (  1195 PWs)   bands (ev):

    -5.7040  -1.5434   3.6682   4.1495

          k = 0.5000-0.3000 0.5000 (  1196 PWs)   bands (ev):

    -5.8496  -1.3126   3.5465   4.3316

          k = 0.4000-0.2000 0.4000 (  1199 PWs)   bands (ev):

    -6.5597  -0.0331   3.6280   4.6338

          k = 0.3000-0.1000 0.3000 (  1212 PWs)   bands (ev):

    -7.2811   1.6567   3.9341   4.9730

          k = 0.2000 0.0000 0.2000 (  1213 PWs)   bands (ev):

    -7.7974   3.2760   4.5161   5.2131

          k = 0.0000 0.4000 0.0000 (  1199 PWs)   bands (ev):

    -7.4103   2.5849   4.1531   4.1531

          k =-0.1000 0.5000-0.1000 (  1217 PWs)   bands (ev):

    -6.9033   1.3694   3.6874   3.8066

          k =-0.2000 0.6000-0.2000 (  1202 PWs)   bands (ev):

    -6.2019  -0.0418   3.0651   3.6381

          k = 0.7000-0.3000 0.7000 (  1206 PWs)   bands (ev):

    -5.5264  -1.1505   2.5155   3.6742

          k = 0.6000-0.2000 0.6000 (  1184 PWs)   bands (ev):

    -5.4043  -1.3219   2.1965   3.9083

          k = 0.5000-0.1000 0.5000 (  1193 PWs)   bands (ev):

    -5.9783  -0.4328   2.2109   4.2854

          k = 0.4000 0.0000 0.4000 (  1207 PWs)   bands (ev):

    -6.7048   0.7573   2.7542   4.7005

          k = 0.0000 0.6000 0.0000 (  1214 PWs)   bands (ev):

    -6.4923   0.8243   3.4065   3.4065

          k =-0.1000 0.7000-0.1000 (  1208 PWs)   bands (ev):

    -5.8783  -0.1331   2.8121   3.1888

          k = 0.8000-0.2000 0.8000 (  1199 PWs)   bands (ev):

    -5.2269  -0.9850   1.9428   3.1917

          k = 0.7000-0.1000 0.7000 (  1192 PWs)   bands (ev):

    -4.9491  -1.2790   1.3164   3.4141

          k = 0.6000-0.0000 0.6000 (  1197 PWs)   bands (ev):

    -5.3276  -0.8816   1.3092   3.8131

          k = 0.0000 0.8000 0.0000 (  1202 PWs)   bands (ev):

    -5.3814  -0.8028   2.9104   2.9104

          k = 0.9000-0.1000 0.9000 (  1198 PWs)   bands (ev):

    -4.8751  -1.3855   2.3390   2.8564

          k = 0.8000 0.0000 0.8000 (  1190 PWs)   bands (ev):

    -4.6887  -1.4726   1.5062   3.0348

          k = 0.0000-1.0000 0.0000 (  1186 PWs)   bands (ev):

    -4.6928  -1.6669   2.7386   2.7386

          k =-0.2000 0.4000 0.0000 (  1204 PWs)   bands (ev):

    -7.2290   1.8717   3.6689   4.5921

          k =-0.3000 0.5000-0.1000 (  1195 PWs)   bands (ev):

    -6.5752   0.4723   3.0424   4.2729

          k = 0.6000-0.4000 0.8000 (  1203 PWs)   bands (ev):

    -5.8377  -0.8587   2.7589   3.9461

          k = 0.5000-0.3000 0.7000 (  1194 PWs)   bands (ev):

    -5.4466  -1.4660   2.6830   3.8127

          k =-0.2000 0.6000 0.0000 (  1204 PWs)   bands (ev):

    -6.3390   0.4728   2.8985   3.5763

          k = 0.7000-0.3000 0.9000 (  1206 PWs)   bands (ev):

    -5.6428  -0.5447   2.2332   3.2565

          k = 0.6000-0.2000 0.8000 (  1194 PWs)   bands (ev):

    -5.1242  -1.2347   1.7659   3.2002

          k = 0.5000-0.1000 0.7000 (  1188 PWs)   bands (ev):

    -5.2706  -1.0345   1.6102   3.4456

          k = 0.4000 0.0000 0.6000 (  1195 PWs)   bands (ev):

    -5.9119  -0.2409   1.9858   3.8754

          k = 0.8000-0.2000 1.0000 (  1197 PWs)   bands (ev):

    -5.2854  -0.8503   2.4271   2.7504

          k = 0.7000-0.1000 0.9000 (  1191 PWs)   bands (ev):

    -4.8052  -1.3074   1.6714   2.6620

          k = 0.6000 0.0000 0.8000 (  1189 PWs)   bands (ev):

    -4.8117  -1.2570   1.2013   2.9498

          k =-0.2000-1.0000 0.0000 (  1194 PWs)   bands (ev):

    -4.6618  -1.5642   2.3494   2.3659

          k = 0.6000-0.2000 1.0000 (  1197 PWs)   bands (ev):

    -5.0495  -1.0173   1.6186   2.6822

          k = 0.5000-0.1000 0.9000 (  1200 PWs)   bands (ev):

    -4.7597  -1.2621   1.4248   2.4163

          k =-0.4000-1.0000 0.0000 (  1202 PWs)   bands (ev):

    -4.6097  -1.3683   1.7710   1.8886

     highest occupied level (ev):     5.3259

!    total energy              =     -19.18271923 Ry
     estimated scf accuracy    <       0.00000081 Ry

     The total energy is the sum of the following terms:
     one-electron contribution =       2.33288395 Ry
     hartree contribution      =       2.64240926 Ry
     xc contribution           =      -5.61771475 Ry
     ewald contribution        =     -18.54029769 Ry

     convergence has been achieved in  29 iterations
     Writing meta-gga kinetic term

     Writing all to output data dir ./input_pw/SiC/11/pwscf.save/
     Writing meta-gga kinetic term
 
     init_run     :      1.75s CPU      3.72s WALL (       1 calls)
     electrons    :     39.45s CPU     58.45s WALL (       1 calls)

     Called by init_run:
     wfcinit      :      1.62s CPU      3.35s WALL (       1 calls)
     potinit      :      0.02s CPU      0.05s WALL (       1 calls)
     hinit0       :      0.09s CPU      0.27s WALL (       1 calls)

     Called by electrons:
     c_bands      :     31.62s CPU     46.86s WALL (      29 calls)
     sum_band     :      7.03s CPU     10.46s WALL (      29 calls)
     v_of_rho     :      0.46s CPU      0.66s WALL (      30 calls)
     mix_rho      :      0.35s CPU      0.49s WALL (      29 calls)

     Called by c_bands:
     init_us_2    :      0.38s CPU      0.62s WALL (    2773 calls)
     init_us_2:cp :      0.38s CPU      0.61s WALL (    2773 calls)
     cegterg      :     31.26s CPU     46.21s WALL (    1363 calls)

     Called by *egterg:
     cdiaghg      :      0.14s CPU      0.18s WALL (    3438 calls)
     h_psi        :     32.21s CPU     48.46s WALL (    3485 calls)
     g_psi        :      0.03s CPU      0.03s WALL (    2075 calls)

     Called by h_psi:
     h_psi:calbec :      0.09s CPU      0.12s WALL (    3485 calls)
     vloc_psi     :      7.92s CPU     12.02s WALL (    3485 calls)
     add_vuspsi   :      0.10s CPU      0.17s WALL (    3485 calls)
     h_psi_meta   :     24.03s CPU     36.09s WALL (    3485 calls)

     General routines
     calbec       :      0.08s CPU      0.11s WALL (    3485 calls)
     fft          :      0.10s CPU      0.15s WALL (     357 calls)
     ffts         :      0.16s CPU      0.20s WALL (     588 calls)
     fftw         :     34.79s CPU     52.25s WALL (  131680 calls)
     interpolate  :      0.00s CPU      0.00s WALL (      30 calls)
 
     Parallel routines
 
     PWSCF        :     41.25s CPU   1m 2.26s WALL

 
   This run was terminated on:  12:57: 7  29Mar2023            

=------------------------------------------------------------------------------=
   JOB DONE.
=------------------------------------------------------------------------------=
