
     Program PWSCF v.7.0 starts on  7Jul2023 at 14:30:57 

     This program is part of the open-source Quantum ESPRESSO suite
     for quantum simulation of materials; please cite
         "P. Giannozzi et al., J. Phys.:Condens. Matter 21 395502 (2009);
         "P. Giannozzi et al., J. Phys.:Condens. Matter 29 465901 (2017);
         "P. Giannozzi et al., J. Chem. Phys. 152 154105 (2020);
          URL http://www.quantum-espresso.org", 
     in publications or presentations arising from this work. More details at
     http://www.quantum-espresso.org/quote

     Parallel version (MPI), running on     1 processors

     MPI processes distributed on     1 nodes
     26812 MiB available memory on the printing compute node when the environment starts
 
     Waiting for input...
     Reading input from standard input
Warning: card &CELL ignored
Warning: card / ignored

     Current dimensions of program PWSCF are:
     Max number of different atomic species (ntypx) = 10
     Max number of k-points (npk) =  40000
     Max angular momentum in pseudopotentials (lmaxx) =  4
     file Si.SCAN.UPF2: wavefunction(s)  0D renormalized

     WARNING: the MGGA functional with ID    5 has been 
     read together with other dft terms, but it should 
     stand alone in order to work properly. The other 
     terms will be ignored.

     WARNING: the MGGA functional with ID    5 has been 
     read together with other dft terms, but it should 
     stand alone in order to work properly. The other 
     terms will be ignored.

     Subspace diagonalization in iterative solution of the eigenvalue problem:
     a serial algorithm will be used

 
     G-vector sticks info
     --------------------
     sticks:   dense  smooth     PW     G-vecs:    dense   smooth      PW
     Sum         595     595    187                 9577     9577    1687
 
     Using Slab Decomposition
 


     bravais-lattice index     =            2
     lattice parameter (alat)  =       9.2975  a.u.
     unit-cell volume          =     200.9240 (a.u.)^3
     number of atoms/cell      =            2
     number of atomic types    =            2
     number of electrons       =         8.00
     number of Kohn-Sham states=            4
     kinetic-energy cutoff     =      50.0000  Ry
     charge density cutoff     =     200.0000  Ry
     scf convergence threshold =      2.0E-05
     mixing beta               =       0.2000
     number of iterations used =            8  local-TF  mixing
     Exchange-correlation= SLA  PW   SCAN SCAN
                           (   0   0   0   0   0 263 267)

     celldm(1)=   9.297453  celldm(2)=   0.000000  celldm(3)=   0.000000
     celldm(4)=   0.000000  celldm(5)=   0.000000  celldm(6)=   0.000000

     crystal axes: (cart. coord. in units of alat)
               a(1) = (  -0.500000   0.000000   0.500000 )  
               a(2) = (   0.000000   0.500000   0.500000 )  
               a(3) = (  -0.500000   0.500000   0.000000 )  

     reciprocal axes: (cart. coord. in units 2 pi/alat)
               b(1) = ( -1.000000 -1.000000  1.000000 )  
               b(2) = (  1.000000  1.000000  1.000000 )  
               b(3) = ( -1.000000  1.000000 -1.000000 )  


     PseudoPot. # 1 for Si read from file:
     ~/Documents/TA/PWDFT.jl/pseudopotentials/scan_upf/Si.SCAN.UPF2
     MD5 check sum: Not computed, couldn't open file
     Pseudo is Norm-conserving, Zval =  4.0
     Generated by new atomic code, or converted to UPF format
     Using radial grid of 1475 points,  2 beta functions with: 
                l(1) =   0
                l(2) =   1

     PseudoPot. # 2 for C  read from file:
     ~/Documents/TA/PWDFT.jl/pseudopotentials/scan_upf/C.SCAN.UPF2
     MD5 check sum: Not computed, couldn't open file
     Pseudo is Norm-conserving, Zval =  4.0
     Generated by new atomic code, or converted to UPF format
     Using radial grid of 1389 points,  1 beta functions with: 
                l(1) =   0

     atomic species   valence    mass     pseudopotential
        Si             4.00    28.08550     Si( 1.00)
        C              4.00    12.01100     C ( 1.00)

     24 Sym. Ops. (no inversion) found



   Cartesian axes

     site n.     atom                  positions (alat units)
         1           Si  tau(   1) = (   0.0000000   0.0000000   0.0000000  )
         2           C   tau(   2) = (   0.2500000   0.2500000   0.2500000  )

     number of k points=    47
                       cart. coord. in units 2pi/alat
        k(    1) = (   0.0000000   0.0000000   0.0000000), wk =   0.0020000
        k(    2) = (  -0.1000000   0.1000000  -0.1000000), wk =   0.0160000
        k(    3) = (  -0.2000000   0.2000000  -0.2000000), wk =   0.0160000
        k(    4) = (  -0.3000000   0.3000000  -0.3000000), wk =   0.0160000
        k(    5) = (  -0.4000000   0.4000000  -0.4000000), wk =   0.0160000
        k(    6) = (   0.5000000  -0.5000000   0.5000000), wk =   0.0080000
        k(    7) = (   0.0000000   0.2000000   0.0000000), wk =   0.0120000
        k(    8) = (  -0.1000000   0.3000000  -0.1000000), wk =   0.0480000
        k(    9) = (  -0.2000000   0.4000000  -0.2000000), wk =   0.0480000
        k(   10) = (  -0.3000000   0.5000000  -0.3000000), wk =   0.0480000
        k(   11) = (   0.6000000  -0.4000000   0.6000000), wk =   0.0480000
        k(   12) = (   0.5000000  -0.3000000   0.5000000), wk =   0.0480000
        k(   13) = (   0.4000000  -0.2000000   0.4000000), wk =   0.0480000
        k(   14) = (   0.3000000  -0.1000000   0.3000000), wk =   0.0480000
        k(   15) = (   0.2000000   0.0000000   0.2000000), wk =   0.0240000
        k(   16) = (   0.0000000   0.4000000   0.0000000), wk =   0.0120000
        k(   17) = (  -0.1000000   0.5000000  -0.1000000), wk =   0.0480000
        k(   18) = (  -0.2000000   0.6000000  -0.2000000), wk =   0.0480000
        k(   19) = (   0.7000000  -0.3000000   0.7000000), wk =   0.0480000
        k(   20) = (   0.6000000  -0.2000000   0.6000000), wk =   0.0480000
        k(   21) = (   0.5000000  -0.1000000   0.5000000), wk =   0.0480000
        k(   22) = (   0.4000000   0.0000000   0.4000000), wk =   0.0240000
        k(   23) = (   0.0000000   0.6000000   0.0000000), wk =   0.0120000
        k(   24) = (  -0.1000000   0.7000000  -0.1000000), wk =   0.0480000
        k(   25) = (   0.8000000  -0.2000000   0.8000000), wk =   0.0480000
        k(   26) = (   0.7000000  -0.1000000   0.7000000), wk =   0.0480000
        k(   27) = (   0.6000000  -0.0000000   0.6000000), wk =   0.0240000
        k(   28) = (   0.0000000   0.8000000   0.0000000), wk =   0.0120000
        k(   29) = (   0.9000000  -0.1000000   0.9000000), wk =   0.0480000
        k(   30) = (   0.8000000   0.0000000   0.8000000), wk =   0.0240000
        k(   31) = (   0.0000000  -1.0000000   0.0000000), wk =   0.0060000
        k(   32) = (  -0.2000000   0.4000000   0.0000000), wk =   0.0480000
        k(   33) = (  -0.3000000   0.5000000  -0.1000000), wk =   0.0960000
        k(   34) = (   0.6000000  -0.4000000   0.8000000), wk =   0.0960000
        k(   35) = (   0.5000000  -0.3000000   0.7000000), wk =   0.0480000
        k(   36) = (  -0.2000000   0.6000000   0.0000000), wk =   0.0480000
        k(   37) = (   0.7000000  -0.3000000   0.9000000), wk =   0.0960000
        k(   38) = (   0.6000000  -0.2000000   0.8000000), wk =   0.0960000
        k(   39) = (   0.5000000  -0.1000000   0.7000000), wk =   0.0960000
        k(   40) = (   0.4000000   0.0000000   0.6000000), wk =   0.0480000
        k(   41) = (   0.8000000  -0.2000000   1.0000000), wk =   0.0480000
        k(   42) = (   0.7000000  -0.1000000   0.9000000), wk =   0.0960000
        k(   43) = (   0.6000000   0.0000000   0.8000000), wk =   0.0480000
        k(   44) = (  -0.2000000  -1.0000000   0.0000000), wk =   0.0240000
        k(   45) = (   0.6000000  -0.2000000   1.0000000), wk =   0.0480000
        k(   46) = (   0.5000000  -0.1000000   0.9000000), wk =   0.0480000
        k(   47) = (  -0.4000000  -1.0000000   0.0000000), wk =   0.0240000

     Dense  grid:     9577 G-vectors     FFT dimensions: (  30,  30,  30)

     Estimated max dynamical RAM per process >      18.03 MB

     WARNING: libxc functional with ID  263 depends
      on external parameters: check the user_guide of
      QE if you need to modify them or to check their
      default values.

     Initial potential from superposition of free atoms

     starting charge       7.9995, renormalised to       8.0000
     Starting wfcs are   13 randomized atomic wfcs

     total cpu time spent up to now is        3.6 secs

     Self-consistent Calculation

     iteration #  1     ecut=    50.00 Ry     beta= 0.20
     Davidson diagonalization with overlap
     ethr =  1.00E-02,  avg # of iterations =  1.7

     total cpu time spent up to now is        6.7 secs

     total energy              =     -19.15625595 Ry
     estimated scf accuracy    <       1.45449973 Ry

     iteration #  2     ecut=    50.00 Ry     beta= 0.20
     Davidson diagonalization with overlap
     ethr =  1.00E-02,  avg # of iterations =  1.0

     total cpu time spent up to now is        9.4 secs

     total energy              =     -19.12823581 Ry
     estimated scf accuracy    <       0.90906377 Ry

     iteration #  3     ecut=    50.00 Ry     beta= 0.20
     Davidson diagonalization with overlap
     ethr =  1.00E-02,  avg # of iterations =  1.0

     total cpu time spent up to now is       12.0 secs

     total energy              =     -19.17417289 Ry
     estimated scf accuracy    <       0.03187493 Ry

     iteration #  4     ecut=    50.00 Ry     beta= 0.20
     Davidson diagonalization with overlap
     ethr =  3.98E-04,  avg # of iterations =  2.0

     total cpu time spent up to now is       14.6 secs

     total energy              =     -19.18152252 Ry
     estimated scf accuracy    <       0.01787935 Ry

     iteration #  5     ecut=    50.00 Ry     beta= 0.20
     Davidson diagonalization with overlap
     ethr =  2.23E-04,  avg # of iterations =  1.0

     total cpu time spent up to now is       16.6 secs

     total energy              =     -19.18195936 Ry
     estimated scf accuracy    <       0.01389527 Ry

     iteration #  6     ecut=    50.00 Ry     beta= 0.20
     Davidson diagonalization with overlap
     ethr =  1.74E-04,  avg # of iterations =  1.0

     total cpu time spent up to now is       18.2 secs

     total energy              =     -19.18272136 Ry
     estimated scf accuracy    <       0.00084814 Ry

     iteration #  7     ecut=    50.00 Ry     beta= 0.20
     Davidson diagonalization with overlap
     ethr =  1.06E-05,  avg # of iterations =  2.2

     total cpu time spent up to now is       21.0 secs

     total energy              =     -19.18264454 Ry
     estimated scf accuracy    <       0.00115374 Ry

     iteration #  8     ecut=    50.00 Ry     beta= 0.20
     Davidson diagonalization with overlap
     ethr =  1.06E-05,  avg # of iterations =  1.5

     total cpu time spent up to now is       22.7 secs

     total energy              =     -19.18270730 Ry
     estimated scf accuracy    <       0.00021834 Ry

     iteration #  9     ecut=    50.00 Ry     beta= 0.20
     Davidson diagonalization with overlap
     ethr =  2.73E-06,  avg # of iterations =  2.0

     total cpu time spent up to now is       24.0 secs

     total energy              =     -19.18271625 Ry
     estimated scf accuracy    <       0.00006531 Ry

     iteration # 10     ecut=    50.00 Ry     beta= 0.20
     Davidson diagonalization with overlap
     ethr =  8.16E-07,  avg # of iterations =  1.2

     total cpu time spent up to now is       24.7 secs

     total energy              =     -19.18271569 Ry
     estimated scf accuracy    <       0.00003083 Ry

     iteration # 11     ecut=    50.00 Ry     beta= 0.20
     Davidson diagonalization with overlap
     ethr =  3.85E-07,  avg # of iterations =  2.0

     total cpu time spent up to now is       25.6 secs

     End of self-consistent calculation

          k = 0.0000 0.0000 0.0000 (  1243 PWs)   bands (ev):

    -8.1889   5.3312   5.3312   5.3312

          k =-0.1000 0.1000-0.1000 (  1218 PWs)   bands (ev):

    -8.0406   4.2383   5.2101   5.2101

          k =-0.2000 0.2000-0.2000 (  1215 PWs)   bands (ev):

    -7.6072   2.3557   4.9290   4.9290

          k =-0.3000 0.3000-0.3000 (  1209 PWs)   bands (ev):

    -6.9349   0.4877   4.6382   4.6382

          k =-0.4000 0.4000-0.4000 (  1188 PWs)   bands (ev):

    -6.1692  -1.0412   4.4374   4.4374

          k = 0.5000-0.5000 0.5000 (  1194 PWs)   bands (ev):

    -5.7579  -1.7136   4.3646   4.3646

          k = 0.0000 0.2000 0.0000 (  1219 PWs)   bands (ev):

    -7.9910   4.2979   4.9461   4.9461

          k =-0.1000 0.3000-0.1000 (  1209 PWs)   bands (ev):

    -7.6517   2.8661   4.5865   4.7132

          k =-0.2000 0.4000-0.2000 (  1208 PWs)   bands (ev):

    -7.0544   1.0817   4.2877   4.3492

          k =-0.3000 0.5000-0.3000 (  1200 PWs)   bands (ev):

    -6.2981  -0.5372   3.9588   4.1337

          k = 0.6000-0.4000 0.6000 (  1195 PWs)   bands (ev):

    -5.7014  -1.5450   3.6707   4.1528

          k = 0.5000-0.3000 0.5000 (  1196 PWs)   bands (ev):

    -5.8472  -1.3138   3.5489   4.3352

          k = 0.4000-0.2000 0.4000 (  1199 PWs)   bands (ev):

    -6.5582  -0.0332   3.6304   4.6378

          k = 0.3000-0.1000 0.3000 (  1212 PWs)   bands (ev):

    -7.2802   1.6580   3.9369   4.9776

          k = 0.2000 0.0000 0.2000 (  1213 PWs)   bands (ev):

    -7.7969   3.2785   4.5197   5.2181

          k = 0.0000 0.4000 0.0000 (  1199 PWs)   bands (ev):

    -7.4095   2.5869   4.1563   4.1563

          k =-0.1000 0.5000-0.1000 (  1217 PWs)   bands (ev):

    -6.9022   1.3704   3.6899   3.8094

          k =-0.2000 0.6000-0.2000 (  1202 PWs)   bands (ev):

    -6.2001  -0.0420   3.0670   3.6408

          k = 0.7000-0.3000 0.7000 (  1206 PWs)   bands (ev):

    -5.5235  -1.1521   2.5170   3.6769

          k = 0.6000-0.2000 0.6000 (  1184 PWs)   bands (ev):

    -5.4012  -1.3238   2.1978   3.9113

          k = 0.5000-0.1000 0.5000 (  1193 PWs)   bands (ev):

    -5.9762  -0.4335   2.2122   4.2888

          k = 0.4000 0.0000 0.4000 (  1207 PWs)   bands (ev):

    -6.7035   0.7578   2.7557   4.7046

          k = 0.0000 0.6000 0.0000 (  1214 PWs)   bands (ev):

    -6.4908   0.8248   3.4089   3.4089

          k =-0.1000 0.7000-0.1000 (  1208 PWs)   bands (ev):

    -5.8761  -0.1336   2.8139   3.1910

          k = 0.8000-0.2000 0.8000 (  1199 PWs)   bands (ev):

    -5.2236  -0.9870   1.9440   3.1939

          k = 0.7000-0.1000 0.7000 (  1192 PWs)   bands (ev):

    -4.9451  -1.2820   1.3173   3.4166

          k = 0.6000-0.0000 0.6000 (  1197 PWs)   bands (ev):

    -5.3245  -0.8835   1.3101   3.8160

          k = 0.0000 0.8000 0.0000 (  1202 PWs)   bands (ev):

    -5.3784  -0.8043   2.9124   2.9124

          k = 0.9000-0.1000 0.9000 (  1198 PWs)   bands (ev):

    -4.8710  -1.3883   2.3405   2.8583

          k = 0.8000 0.0000 0.8000 (  1190 PWs)   bands (ev):

    -4.6839  -1.4763   1.5072   3.0369

          k = 0.0000-1.0000 0.0000 (  1186 PWs)   bands (ev):

    -4.6880  -1.6704   2.7404   2.7404

          k =-0.2000 0.4000 0.0000 (  1204 PWs)   bands (ev):

    -7.2281   1.8732   3.6713   4.5960

          k =-0.3000 0.5000-0.1000 (  1195 PWs)   bands (ev):

    -6.5737   0.4726   3.0442   4.2762

          k = 0.6000-0.4000 0.8000 (  1203 PWs)   bands (ev):

    -5.8353  -0.8597   2.7606   3.9490

          k = 0.5000-0.3000 0.7000 (  1194 PWs)   bands (ev):

    -5.4435  -1.4679   2.6846   3.8156

          k =-0.2000 0.6000 0.0000 (  1204 PWs)   bands (ev):

    -6.3373   0.4730   2.9003   3.5789

          k = 0.7000-0.3000 0.9000 (  1206 PWs)   bands (ev):

    -5.6402  -0.5458   2.2345   3.2587

          k = 0.6000-0.2000 0.8000 (  1194 PWs)   bands (ev):

    -5.1206  -1.2371   1.7670   3.2023

          k = 0.5000-0.1000 0.7000 (  1188 PWs)   bands (ev):

    -5.2674  -1.0365   1.6112   3.4479

          k = 0.4000 0.0000 0.6000 (  1195 PWs)   bands (ev):

    -5.9097  -0.2416   1.9869   3.8783

          k = 0.8000-0.2000 1.0000 (  1197 PWs)   bands (ev):

    -5.2822  -0.8520   2.4286   2.7522

          k = 0.7000-0.1000 0.9000 (  1191 PWs)   bands (ev):

    -4.8008  -1.3106   1.6725   2.6636

          k = 0.6000 0.0000 0.8000 (  1189 PWs)   bands (ev):

    -4.8073  -1.2603   1.2023   2.9517

          k =-0.2000-1.0000 0.0000 (  1194 PWs)   bands (ev):

    -4.6569  -1.5678   2.3512   2.3671

          k = 0.6000-0.2000 1.0000 (  1197 PWs)   bands (ev):

    -5.0458  -1.0198   1.6196   2.6838

          k = 0.5000-0.1000 0.9000 (  1200 PWs)   bands (ev):

    -4.7552  -1.2656   1.4259   2.4177

          k =-0.4000-1.0000 0.0000 (  1202 PWs)   bands (ev):

    -4.6047  -1.3722   1.7729   1.8891

     highest occupied level (ev):     5.3312

!    total energy              =     -19.18271919 Ry
     estimated scf accuracy    <       0.00000160 Ry

     The total energy is the sum of the following terms:
     one-electron contribution =       2.33307002 Ry
     hartree contribution      =       2.64212631 Ry
     xc contribution           =      -5.61761782 Ry
     ewald contribution        =     -18.54029769 Ry

     convergence has been achieved in  11 iterations
     Writing meta-gga kinetic term

     Writing all to output data dir ./input_pw/SiC/11/pwscf.save/
     Writing meta-gga kinetic term
 
     init_run     :      1.71s CPU      3.53s WALL (       1 calls)
     electrons    :     14.42s CPU     21.99s WALL (       1 calls)

     Called by init_run:
     wfcinit      :      1.58s CPU      3.29s WALL (       1 calls)
     potinit      :      0.02s CPU      0.06s WALL (       1 calls)
     hinit0       :      0.09s CPU      0.16s WALL (       1 calls)

     Called by electrons:
     c_bands      :     11.57s CPU     17.69s WALL (      11 calls)
     sum_band     :      2.58s CPU      3.82s WALL (      11 calls)
     v_of_rho     :      0.18s CPU      0.36s WALL (      12 calls)
     mix_rho      :      0.11s CPU      0.15s WALL (      11 calls)

     Called by c_bands:
     init_us_2    :      0.15s CPU      0.26s WALL (    1081 calls)
     init_us_2:cp :      0.14s CPU      0.26s WALL (    1081 calls)
     cegterg      :     11.44s CPU     17.49s WALL (     517 calls)

     Called by *egterg:
     cdiaghg      :      0.05s CPU      0.09s WALL (    1304 calls)
     h_psi        :     12.74s CPU     20.28s WALL (    1351 calls)
     g_psi        :      0.01s CPU      0.01s WALL (     787 calls)

     Called by h_psi:
     h_psi:calbec :      0.04s CPU      0.05s WALL (    1351 calls)
     vloc_psi     :      3.13s CPU      5.37s WALL (    1351 calls)
     add_vuspsi   :      0.04s CPU      0.05s WALL (    1351 calls)
     h_psi_meta   :      9.51s CPU     14.77s WALL (    1351 calls)

     General routines
     calbec       :      0.03s CPU      0.05s WALL (    1351 calls)
     fft          :      0.04s CPU      0.08s WALL (     141 calls)
     ffts         :      0.05s CPU      0.07s WALL (     210 calls)
     fftw         :     13.58s CPU     21.32s WALL (   51960 calls)
     interpolate  :      0.00s CPU      0.00s WALL (      12 calls)
 
     Parallel routines
 
     PWSCF        :     16.18s CPU     25.70s WALL

 
   This run was terminated on:  14:31:23   7Jul2023            

=------------------------------------------------------------------------------=
   JOB DONE.
=------------------------------------------------------------------------------=
