
     Program PWSCF v.7.0 starts on 29Mar2023 at 12:56: 4 

     This program is part of the open-source Quantum ESPRESSO suite
     for quantum simulation of materials; please cite
         "P. Giannozzi et al., J. Phys.:Condens. Matter 21 395502 (2009);
         "P. Giannozzi et al., J. Phys.:Condens. Matter 29 465901 (2017);
         "P. Giannozzi et al., J. Chem. Phys. 152 154105 (2020);
          URL http://www.quantum-espresso.org", 
     in publications or presentations arising from this work. More details at
     http://www.quantum-espresso.org/quote

     Parallel version (MPI), running on     1 processors

     MPI processes distributed on     1 nodes
     23413 MiB available memory on the printing compute node when the environment starts
 
     Waiting for input...
     Reading input from standard input
Warning: card &CELL ignored
Warning: card / ignored

     Current dimensions of program PWSCF are:
     Max number of different atomic species (ntypx) = 10
     Max number of k-points (npk) =  40000
     Max angular momentum in pseudopotentials (lmaxx) =  4
     file Si.SCAN.UPF2: wavefunction(s)  0D renormalized

     WARNING: the MGGA functional with ID    5 has been 
     read together with other dft terms, but it should 
     stand alone in order to work properly. The other 
     terms will be ignored.

     WARNING: the MGGA functional with ID    5 has been 
     read together with other dft terms, but it should 
     stand alone in order to work properly. The other 
     terms will be ignored.

     Subspace diagonalization in iterative solution of the eigenvalue problem:
     a serial algorithm will be used

 
     G-vector sticks info
     --------------------
     sticks:   dense  smooth     PW     G-vecs:    dense   smooth      PW
     Sum         721     721    223                12627    12627    2133
 
     Using Slab Decomposition
 


     bravais-lattice index     =            2
     lattice parameter (alat)  =      10.2045  a.u.
     unit-cell volume          =     265.6549 (a.u.)^3
     number of atoms/cell      =            2
     number of atomic types    =            2
     number of electrons       =         8.00
     number of Kohn-Sham states=            4
     kinetic-energy cutoff     =      50.0000  Ry
     charge density cutoff     =     200.0000  Ry
     scf convergence threshold =      1.0E-06
     mixing beta               =       0.0100
     number of iterations used =            8  local-TF  mixing
     Exchange-correlation= SLA  PW   SCAN SCAN
                           (   0   0   0   0   0 263 267)

     celldm(1)=  10.204521  celldm(2)=   0.000000  celldm(3)=   0.000000
     celldm(4)=   0.000000  celldm(5)=   0.000000  celldm(6)=   0.000000

     crystal axes: (cart. coord. in units of alat)
               a(1) = (  -0.500000   0.000000   0.500000 )  
               a(2) = (   0.000000   0.500000   0.500000 )  
               a(3) = (  -0.500000   0.500000   0.000000 )  

     reciprocal axes: (cart. coord. in units 2 pi/alat)
               b(1) = ( -1.000000 -1.000000  1.000000 )  
               b(2) = (  1.000000  1.000000  1.000000 )  
               b(3) = ( -1.000000  1.000000 -1.000000 )  


     PseudoPot. # 1 for Si read from file:
     ~/Documents/TA/PWDFT.jl/pseudopotentials/scan_upf/Si.SCAN.UPF2
     MD5 check sum: Not computed, couldn't open file
     Pseudo is Norm-conserving, Zval =  4.0
     Generated by new atomic code, or converted to UPF format
     Using radial grid of 1475 points,  2 beta functions with: 
                l(1) =   0
                l(2) =   1

     PseudoPot. # 2 for C  read from file:
     ~/Documents/TA/PWDFT.jl/pseudopotentials/scan_upf/C.SCAN.UPF2
     MD5 check sum: Not computed, couldn't open file
     Pseudo is Norm-conserving, Zval =  4.0
     Generated by new atomic code, or converted to UPF format
     Using radial grid of 1389 points,  1 beta functions with: 
                l(1) =   0

     atomic species   valence    mass     pseudopotential
        Si             4.00    28.08550     Si( 1.00)
        C              4.00    12.01100     C ( 1.00)

     24 Sym. Ops. (no inversion) found



   Cartesian axes

     site n.     atom                  positions (alat units)
         1           Si  tau(   1) = (   0.0000000   0.0000000   0.0000000  )
         2           C   tau(   2) = (   0.2500000   0.2500000   0.2500000  )

     number of k points=    47
                       cart. coord. in units 2pi/alat
        k(    1) = (   0.0000000   0.0000000   0.0000000), wk =   0.0020000
        k(    2) = (  -0.1000000   0.1000000  -0.1000000), wk =   0.0160000
        k(    3) = (  -0.2000000   0.2000000  -0.2000000), wk =   0.0160000
        k(    4) = (  -0.3000000   0.3000000  -0.3000000), wk =   0.0160000
        k(    5) = (  -0.4000000   0.4000000  -0.4000000), wk =   0.0160000
        k(    6) = (   0.5000000  -0.5000000   0.5000000), wk =   0.0080000
        k(    7) = (   0.0000000   0.2000000   0.0000000), wk =   0.0120000
        k(    8) = (  -0.1000000   0.3000000  -0.1000000), wk =   0.0480000
        k(    9) = (  -0.2000000   0.4000000  -0.2000000), wk =   0.0480000
        k(   10) = (  -0.3000000   0.5000000  -0.3000000), wk =   0.0480000
        k(   11) = (   0.6000000  -0.4000000   0.6000000), wk =   0.0480000
        k(   12) = (   0.5000000  -0.3000000   0.5000000), wk =   0.0480000
        k(   13) = (   0.4000000  -0.2000000   0.4000000), wk =   0.0480000
        k(   14) = (   0.3000000  -0.1000000   0.3000000), wk =   0.0480000
        k(   15) = (   0.2000000   0.0000000   0.2000000), wk =   0.0240000
        k(   16) = (   0.0000000   0.4000000   0.0000000), wk =   0.0120000
        k(   17) = (  -0.1000000   0.5000000  -0.1000000), wk =   0.0480000
        k(   18) = (  -0.2000000   0.6000000  -0.2000000), wk =   0.0480000
        k(   19) = (   0.7000000  -0.3000000   0.7000000), wk =   0.0480000
        k(   20) = (   0.6000000  -0.2000000   0.6000000), wk =   0.0480000
        k(   21) = (   0.5000000  -0.1000000   0.5000000), wk =   0.0480000
        k(   22) = (   0.4000000   0.0000000   0.4000000), wk =   0.0240000
        k(   23) = (   0.0000000   0.6000000   0.0000000), wk =   0.0120000
        k(   24) = (  -0.1000000   0.7000000  -0.1000000), wk =   0.0480000
        k(   25) = (   0.8000000  -0.2000000   0.8000000), wk =   0.0480000
        k(   26) = (   0.7000000  -0.1000000   0.7000000), wk =   0.0480000
        k(   27) = (   0.6000000  -0.0000000   0.6000000), wk =   0.0240000
        k(   28) = (   0.0000000   0.8000000   0.0000000), wk =   0.0120000
        k(   29) = (   0.9000000  -0.1000000   0.9000000), wk =   0.0480000
        k(   30) = (   0.8000000   0.0000000   0.8000000), wk =   0.0240000
        k(   31) = (   0.0000000  -1.0000000   0.0000000), wk =   0.0060000
        k(   32) = (  -0.2000000   0.4000000   0.0000000), wk =   0.0480000
        k(   33) = (  -0.3000000   0.5000000  -0.1000000), wk =   0.0960000
        k(   34) = (   0.6000000  -0.4000000   0.8000000), wk =   0.0960000
        k(   35) = (   0.5000000  -0.3000000   0.7000000), wk =   0.0480000
        k(   36) = (  -0.2000000   0.6000000   0.0000000), wk =   0.0480000
        k(   37) = (   0.7000000  -0.3000000   0.9000000), wk =   0.0960000
        k(   38) = (   0.6000000  -0.2000000   0.8000000), wk =   0.0960000
        k(   39) = (   0.5000000  -0.1000000   0.7000000), wk =   0.0960000
        k(   40) = (   0.4000000   0.0000000   0.6000000), wk =   0.0480000
        k(   41) = (   0.8000000  -0.2000000   1.0000000), wk =   0.0480000
        k(   42) = (   0.7000000  -0.1000000   0.9000000), wk =   0.0960000
        k(   43) = (   0.6000000   0.0000000   0.8000000), wk =   0.0480000
        k(   44) = (  -0.2000000  -1.0000000   0.0000000), wk =   0.0240000
        k(   45) = (   0.6000000  -0.2000000   1.0000000), wk =   0.0480000
        k(   46) = (   0.5000000  -0.1000000   0.9000000), wk =   0.0480000
        k(   47) = (  -0.4000000  -1.0000000   0.0000000), wk =   0.0240000

     Dense  grid:    12627 G-vectors     FFT dimensions: (  36,  36,  36)

     Estimated max dynamical RAM per process >      24.99 MB

     WARNING: libxc functional with ID  263 depends
      on external parameters: check the user_guide of
      QE if you need to modify them or to check their
      default values.

     Initial potential from superposition of free atoms

     starting charge       7.9995, renormalised to       8.0000
     Starting wfcs are   13 randomized atomic wfcs

     total cpu time spent up to now is        6.3 secs

     Self-consistent Calculation

     iteration #  1     ecut=    50.00 Ry     beta= 0.01
     Davidson diagonalization with overlap
     ethr =  1.00E-02,  avg # of iterations =  1.3

     total cpu time spent up to now is       11.0 secs

     total energy              =     -19.01410949 Ry
     estimated scf accuracy    <       1.05104933 Ry

     iteration #  2     ecut=    50.00 Ry     beta= 0.01
     Davidson diagonalization with overlap
     ethr =  1.00E-02,  avg # of iterations =  1.0

     total cpu time spent up to now is       15.6 secs

     total energy              =     -18.97617221 Ry
     estimated scf accuracy    <       1.03437559 Ry

     iteration #  3     ecut=    50.00 Ry     beta= 0.01
     Davidson diagonalization with overlap
     ethr =  1.00E-02,  avg # of iterations =  1.0

     total cpu time spent up to now is       20.2 secs

     total energy              =     -18.98390672 Ry
     estimated scf accuracy    <       0.15028691 Ry

     iteration #  4     ecut=    50.00 Ry     beta= 0.01
     Davidson diagonalization with overlap
     ethr =  1.88E-03,  avg # of iterations =  2.0

     total cpu time spent up to now is       25.5 secs

     total energy              =     -19.00044417 Ry
     estimated scf accuracy    <       0.02382705 Ry

     iteration #  5     ecut=    50.00 Ry     beta= 0.01
     Davidson diagonalization with overlap
     ethr =  2.98E-04,  avg # of iterations =  2.9

     total cpu time spent up to now is       31.7 secs

     total energy              =     -19.00750403 Ry
     estimated scf accuracy    <       0.09526899 Ry

     iteration #  6     ecut=    50.00 Ry     beta= 0.01
     Davidson diagonalization with overlap
     ethr =  2.98E-04,  avg # of iterations =  1.0

     total cpu time spent up to now is       35.8 secs

     total energy              =     -19.01091594 Ry
     estimated scf accuracy    <       0.11174545 Ry

     iteration #  7     ecut=    50.00 Ry     beta= 0.01
     Davidson diagonalization with overlap
     ethr =  2.98E-04,  avg # of iterations =  1.0

     total cpu time spent up to now is       39.5 secs

     total energy              =     -19.01344900 Ry
     estimated scf accuracy    <       0.02155534 Ry

     iteration #  8     ecut=    50.00 Ry     beta= 0.01
     Davidson diagonalization with overlap
     ethr =  2.69E-04,  avg # of iterations =  1.0

     total cpu time spent up to now is       43.2 secs

     total energy              =     -19.01378366 Ry
     estimated scf accuracy    <       0.03755133 Ry

     iteration #  9     ecut=    50.00 Ry     beta= 0.01
     Davidson diagonalization with overlap
     ethr =  2.69E-04,  avg # of iterations =  1.0

     total cpu time spent up to now is       46.5 secs

     total energy              =     -19.01097029 Ry
     estimated scf accuracy    <       0.04105559 Ry

     iteration # 10     ecut=    50.00 Ry     beta= 0.01
     Davidson diagonalization with overlap
     ethr =  2.69E-04,  avg # of iterations =  1.0

     total cpu time spent up to now is       49.3 secs

     total energy              =     -19.00554456 Ry
     estimated scf accuracy    <       0.02955666 Ry

     iteration # 11     ecut=    50.00 Ry     beta= 0.01
     Davidson diagonalization with overlap
     ethr =  2.69E-04,  avg # of iterations =  2.0

     total cpu time spent up to now is       51.1 secs

     total energy              =     -19.00818683 Ry
     estimated scf accuracy    <       0.00010486 Ry

     iteration # 12     ecut=    50.00 Ry     beta= 0.01
     Davidson diagonalization with overlap
     ethr =  1.31E-06,  avg # of iterations =  6.2

     total cpu time spent up to now is       53.9 secs

     total energy              =     -19.00846909 Ry
     estimated scf accuracy    <       0.00043671 Ry

     iteration # 13     ecut=    50.00 Ry     beta= 0.01
     Davidson diagonalization with overlap
     ethr =  1.31E-06,  avg # of iterations =  1.0

     total cpu time spent up to now is       55.1 secs

     total energy              =     -19.00845513 Ry
     estimated scf accuracy    <       0.00027516 Ry

     iteration # 14     ecut=    50.00 Ry     beta= 0.01
     Davidson diagonalization with overlap
     ethr =  1.31E-06,  avg # of iterations =  1.0

     total cpu time spent up to now is       56.3 secs

     total energy              =     -19.00845896 Ry
     estimated scf accuracy    <       0.00020629 Ry

     iteration # 15     ecut=    50.00 Ry     beta= 0.01
     Davidson diagonalization with overlap
     ethr =  1.31E-06,  avg # of iterations =  1.0

     total cpu time spent up to now is       57.5 secs

     total energy              =     -19.00845914 Ry
     estimated scf accuracy    <       0.00033332 Ry

     iteration # 16     ecut=    50.00 Ry     beta= 0.01
     Davidson diagonalization with overlap
     ethr =  1.31E-06,  avg # of iterations =  1.0

     total cpu time spent up to now is       58.7 secs

     total energy              =     -19.00845046 Ry
     estimated scf accuracy    <       0.00030383 Ry

     iteration # 17     ecut=    50.00 Ry     beta= 0.01
     Davidson diagonalization with overlap
     ethr =  1.31E-06,  avg # of iterations =  1.0

     total cpu time spent up to now is       59.9 secs

     total energy              =     -19.00844413 Ry
     estimated scf accuracy    <       0.00023821 Ry

     iteration # 18     ecut=    50.00 Ry     beta= 0.01
     Davidson diagonalization with overlap
     ethr =  1.31E-06,  avg # of iterations =  1.0

     total cpu time spent up to now is       61.0 secs

     total energy              =     -19.00842002 Ry
     estimated scf accuracy    <       0.00018838 Ry

     iteration # 19     ecut=    50.00 Ry     beta= 0.01
     Davidson diagonalization with overlap
     ethr =  1.31E-06,  avg # of iterations =  2.0

     total cpu time spent up to now is       62.4 secs

     total energy              =     -19.00843101 Ry
     estimated scf accuracy    <       0.00001295 Ry

     iteration # 20     ecut=    50.00 Ry     beta= 0.01
     Davidson diagonalization with overlap
     ethr =  1.62E-07,  avg # of iterations =  2.0

     total cpu time spent up to now is       63.6 secs

     total energy              =     -19.00843245 Ry
     estimated scf accuracy    <       0.00000834 Ry

     iteration # 21     ecut=    50.00 Ry     beta= 0.01
     Davidson diagonalization with overlap
     ethr =  1.04E-07,  avg # of iterations =  1.0

     total cpu time spent up to now is       64.7 secs

     total energy              =     -19.00843261 Ry
     estimated scf accuracy    <       0.00001071 Ry

     iteration # 22     ecut=    50.00 Ry     beta= 0.01
     Davidson diagonalization with overlap
     ethr =  1.04E-07,  avg # of iterations =  1.0

     total cpu time spent up to now is       65.8 secs

     total energy              =     -19.00843061 Ry
     estimated scf accuracy    <       0.00001049 Ry

     iteration # 23     ecut=    50.00 Ry     beta= 0.01
     Davidson diagonalization with overlap
     ethr =  1.04E-07,  avg # of iterations =  2.0

     total cpu time spent up to now is       67.2 secs

     End of self-consistent calculation

          k = 0.0000 0.0000 0.0000 (  1591 PWs)   bands (ev):

    -8.9939   2.6733   2.9526   2.9526

          k =-0.1000 0.1000-0.1000 (  1570 PWs)   bands (ev):

    -8.8810   1.3491   2.8487   2.8487

          k =-0.2000 0.2000-0.2000 (  1576 PWs)   bands (ev):

    -8.5544  -0.1904   2.6083   2.6083

          k =-0.3000 0.3000-0.3000 (  1600 PWs)   bands (ev):

    -8.0601  -1.6353   2.3573   2.3573

          k =-0.4000 0.4000-0.4000 (  1586 PWs)   bands (ev):

    -7.5272  -2.7691   2.1841   2.1841

          k = 0.5000-0.5000 0.5000 (  1568 PWs)   bands (ev):

    -7.2631  -3.2378   2.1232   2.1232

          k = 0.0000 0.2000 0.0000 (  1571 PWs)   bands (ev):

    -8.8432   1.2379   2.6462   2.6462

          k =-0.1000 0.3000-0.1000 (  1575 PWs)   bands (ev):

    -8.5866   0.1035   2.3540   2.3880

          k =-0.2000 0.4000-0.2000 (  1584 PWs)   bands (ev):

    -8.1434  -1.2503   2.0390   2.1014

          k =-0.3000 0.5000-0.3000 (  1590 PWs)   bands (ev):

    -7.6059  -2.4502   1.6969   1.9630

          k = 0.6000-0.4000 0.6000 (  1581 PWs)   bands (ev):

    -7.2135  -3.1584   1.4631   1.9658

          k = 0.5000-0.3000 0.5000 (  1585 PWs)   bands (ev):

    -7.3062  -3.0000   1.3875   2.1028

          k = 0.4000-0.2000 0.4000 (  1586 PWs)   bands (ev):

    -7.7876  -2.0812   1.4946   2.3440

          k = 0.3000-0.1000 0.3000 (  1585 PWs)   bands (ev):

    -8.3101  -0.8134   1.7977   2.6256

          k = 0.2000 0.0000 0.2000 (  1568 PWs)   bands (ev):

    -8.6964   0.4654   2.3050   2.8368

          k = 0.0000 0.4000 0.0000 (  1571 PWs)   bands (ev):

    -8.4029  -0.2916   2.0160   2.0160

          k =-0.1000 0.5000-0.1000 (  1591 PWs)   bands (ev):

    -8.0250  -1.2252   1.6004   1.7345

          k =-0.2000 0.6000-0.2000 (  1598 PWs)   bands (ev):

    -7.5200  -2.2523   1.0588   1.5895

          k = 0.7000-0.3000 0.7000 (  1587 PWs)   bands (ev):

    -7.0654  -3.0201   0.6084   1.6066

          k = 0.6000-0.2000 0.6000 (  1572 PWs)   bands (ev):

    -6.9913  -3.1300   0.3770   1.7811

          k = 0.5000-0.1000 0.5000 (  1583 PWs)   bands (ev):

    -7.3716  -2.5218   0.4453   2.0727

          k = 0.4000 0.0000 0.4000 (  1580 PWs)   bands (ev):

    -7.8861  -1.6262   0.9124   2.4002

          k = 0.0000 0.6000 0.0000 (  1588 PWs)   bands (ev):

    -7.7181  -1.7398   1.4189   1.4189

          k =-0.1000 0.7000-0.1000 (  1592 PWs)   bands (ev):

    -7.2753  -2.4750   0.9596   1.2405

          k = 0.8000-0.2000 0.8000 (  1597 PWs)   bands (ev):

    -6.8344  -3.0933   0.3114   1.2349

          k = 0.7000-0.1000 0.7000 (  1587 PWs)   bands (ev):

    -6.6667  -3.2904  -0.1387   1.4029

          k = 0.6000-0.0000 0.6000 (  1582 PWs)   bands (ev):

    -6.9211  -2.9872  -0.1431   1.7093

          k = 0.0000 0.8000 0.0000 (  1604 PWs)   bands (ev):

    -6.9208  -2.9905   1.0198   1.0198

          k = 0.9000-0.1000 0.9000 (  1596 PWs)   bands (ev):

    -6.5854  -3.4130   0.6128   0.9742

          k = 0.8000 0.0000 0.8000 (  1596 PWs)   bands (ev):

    -6.4787  -3.4867   0.0363   1.1105

          k = 0.0000-1.0000 0.0000 (  1588 PWs)   bands (ev):

    -6.4662  -3.5955   0.8820   0.8820

          k =-0.2000 0.4000 0.0000 (  1583 PWs)   bands (ev):

    -8.2693  -0.7574   1.6290   2.3062

          k =-0.3000 0.5000-0.1000 (  1582 PWs)   bands (ev):

    -7.7910  -1.8240   1.0847   2.0562

          k = 0.6000-0.4000 0.8000 (  1587 PWs)   bands (ev):

    -7.2793  -2.7734   0.7899   1.8154

          k = 0.5000-0.3000 0.7000 (  1578 PWs)   bands (ev):

    -7.0277  -3.1837   0.6995   1.7206

          k =-0.2000 0.6000 0.0000 (  1587 PWs)   bands (ev):

    -7.6115  -1.9688   1.0245   1.5385

          k = 0.7000-0.3000 0.9000 (  1594 PWs)   bands (ev):

    -7.1232  -2.7307   0.4921   1.3097

          k = 0.6000-0.2000 0.8000 (  1585 PWs)   bands (ev):

    -6.7864  -3.1994   0.1220   1.2685

          k = 0.5000-0.1000 0.7000 (  1578 PWs)   bands (ev):

    -6.8837  -3.0636   0.0298   1.4460

          k = 0.4000 0.0000 0.6000 (  1590 PWs)   bands (ev):

    -7.3175  -2.4771   0.3333   1.7628

          k = 0.8000-0.2000 1.0000 (  1593 PWs)   bands (ev):

    -6.8628  -3.0324   0.6663   0.9321

          k = 0.7000-0.1000 0.9000 (  1592 PWs)   bands (ev):

    -6.5535  -3.3765   0.1454   0.8616

          k = 0.6000 0.0000 0.8000 (  1590 PWs)   bands (ev):

    -6.5702  -3.3368  -0.1830   1.0744

          k =-0.2000-1.0000 0.0000 (  1594 PWs)   bands (ev):

    -6.4521  -3.5458   0.6220   0.6348

          k = 0.6000-0.2000 1.0000 (  1586 PWs)   bands (ev):

    -6.7201  -3.1603   0.0904   0.9007

          k = 0.5000-0.1000 0.9000 (  1592 PWs)   bands (ev):

    -6.5333  -3.3545  -0.0348   0.7090

          k =-0.4000-1.0000 0.0000 (  1598 PWs)   bands (ev):

    -6.4288  -3.4586   0.2494   0.3098

     highest occupied level (ev):     2.9526

!    total energy              =     -19.00843152 Ry
     estimated scf accuracy    <       0.00000009 Ry

     The total energy is the sum of the following terms:
     one-electron contribution =       0.29243077 Ry
     hartree contribution      =       2.90540921 Ry
     xc contribution           =      -5.31400027 Ry
     ewald contribution        =     -16.89227124 Ry

     convergence has been achieved in  23 iterations
     Writing meta-gga kinetic term

     Writing all to output data dir ./input_pw/SiC/15/pwscf.save/
     Writing meta-gga kinetic term
 
     init_run     :      2.91s CPU      6.20s WALL (       1 calls)
     electrons    :     41.68s CPU     60.85s WALL (       1 calls)

     Called by init_run:
     wfcinit      :      2.76s CPU      5.83s WALL (       1 calls)
     potinit      :      0.04s CPU      0.07s WALL (       1 calls)
     hinit0       :      0.09s CPU      0.22s WALL (       1 calls)

     Called by electrons:
     c_bands      :     33.09s CPU     48.69s WALL (      23 calls)
     sum_band     :      7.67s CPU     10.80s WALL (      23 calls)
     v_of_rho     :      0.56s CPU      0.87s WALL (      24 calls)
     mix_rho      :      0.38s CPU      0.53s WALL (      23 calls)

     Called by c_bands:
     init_us_2    :      0.33s CPU      0.43s WALL (    2209 calls)
     init_us_2:cp :      0.32s CPU      0.42s WALL (    2209 calls)
     cegterg      :     32.79s CPU     48.34s WALL (    1081 calls)

     Called by *egterg:
     cdiaghg      :      0.10s CPU      0.20s WALL (    2739 calls)
     h_psi        :     35.01s CPU     53.33s WALL (    2786 calls)
     g_psi        :      0.02s CPU      0.02s WALL (    1658 calls)

     Called by h_psi:
     h_psi:calbec :      0.08s CPU      0.17s WALL (    2786 calls)
     vloc_psi     :      8.67s CPU     13.26s WALL (    2786 calls)
     add_vuspsi   :      0.08s CPU      0.10s WALL (    2786 calls)
     h_psi_meta   :     26.14s CPU     39.72s WALL (    2786 calls)

     General routines
     calbec       :      0.07s CPU      0.16s WALL (    2786 calls)
     fft          :      0.11s CPU      0.21s WALL (     285 calls)
     ffts         :      0.19s CPU      0.25s WALL (     504 calls)
     fftw         :     37.83s CPU     56.87s WALL (  101840 calls)
     interpolate  :      0.00s CPU      0.00s WALL (      24 calls)
 
     Parallel routines
 
     PWSCF        :     44.64s CPU   1m 7.20s WALL

 
   This run was terminated on:  12:57:11  29Mar2023            

=------------------------------------------------------------------------------=
   JOB DONE.
=------------------------------------------------------------------------------=
