
     Program PWSCF v.7.0 starts on 14Mar2023 at 12: 2:31 

     This program is part of the open-source Quantum ESPRESSO suite
     for quantum simulation of materials; please cite
         "P. Giannozzi et al., J. Phys.:Condens. Matter 21 395502 (2009);
         "P. Giannozzi et al., J. Phys.:Condens. Matter 29 465901 (2017);
         "P. Giannozzi et al., J. Chem. Phys. 152 154105 (2020);
          URL http://www.quantum-espresso.org", 
     in publications or presentations arising from this work. More details at
     http://www.quantum-espresso.org/quote

     Parallel version (MPI), running on     1 processors

     MPI processes distributed on     1 nodes
     27115 MiB available memory on the printing compute node when the environment starts
 
     Waiting for input...
     Reading input from standard input
Warning: card &CELL ignored
Warning: card / ignored

     Current dimensions of program PWSCF are:
     Max number of different atomic species (ntypx) = 10
     Max number of k-points (npk) =  40000
     Max angular momentum in pseudopotentials (lmaxx) =  4
     file Si.SCAN.UPF2: wavefunction(s)  0D renormalized

     WARNING: the MGGA functional with ID    5 has been 
     read together with other dft terms, but it should 
     stand alone in order to work properly. The other 
     terms will be ignored.

     WARNING: the MGGA functional with ID    5 has been 
     read together with other dft terms, but it should 
     stand alone in order to work properly. The other 
     terms will be ignored.

     Subspace diagonalization in iterative solution of the eigenvalue problem:
     a serial algorithm will be used

 
     G-vector sticks info
     --------------------
     sticks:   dense  smooth     PW     G-vecs:    dense   smooth      PW
     Sum         931     931    283                18763    18763    3119
 
     Using Slab Decomposition
 


     bravais-lattice index     =            2
     lattice parameter (alat)  =      11.6190  a.u.
     unit-cell volume          =     392.1446 (a.u.)^3
     number of atoms/cell      =            2
     number of atomic types    =            2
     number of electrons       =         8.00
     number of Kohn-Sham states=            4
     kinetic-energy cutoff     =      50.0000  Ry
     charge density cutoff     =     200.0000  Ry
     scf convergence threshold =      1.0E-06
     mixing beta               =       0.0100
     number of iterations used =            8  local-TF  mixing
     Exchange-correlation= SLA  PW   SCAN SCAN
                           (   0   0   0   0   0 263 267)

     celldm(1)=  11.619000  celldm(2)=   0.000000  celldm(3)=   0.000000
     celldm(4)=   0.000000  celldm(5)=   0.000000  celldm(6)=   0.000000

     crystal axes: (cart. coord. in units of alat)
               a(1) = (  -0.500000   0.000000   0.500000 )  
               a(2) = (   0.000000   0.500000   0.500000 )  
               a(3) = (  -0.500000   0.500000   0.000000 )  

     reciprocal axes: (cart. coord. in units 2 pi/alat)
               b(1) = ( -1.000000 -1.000000  1.000000 )  
               b(2) = (  1.000000  1.000000  1.000000 )  
               b(3) = ( -1.000000  1.000000 -1.000000 )  


     PseudoPot. # 1 for Si read from file:
     ~/Documents/TA/PWDFT.jl/pseudopotentials/scan_upf/Si.SCAN.UPF2
     MD5 check sum: Not computed, couldn't open file
     Pseudo is Norm-conserving, Zval =  4.0
     Generated by new atomic code, or converted to UPF format
     Using radial grid of 1475 points,  2 beta functions with: 
                l(1) =   0
                l(2) =   1

     PseudoPot. # 2 for C  read from file:
     ~/Documents/TA/PWDFT.jl/pseudopotentials/scan_upf/C.SCAN.UPF2
     MD5 check sum: Not computed, couldn't open file
     Pseudo is Norm-conserving, Zval =  4.0
     Generated by new atomic code, or converted to UPF format
     Using radial grid of 1389 points,  1 beta functions with: 
                l(1) =   0

     atomic species   valence    mass     pseudopotential
        Si             4.00    28.08550     Si( 1.00)
        C              4.00    12.01100     C ( 1.00)

     24 Sym. Ops. (no inversion) found



   Cartesian axes

     site n.     atom                  positions (alat units)
         1           Si  tau(   1) = (   0.0000000   0.0000000   0.0000000  )
         2           C   tau(   2) = (   0.2500000   0.2500000   0.2500000  )

     number of k points=    47
                       cart. coord. in units 2pi/alat
        k(    1) = (   0.0000000   0.0000000   0.0000000), wk =   0.0020000
        k(    2) = (  -0.1000000   0.1000000  -0.1000000), wk =   0.0160000
        k(    3) = (  -0.2000000   0.2000000  -0.2000000), wk =   0.0160000
        k(    4) = (  -0.3000000   0.3000000  -0.3000000), wk =   0.0160000
        k(    5) = (  -0.4000000   0.4000000  -0.4000000), wk =   0.0160000
        k(    6) = (   0.5000000  -0.5000000   0.5000000), wk =   0.0080000
        k(    7) = (   0.0000000   0.2000000   0.0000000), wk =   0.0120000
        k(    8) = (  -0.1000000   0.3000000  -0.1000000), wk =   0.0480000
        k(    9) = (  -0.2000000   0.4000000  -0.2000000), wk =   0.0480000
        k(   10) = (  -0.3000000   0.5000000  -0.3000000), wk =   0.0480000
        k(   11) = (   0.6000000  -0.4000000   0.6000000), wk =   0.0480000
        k(   12) = (   0.5000000  -0.3000000   0.5000000), wk =   0.0480000
        k(   13) = (   0.4000000  -0.2000000   0.4000000), wk =   0.0480000
        k(   14) = (   0.3000000  -0.1000000   0.3000000), wk =   0.0480000
        k(   15) = (   0.2000000   0.0000000   0.2000000), wk =   0.0240000
        k(   16) = (   0.0000000   0.4000000   0.0000000), wk =   0.0120000
        k(   17) = (  -0.1000000   0.5000000  -0.1000000), wk =   0.0480000
        k(   18) = (  -0.2000000   0.6000000  -0.2000000), wk =   0.0480000
        k(   19) = (   0.7000000  -0.3000000   0.7000000), wk =   0.0480000
        k(   20) = (   0.6000000  -0.2000000   0.6000000), wk =   0.0480000
        k(   21) = (   0.5000000  -0.1000000   0.5000000), wk =   0.0480000
        k(   22) = (   0.4000000   0.0000000   0.4000000), wk =   0.0240000
        k(   23) = (   0.0000000   0.6000000   0.0000000), wk =   0.0120000
        k(   24) = (  -0.1000000   0.7000000  -0.1000000), wk =   0.0480000
        k(   25) = (   0.8000000  -0.2000000   0.8000000), wk =   0.0480000
        k(   26) = (   0.7000000  -0.1000000   0.7000000), wk =   0.0480000
        k(   27) = (   0.6000000  -0.0000000   0.6000000), wk =   0.0240000
        k(   28) = (   0.0000000   0.8000000   0.0000000), wk =   0.0120000
        k(   29) = (   0.9000000  -0.1000000   0.9000000), wk =   0.0480000
        k(   30) = (   0.8000000   0.0000000   0.8000000), wk =   0.0240000
        k(   31) = (   0.0000000  -1.0000000   0.0000000), wk =   0.0060000
        k(   32) = (  -0.2000000   0.4000000   0.0000000), wk =   0.0480000
        k(   33) = (  -0.3000000   0.5000000  -0.1000000), wk =   0.0960000
        k(   34) = (   0.6000000  -0.4000000   0.8000000), wk =   0.0960000
        k(   35) = (   0.5000000  -0.3000000   0.7000000), wk =   0.0480000
        k(   36) = (  -0.2000000   0.6000000   0.0000000), wk =   0.0480000
        k(   37) = (   0.7000000  -0.3000000   0.9000000), wk =   0.0960000
        k(   38) = (   0.6000000  -0.2000000   0.8000000), wk =   0.0960000
        k(   39) = (   0.5000000  -0.1000000   0.7000000), wk =   0.0960000
        k(   40) = (   0.4000000   0.0000000   0.6000000), wk =   0.0480000
        k(   41) = (   0.8000000  -0.2000000   1.0000000), wk =   0.0480000
        k(   42) = (   0.7000000  -0.1000000   0.9000000), wk =   0.0960000
        k(   43) = (   0.6000000   0.0000000   0.8000000), wk =   0.0480000
        k(   44) = (  -0.2000000  -1.0000000   0.0000000), wk =   0.0240000
        k(   45) = (   0.6000000  -0.2000000   1.0000000), wk =   0.0480000
        k(   46) = (   0.5000000  -0.1000000   0.9000000), wk =   0.0480000
        k(   47) = (  -0.4000000  -1.0000000   0.0000000), wk =   0.0240000

     Dense  grid:    18763 G-vectors     FFT dimensions: (  40,  40,  40)

     Estimated max dynamical RAM per process >      36.39 MB

     WARNING: libxc functional with ID  263 depends
      on external parameters: check the user_guide of
      QE if you need to modify them or to check their
      default values.

     Initial potential from superposition of free atoms

     starting charge       7.9995, renormalised to       8.0000
     Starting wfcs are   13 randomized atomic wfcs

     total cpu time spent up to now is        9.6 secs

     Self-consistent Calculation

     iteration #  1     ecut=    50.00 Ry     beta= 0.01
     Davidson diagonalization with overlap
     ethr =  1.00E-02,  avg # of iterations =  1.0

     total cpu time spent up to now is       16.8 secs

     total energy              =     -18.76964691 Ry
     estimated scf accuracy    <       0.73498721 Ry

     iteration #  2     ecut=    50.00 Ry     beta= 0.01
     Davidson diagonalization with overlap
     ethr =  9.19E-03,  avg # of iterations =  1.0

     total cpu time spent up to now is       23.9 secs

     total energy              =     -18.73608737 Ry
     estimated scf accuracy    <       0.72460924 Ry

     iteration #  3     ecut=    50.00 Ry     beta= 0.01
     Davidson diagonalization with overlap
     ethr =  9.06E-03,  avg # of iterations =  1.0

     total cpu time spent up to now is       31.6 secs

     total energy              =     -18.74127672 Ry
     estimated scf accuracy    <       0.10349708 Ry

     iteration #  4     ecut=    50.00 Ry     beta= 0.01
     Davidson diagonalization with overlap
     ethr =  1.29E-03,  avg # of iterations =  2.0

     total cpu time spent up to now is       40.6 secs

     total energy              =     -18.75707537 Ry
     estimated scf accuracy    <       0.02210415 Ry

     iteration #  5     ecut=    50.00 Ry     beta= 0.01
     Davidson diagonalization with overlap
     ethr =  2.76E-04,  avg # of iterations =  2.8

     total cpu time spent up to now is       50.4 secs

     total energy              =     -18.76206075 Ry
     estimated scf accuracy    <       0.05088361 Ry

     iteration #  6     ecut=    50.00 Ry     beta= 0.01
     Davidson diagonalization with overlap
     ethr =  2.76E-04,  avg # of iterations =  1.0

     total cpu time spent up to now is       57.3 secs

     total energy              =     -18.76991527 Ry
     estimated scf accuracy    <       0.05803546 Ry

     iteration #  7     ecut=    50.00 Ry     beta= 0.01
     Davidson diagonalization with overlap
     ethr =  2.76E-04,  avg # of iterations =  2.4

     total cpu time spent up to now is       64.3 secs

     total energy              =     -18.77829233 Ry
     estimated scf accuracy    <       0.07658071 Ry

     iteration #  8     ecut=    50.00 Ry     beta= 0.01
     Davidson diagonalization with overlap
     ethr =  2.76E-04,  avg # of iterations =  1.7

     total cpu time spent up to now is       68.9 secs

     total energy              =     -18.78004467 Ry
     estimated scf accuracy    <       0.12120323 Ry

     iteration #  9     ecut=    50.00 Ry     beta= 0.01
     Davidson diagonalization with overlap
     ethr =  2.76E-04,  avg # of iterations =  1.0

     total cpu time spent up to now is       73.7 secs

     total energy              =     -18.78047122 Ry
     estimated scf accuracy    <       0.13428240 Ry

     iteration # 10     ecut=    50.00 Ry     beta= 0.01
     Davidson diagonalization with overlap
     ethr =  2.76E-04,  avg # of iterations =  1.0

     total cpu time spent up to now is       77.7 secs

     total energy              =     -18.77998484 Ry
     estimated scf accuracy    <       0.14389297 Ry

     iteration # 11     ecut=    50.00 Ry     beta= 0.01
     Davidson diagonalization with overlap
     ethr =  2.76E-04,  avg # of iterations =  1.0

     total cpu time spent up to now is       81.4 secs

     total energy              =     -18.78624600 Ry
     estimated scf accuracy    <       0.14956096 Ry

     iteration # 12     ecut=    50.00 Ry     beta= 0.01
     Davidson diagonalization with overlap
     ethr =  2.76E-04,  avg # of iterations =  1.0

     total cpu time spent up to now is       84.9 secs

     total energy              =     -18.78666533 Ry
     estimated scf accuracy    <       0.19121653 Ry

     iteration # 13     ecut=    50.00 Ry     beta= 0.01
     Davidson diagonalization with overlap
     ethr =  2.76E-04,  avg # of iterations =  1.0

     total cpu time spent up to now is       87.9 secs

     total energy              =     -18.78828410 Ry
     estimated scf accuracy    <       0.19855740 Ry

     iteration # 14     ecut=    50.00 Ry     beta= 0.01
     Davidson diagonalization with overlap
     ethr =  2.76E-04,  avg # of iterations =  1.0

     total cpu time spent up to now is       90.0 secs

     total energy              =     -18.78759848 Ry
     estimated scf accuracy    <       0.21134468 Ry

     iteration # 15     ecut=    50.00 Ry     beta= 0.01
     Davidson diagonalization with overlap
     ethr =  2.76E-04,  avg # of iterations =  1.0

     total cpu time spent up to now is       92.0 secs

     total energy              =     -18.77308507 Ry
     estimated scf accuracy    <       0.21253892 Ry

     iteration # 16     ecut=    50.00 Ry     beta= 0.01
     Davidson diagonalization with overlap
     ethr =  2.76E-04,  avg # of iterations =  1.0

     total cpu time spent up to now is       94.3 secs

     total energy              =     -18.77339750 Ry
     estimated scf accuracy    <       0.14071031 Ry

     iteration # 17     ecut=    50.00 Ry     beta= 0.01
     Davidson diagonalization with overlap
     ethr =  2.76E-04,  avg # of iterations =  1.0

     total cpu time spent up to now is       97.3 secs

     total energy              =     -18.76616607 Ry
     estimated scf accuracy    <       0.13149002 Ry

     iteration # 18     ecut=    50.00 Ry     beta= 0.01
     Davidson diagonalization with overlap
     ethr =  2.76E-04,  avg # of iterations =  1.1

     total cpu time spent up to now is      100.3 secs

     total energy              =     -18.75796339 Ry
     estimated scf accuracy    <       0.07864026 Ry

     iteration # 19     ecut=    50.00 Ry     beta= 0.01
     Davidson diagonalization with overlap
     ethr =  2.76E-04,  avg # of iterations =  2.4

     total cpu time spent up to now is      103.7 secs

     total energy              =     -18.76586150 Ry
     estimated scf accuracy    <       0.01446184 Ry

     iteration # 20     ecut=    50.00 Ry     beta= 0.01
     Davidson diagonalization with overlap
     ethr =  1.81E-04,  avg # of iterations =  1.2

     total cpu time spent up to now is      106.0 secs

     total energy              =     -18.77548333 Ry
     estimated scf accuracy    <       0.03315311 Ry

     iteration # 21     ecut=    50.00 Ry     beta= 0.01
     Davidson diagonalization with overlap
     ethr =  1.81E-04,  avg # of iterations =  2.4

     total cpu time spent up to now is      108.6 secs

     total energy              =     -18.76493540 Ry
     estimated scf accuracy    <       0.13121190 Ry

     iteration # 22     ecut=    50.00 Ry     beta= 0.01
     Davidson diagonalization with overlap
     ethr =  1.81E-04,  avg # of iterations =  1.9

     total cpu time spent up to now is      110.7 secs

     total energy              =     -18.76432948 Ry
     estimated scf accuracy    <       0.06583763 Ry

     iteration # 23     ecut=    50.00 Ry     beta= 0.01
     Davidson diagonalization with overlap
     ethr =  1.81E-04,  avg # of iterations =  1.0

     total cpu time spent up to now is      112.9 secs

     total energy              =     -18.76015481 Ry
     estimated scf accuracy    <       0.04716436 Ry

     iteration # 24     ecut=    50.00 Ry     beta= 0.01
     Davidson diagonalization with overlap
     ethr =  1.81E-04,  avg # of iterations =  2.2

     total cpu time spent up to now is      116.6 secs

     total energy              =     -18.76041118 Ry
     estimated scf accuracy    <       0.01666172 Ry

     iteration # 25     ecut=    50.00 Ry     beta= 0.01
     Davidson diagonalization with overlap
     ethr =  1.81E-04,  avg # of iterations =  1.3

     total cpu time spent up to now is      119.6 secs

     total energy              =     -18.76153329 Ry
     estimated scf accuracy    <       0.00469675 Ry

     iteration # 26     ecut=    50.00 Ry     beta= 0.01
     Davidson diagonalization with overlap
     ethr =  5.87E-05,  avg # of iterations =  1.1

     total cpu time spent up to now is      122.6 secs

     total energy              =     -18.76336955 Ry
     estimated scf accuracy    <       0.00474731 Ry

     iteration # 27     ecut=    50.00 Ry     beta= 0.01
     Davidson diagonalization with overlap
     ethr =  5.87E-05,  avg # of iterations =  1.8

     total cpu time spent up to now is      126.0 secs

     total energy              =     -18.76443009 Ry
     estimated scf accuracy    <       0.01669872 Ry

     iteration # 28     ecut=    50.00 Ry     beta= 0.01
     Davidson diagonalization with overlap
     ethr =  5.87E-05,  avg # of iterations =  1.0

     total cpu time spent up to now is      129.0 secs

     total energy              =     -18.76457892 Ry
     estimated scf accuracy    <       0.02258580 Ry

     iteration # 29     ecut=    50.00 Ry     beta= 0.01
     Davidson diagonalization with overlap
     ethr =  5.87E-05,  avg # of iterations =  1.0

     total cpu time spent up to now is      132.1 secs

     total energy              =     -18.76566481 Ry
     estimated scf accuracy    <       0.02302458 Ry

     iteration # 30     ecut=    50.00 Ry     beta= 0.01
     Davidson diagonalization with overlap
     ethr =  5.87E-05,  avg # of iterations =  1.0

     total cpu time spent up to now is      135.2 secs

     total energy              =     -18.76350168 Ry
     estimated scf accuracy    <       0.03344004 Ry

     iteration # 31     ecut=    50.00 Ry     beta= 0.01
     Davidson diagonalization with overlap
     ethr =  5.87E-05,  avg # of iterations =  1.0

     total cpu time spent up to now is      138.2 secs

     total energy              =     -18.76205841 Ry
     estimated scf accuracy    <       0.02687906 Ry

     iteration # 32     ecut=    50.00 Ry     beta= 0.01
     Davidson diagonalization with overlap
     ethr =  5.87E-05,  avg # of iterations =  1.9

     total cpu time spent up to now is      141.6 secs

     total energy              =     -18.76238349 Ry
     estimated scf accuracy    <       0.01407105 Ry

     iteration # 33     ecut=    50.00 Ry     beta= 0.01
     Davidson diagonalization with overlap
     ethr =  5.87E-05,  avg # of iterations =  1.0

     total cpu time spent up to now is      144.7 secs

     total energy              =     -18.76169233 Ry
     estimated scf accuracy    <       0.01282774 Ry

     iteration # 34     ecut=    50.00 Ry     beta= 0.01
     Davidson diagonalization with overlap
     ethr =  5.87E-05,  avg # of iterations =  1.0

     total cpu time spent up to now is      147.8 secs

     total energy              =     -18.76113587 Ry
     estimated scf accuracy    <       0.00718148 Ry

     iteration # 35     ecut=    50.00 Ry     beta= 0.01
     Davidson diagonalization with overlap
     ethr =  5.87E-05,  avg # of iterations =  1.0

     total cpu time spent up to now is      150.8 secs

     total energy              =     -18.76138545 Ry
     estimated scf accuracy    <       0.00347197 Ry

     iteration # 36     ecut=    50.00 Ry     beta= 0.01
     Davidson diagonalization with overlap
     ethr =  4.34E-05,  avg # of iterations =  1.0

     total cpu time spent up to now is      153.7 secs

     total energy              =     -18.76160932 Ry
     estimated scf accuracy    <       0.00285425 Ry

     iteration # 37     ecut=    50.00 Ry     beta= 0.01
     Davidson diagonalization with overlap
     ethr =  3.57E-05,  avg # of iterations =  1.0

     total cpu time spent up to now is      156.7 secs

     total energy              =     -18.76242329 Ry
     estimated scf accuracy    <       0.00273524 Ry

     iteration # 38     ecut=    50.00 Ry     beta= 0.01
     Davidson diagonalization with overlap
     ethr =  3.42E-05,  avg # of iterations =  1.0

     total cpu time spent up to now is      159.6 secs

     total energy              =     -18.76232637 Ry
     estimated scf accuracy    <       0.00762936 Ry

     iteration # 39     ecut=    50.00 Ry     beta= 0.01
     Davidson diagonalization with overlap
     ethr =  3.42E-05,  avg # of iterations =  1.0

     total cpu time spent up to now is      162.6 secs

     total energy              =     -18.75992296 Ry
     estimated scf accuracy    <       0.00750109 Ry

     iteration # 40     ecut=    50.00 Ry     beta= 0.01
     Davidson diagonalization with overlap
     ethr =  3.42E-05,  avg # of iterations =  4.4

     total cpu time spent up to now is      167.6 secs

     total energy              =     -18.76254672 Ry
     estimated scf accuracy    <       0.02462937 Ry

     iteration # 41     ecut=    50.00 Ry     beta= 0.01
     Davidson diagonalization with overlap
     ethr =  3.42E-05,  avg # of iterations =  1.4

     total cpu time spent up to now is      169.4 secs

     total energy              =     -18.76269304 Ry
     estimated scf accuracy    <       0.01338599 Ry

     iteration # 42     ecut=    50.00 Ry     beta= 0.01
     Davidson diagonalization with overlap
     ethr =  3.42E-05,  avg # of iterations =  1.0

     total cpu time spent up to now is      171.2 secs

     total energy              =     -18.76334755 Ry
     estimated scf accuracy    <       0.01120978 Ry

     iteration # 43     ecut=    50.00 Ry     beta= 0.01
     Davidson diagonalization with overlap
     ethr =  3.42E-05,  avg # of iterations =  1.0

     total cpu time spent up to now is      173.2 secs

     total energy              =     -18.76313746 Ry
     estimated scf accuracy    <       0.01372140 Ry

     iteration # 44     ecut=    50.00 Ry     beta= 0.01
     Davidson diagonalization with overlap
     ethr =  3.42E-05,  avg # of iterations =  1.0

     total cpu time spent up to now is      175.0 secs

     total energy              =     -18.76225394 Ry
     estimated scf accuracy    <       0.01248978 Ry

     iteration # 45     ecut=    50.00 Ry     beta= 0.01
     Davidson diagonalization with overlap
     ethr =  3.42E-05,  avg # of iterations =  1.0

     total cpu time spent up to now is      176.8 secs

     total energy              =     -18.76098472 Ry
     estimated scf accuracy    <       0.00707147 Ry

     iteration # 46     ecut=    50.00 Ry     beta= 0.01
     Davidson diagonalization with overlap
     ethr =  3.42E-05,  avg # of iterations =  2.0

     total cpu time spent up to now is      179.1 secs

     total energy              =     -18.76151765 Ry
     estimated scf accuracy    <       0.00024239 Ry

     iteration # 47     ecut=    50.00 Ry     beta= 0.01
     Davidson diagonalization with overlap
     ethr =  3.03E-06,  avg # of iterations =  3.3

     total cpu time spent up to now is      182.1 secs

     total energy              =     -18.76161510 Ry
     estimated scf accuracy    <       0.00002461 Ry

     iteration # 48     ecut=    50.00 Ry     beta= 0.01
     Davidson diagonalization with overlap
     ethr =  3.08E-07,  avg # of iterations =  3.9

     total cpu time spent up to now is      185.0 secs

     total energy              =     -18.76167281 Ry
     estimated scf accuracy    <       0.00006574 Ry

     iteration # 49     ecut=    50.00 Ry     beta= 0.01
     Davidson diagonalization with overlap
     ethr =  3.08E-07,  avg # of iterations =  5.0

     total cpu time spent up to now is      188.5 secs

     total energy              =     -18.76154814 Ry
     estimated scf accuracy    <       0.00095135 Ry

     iteration # 50     ecut=    50.00 Ry     beta= 0.01
     Davidson diagonalization with overlap
     ethr =  3.08E-07,  avg # of iterations =  5.2

     total cpu time spent up to now is      192.2 secs

     total energy              =     -18.76162448 Ry
     estimated scf accuracy    <       0.00000824 Ry

     iteration # 51     ecut=    50.00 Ry     beta= 0.01
     Davidson diagonalization with overlap
     ethr =  1.03E-07,  avg # of iterations =  3.7

     total cpu time spent up to now is      194.9 secs

     total energy              =     -18.76162288 Ry
     estimated scf accuracy    <       0.00002873 Ry

     iteration # 52     ecut=    50.00 Ry     beta= 0.01
     Davidson diagonalization with overlap
     ethr =  1.03E-07,  avg # of iterations =  2.6

     total cpu time spent up to now is      197.2 secs

     total energy              =     -18.76161959 Ry
     estimated scf accuracy    <       0.00000676 Ry

     iteration # 53     ecut=    50.00 Ry     beta= 0.01
     Davidson diagonalization with overlap
     ethr =  8.45E-08,  avg # of iterations =  6.2

     total cpu time spent up to now is      201.2 secs

     total energy              =     -18.76178181 Ry
     estimated scf accuracy    <       0.00023227 Ry

     iteration # 54     ecut=    50.00 Ry     beta= 0.01
     Davidson diagonalization with overlap
     ethr =  8.45E-08,  avg # of iterations =  8.4

     total cpu time spent up to now is      206.2 secs

     total energy              =     -18.76184629 Ry
     estimated scf accuracy    <       0.00256067 Ry

     iteration # 55     ecut=    50.00 Ry     beta= 0.01
     Davidson diagonalization with overlap
     ethr =  8.45E-08,  avg # of iterations =  2.7

     total cpu time spent up to now is      208.4 secs

     total energy              =     -18.76160130 Ry
     estimated scf accuracy    <       0.00217830 Ry

     iteration # 56     ecut=    50.00 Ry     beta= 0.01
     Davidson diagonalization with overlap
     ethr =  8.45E-08,  avg # of iterations =  7.8

     total cpu time spent up to now is      213.1 secs

     total energy              =     -18.76162872 Ry
     estimated scf accuracy    <       0.00032826 Ry

     iteration # 57     ecut=    50.00 Ry     beta= 0.01
     Davidson diagonalization with overlap
     ethr =  8.45E-08,  avg # of iterations =  5.0

     total cpu time spent up to now is      216.4 secs

     total energy              =     -18.76163212 Ry
     estimated scf accuracy    <       0.00003548 Ry

     iteration # 58     ecut=    50.00 Ry     beta= 0.01
     Davidson diagonalization with overlap
     ethr =  8.45E-08,  avg # of iterations =  5.0

     total cpu time spent up to now is      219.9 secs

     total energy              =     -18.76163401 Ry
     estimated scf accuracy    <       0.00007565 Ry

     iteration # 59     ecut=    50.00 Ry     beta= 0.01
     Davidson diagonalization with overlap
     ethr =  8.45E-08,  avg # of iterations =  3.5

     total cpu time spent up to now is      222.5 secs

     total energy              =     -18.76163444 Ry
     estimated scf accuracy    <       0.00001182 Ry

     iteration # 60     ecut=    50.00 Ry     beta= 0.01
     Davidson diagonalization with overlap
     ethr =  8.45E-08,  avg # of iterations =  3.1

     total cpu time spent up to now is      224.9 secs

     total energy              =     -18.76166806 Ry
     estimated scf accuracy    <       0.00000494 Ry

     iteration # 61     ecut=    50.00 Ry     beta= 0.01
     Davidson diagonalization with overlap
     ethr =  6.18E-08,  avg # of iterations =  8.7

     total cpu time spent up to now is      229.9 secs

     total energy              =     -18.76157956 Ry
     estimated scf accuracy    <       0.00123789 Ry

     iteration # 62     ecut=    50.00 Ry     beta= 0.01
     Davidson diagonalization with overlap
     ethr =  6.18E-08,  avg # of iterations =  8.2

     total cpu time spent up to now is      234.6 secs

     total energy              =     -18.76164865 Ry
     estimated scf accuracy    <       0.00005169 Ry

     iteration # 63     ecut=    50.00 Ry     beta= 0.01
     Davidson diagonalization with overlap
     ethr =  6.18E-08,  avg # of iterations =  1.0

     total cpu time spent up to now is      236.0 secs

     total energy              =     -18.76163510 Ry
     estimated scf accuracy    <       0.00005739 Ry

     iteration # 64     ecut=    50.00 Ry     beta= 0.01
     Davidson diagonalization with overlap
     ethr =  6.18E-08,  avg # of iterations =  4.1

     total cpu time spent up to now is      238.8 secs

     total energy              =     -18.76164176 Ry
     estimated scf accuracy    <       0.00000131 Ry

     iteration # 65     ecut=    50.00 Ry     beta= 0.01
     Davidson diagonalization with overlap
     ethr =  1.63E-08,  avg # of iterations =  2.5

     total cpu time spent up to now is      240.7 secs

     total energy              =     -18.76164208 Ry
     estimated scf accuracy    <       0.00000151 Ry

     iteration # 66     ecut=    50.00 Ry     beta= 0.01
     Davidson diagonalization with overlap
     ethr =  1.63E-08,  avg # of iterations =  1.0

     total cpu time spent up to now is      242.2 secs

     total energy              =     -18.76164235 Ry
     estimated scf accuracy    <       0.00000208 Ry

     iteration # 67     ecut=    50.00 Ry     beta= 0.01
     Davidson diagonalization with overlap
     ethr =  1.63E-08,  avg # of iterations =  5.3

     total cpu time spent up to now is      245.3 secs

     total energy              =     -18.76164507 Ry
     estimated scf accuracy    <       0.00002490 Ry

     iteration # 68     ecut=    50.00 Ry     beta= 0.01
     Davidson diagonalization with overlap
     ethr =  1.63E-08,  avg # of iterations =  1.7

     total cpu time spent up to now is      247.0 secs

     total energy              =     -18.76164628 Ry
     estimated scf accuracy    <       0.00002111 Ry

     iteration # 69     ecut=    50.00 Ry     beta= 0.01
     Davidson diagonalization with overlap
     ethr =  1.63E-08,  avg # of iterations =  3.0

     total cpu time spent up to now is      249.3 secs

     total energy              =     -18.76164389 Ry
     estimated scf accuracy    <       0.00004055 Ry

     iteration # 70     ecut=    50.00 Ry     beta= 0.01
     Davidson diagonalization with overlap
     ethr =  1.63E-08,  avg # of iterations =  1.6

     total cpu time spent up to now is      251.0 secs

     total energy              =     -18.76163889 Ry
     estimated scf accuracy    <       0.00003534 Ry

     iteration # 71     ecut=    50.00 Ry     beta= 0.01
     Davidson diagonalization with overlap
     ethr =  1.63E-08,  avg # of iterations =  4.8

     total cpu time spent up to now is      254.0 secs

     total energy              =     -18.76164343 Ry
     estimated scf accuracy    <       0.00000331 Ry

     iteration # 72     ecut=    50.00 Ry     beta= 0.01
     Davidson diagonalization with overlap
     ethr =  1.63E-08,  avg # of iterations =  4.7

     total cpu time spent up to now is      256.9 secs

     total energy              =     -18.76163937 Ry
     estimated scf accuracy    <       0.00003410 Ry

     iteration # 73     ecut=    50.00 Ry     beta= 0.01
     Davidson diagonalization with overlap
     ethr =  1.63E-08,  avg # of iterations =  4.8

     total cpu time spent up to now is      259.9 secs

     total energy              =     -18.76164158 Ry
     estimated scf accuracy    <       0.00000163 Ry

     iteration # 74     ecut=    50.00 Ry     beta= 0.01
     Davidson diagonalization with overlap
     ethr =  1.63E-08,  avg # of iterations =  1.7

     total cpu time spent up to now is      261.5 secs

     total energy              =     -18.76164281 Ry
     estimated scf accuracy    <       0.00000114 Ry

     iteration # 75     ecut=    50.00 Ry     beta= 0.01
     Davidson diagonalization with overlap
     ethr =  1.42E-08,  avg # of iterations =  2.6

     total cpu time spent up to now is      263.5 secs

     total energy              =     -18.76164322 Ry
     estimated scf accuracy    <       0.00000204 Ry

     iteration # 76     ecut=    50.00 Ry     beta= 0.01
     Davidson diagonalization with overlap
     ethr =  1.42E-08,  avg # of iterations =  2.0

     total cpu time spent up to now is      265.6 secs

     End of self-consistent calculation

          k = 0.0000 0.0000 0.0000 (  2277 PWs)   bands (ev):

    -9.9141  -2.9038   0.4765   0.4765

          k =-0.1000 0.1000-0.1000 (  2334 PWs)   bands (ev):

    -9.8432  -3.1710   0.3950   0.3950

          k =-0.2000 0.2000-0.2000 (  2331 PWs)   bands (ev):

    -9.6410  -3.8058   0.2164   0.2164

          k =-0.3000 0.3000-0.3000 (  2355 PWs)   bands (ev):

    -9.3475  -4.5381   0.0288   0.0288

          k =-0.4000 0.4000-0.4000 (  2352 PWs)   bands (ev):

    -9.0545  -5.1380  -0.1026  -0.1026

          k = 0.5000-0.5000 0.5000 (  2362 PWs)   bands (ev):

    -8.9219  -5.3796  -0.1502  -0.1502

          k = 0.0000 0.2000 0.0000 (  2333 PWs)   bands (ev):

    -9.8192  -3.2468   0.2607   0.2607

          k =-0.1000 0.3000-0.1000 (  2336 PWs)   bands (ev):

    -9.6597  -3.7301   0.0256   0.0529

          k =-0.2000 0.4000-0.2000 (  2340 PWs)   bands (ev):

    -9.3931  -4.3978  -0.2927  -0.1331

          k =-0.3000 0.5000-0.3000 (  2350 PWs)   bands (ev):

    -9.0899  -5.0249  -0.5839  -0.2415

          k = 0.6000-0.4000 0.6000 (  2342 PWs)   bands (ev):

    -8.8886  -5.3880  -0.7604  -0.2502

          k = 0.5000-0.3000 0.5000 (  2344 PWs)   bands (ev):

    -8.9346  -5.3079  -0.7860  -0.1595

          k = 0.4000-0.2000 0.4000 (  2354 PWs)   bands (ev):

    -9.1901  -4.8305  -0.6511   0.0093

          k = 0.3000-0.1000 0.3000 (  2333 PWs)   bands (ev):

    -9.4925  -4.1688  -0.3655   0.2135

          k = 0.2000 0.0000 0.2000 (  2327 PWs)   bands (ev):

    -9.7279  -3.5412   0.0250   0.3729

          k = 0.0000 0.4000 0.0000 (  2345 PWs)   bands (ev):

    -9.5455  -4.0013  -0.1788  -0.1788

          k =-0.1000 0.5000-0.1000 (  2343 PWs)   bands (ev):

    -9.3177  -4.5050  -0.4928  -0.3783

          k =-0.2000 0.6000-0.2000 (  2337 PWs)   bands (ev):

    -9.0299  -5.0525  -0.8989  -0.4882

          k = 0.7000-0.3000 0.7000 (  2340 PWs)   bands (ev):

    -8.7938  -5.4467  -1.2235  -0.4861

          k = 0.6000-0.2000 0.6000 (  2351 PWs)   bands (ev):

    -8.7599  -5.4991  -1.3632  -0.3742

          k = 0.5000-0.1000 0.5000 (  2351 PWs)   bands (ev):

    -8.9548  -5.1848  -1.2703  -0.1770

          k = 0.4000 0.0000 0.4000 (  2347 PWs)   bands (ev):

    -9.2416  -4.6784  -0.9276   0.0498

          k = 0.0000 0.6000 0.0000 (  2361 PWs)   bands (ev):

    -9.1340  -4.8406  -0.5986  -0.5986

          k =-0.1000 0.7000-0.1000 (  2352 PWs)   bands (ev):

    -8.8842  -5.2612  -0.9056  -0.7267

          k = 0.8000-0.2000 0.8000 (  2338 PWs)   bands (ev):

    -8.6576  -5.5980  -1.3171  -0.7360

          k = 0.7000-0.1000 0.7000 (  2327 PWs)   bands (ev):

    -8.5827  -5.6970  -1.5915  -0.6261

          k = 0.6000-0.0000 0.6000 (  2329 PWs)   bands (ev):

    -8.7131  -5.5183  -1.5937  -0.4207

          k = 0.0000 0.8000 0.0000 (  2345 PWs)   bands (ev):

    -8.6907  -5.5575  -0.8803  -0.8803

          k = 0.9000-0.1000 0.9000 (  2341 PWs)   bands (ev):

    -8.5258  -5.7855  -1.1284  -0.9147

          k = 0.8000 0.0000 0.8000 (  2332 PWs)   bands (ev):

    -8.4821  -5.8291  -1.4652  -0.8236

          k = 0.0000-1.0000 0.0000 (  2346 PWs)   bands (ev):

    -8.4685  -5.8727  -0.9788  -0.9788

          k =-0.2000 0.4000 0.0000 (  2342 PWs)   bands (ev):

    -9.4660  -4.2040  -0.4432  -0.0239

          k =-0.3000 0.5000-0.1000 (  2338 PWs)   bands (ev):

    -9.1859  -4.7851  -0.8518  -0.1930

          k = 0.6000-0.4000 0.8000 (  2351 PWs)   bands (ev):

    -8.9082  -5.2833  -1.1156  -0.3471

          k = 0.5000-0.3000 0.7000 (  2342 PWs)   bands (ev):

    -8.7832  -5.4883  -1.2051  -0.4054

          k =-0.2000 0.6000 0.0000 (  2349 PWs)   bands (ev):

    -9.0765  -4.9489  -0.8579  -0.5253

          k = 0.7000-0.3000 0.9000 (  2343 PWs)   bands (ev):

    -8.8108  -5.3783  -1.2200  -0.6684

          k = 0.6000-0.2000 0.8000 (  2340 PWs)   bands (ev):

    -8.6447  -5.6218  -1.4670  -0.6946

          k = 0.5000-0.1000 0.7000 (  2334 PWs)   bands (ev):

    -8.6942  -5.5495  -1.5109  -0.5829

          k = 0.4000 0.0000 0.6000 (  2343 PWs)   bands (ev):

    -8.9201  -5.2150  -1.3044  -0.3799

          k = 0.8000-0.2000 1.0000 (  2343 PWs)   bands (ev):

    -8.6655  -5.5837  -1.0971  -0.9154

          k = 0.7000-0.1000 0.9000 (  2343 PWs)   bands (ev):

    -8.5177  -5.7759  -1.4028  -0.9619

          k = 0.6000 0.0000 0.8000 (  2338 PWs)   bands (ev):

    -8.5321  -5.7505  -1.5994  -0.8245

          k =-0.2000-1.0000 0.0000 (  2346 PWs)   bands (ev):

    -8.4649  -5.8594  -1.1182  -1.1161

          k = 0.6000-0.2000 1.0000 (  2320 PWs)   bands (ev):

    -8.6025  -5.6561  -1.4439  -0.9177

          k = 0.5000-0.1000 0.9000 (  2332 PWs)   bands (ev):

    -8.5126  -5.7699  -1.5129  -1.0371

          k =-0.4000-1.0000 0.0000 (  2340 PWs)   bands (ev):

    -8.4590  -5.8376  -1.3106  -1.3054

     highest occupied level (ev):     0.4765

!    total energy              =     -18.76164380 Ry
     estimated scf accuracy    <       0.00000049 Ry

     The total energy is the sum of the following terms:
     one-electron contribution =      -2.30963597 Ry
     hartree contribution      =       3.39036806 Ry
     xc contribution           =      -5.00654338 Ry
     ewald contribution        =     -14.83583249 Ry

     convergence has been achieved in  76 iterations
     Writing meta-gga kinetic term

     Writing all to output data dir ./input_pw/SiC/15/pwscf.save/
     Writing meta-gga kinetic term
 
     init_run     :      3.76s CPU      9.47s WALL (       1 calls)
     electrons    :    217.83s CPU    255.97s WALL (       1 calls)

     Called by init_run:
     wfcinit      :      3.60s CPU      8.95s WALL (       1 calls)
     potinit      :      0.05s CPU      0.18s WALL (       1 calls)
     hinit0       :      0.09s CPU      0.27s WALL (       1 calls)

     Called by electrons:
     c_bands      :    177.60s CPU    208.40s WALL (      76 calls)
     sum_band     :     35.29s CPU     41.68s WALL (      76 calls)
     v_of_rho     :      2.51s CPU      3.10s WALL (      77 calls)
     mix_rho      :      2.38s CPU      2.85s WALL (      76 calls)

     Called by c_bands:
     init_us_2    :      1.63s CPU      1.95s WALL (    7191 calls)
     init_us_2:cp :      1.61s CPU      1.93s WALL (    7191 calls)
     cegterg      :    176.06s CPU    206.52s WALL (    3572 calls)

     Called by *egterg:
     cdiaghg      :      0.55s CPU      0.62s WALL (   12320 calls)
     h_psi        :    176.44s CPU    211.63s WALL (   12367 calls)
     g_psi        :      0.16s CPU      0.16s WALL (    8748 calls)

     Called by h_psi:
     h_psi:calbec :      0.52s CPU      0.63s WALL (   12367 calls)
     vloc_psi     :     43.69s CPU     52.94s WALL (   12367 calls)
     add_vuspsi   :      0.48s CPU      0.51s WALL (   12367 calls)
     h_psi_meta   :    131.51s CPU    157.26s WALL (   12367 calls)

     General routines
     calbec       :      0.48s CPU      0.60s WALL (   12367 calls)
     fft          :      0.44s CPU      0.56s WALL (     921 calls)
     ffts         :      0.93s CPU      1.17s WALL (    1875 calls)
     fftw         :    181.54s CPU    217.61s WALL (  402648 calls)
     interpolate  :      0.01s CPU      0.01s WALL (      77 calls)
 
     Parallel routines
 
     PWSCF        :   3m41.64s CPU   4m25.61s WALL

 
   This run was terminated on:  12: 6:57  14Mar2023            

=------------------------------------------------------------------------------=
   JOB DONE.
=------------------------------------------------------------------------------=
