
     Program PWSCF v.7.0 starts on  7Jul2023 at 14:30:57 

     This program is part of the open-source Quantum ESPRESSO suite
     for quantum simulation of materials; please cite
         "P. Giannozzi et al., J. Phys.:Condens. Matter 21 395502 (2009);
         "P. Giannozzi et al., J. Phys.:Condens. Matter 29 465901 (2017);
         "P. Giannozzi et al., J. Chem. Phys. 152 154105 (2020);
          URL http://www.quantum-espresso.org", 
     in publications or presentations arising from this work. More details at
     http://www.quantum-espresso.org/quote

     Parallel version (MPI), running on     1 processors

     MPI processes distributed on     1 nodes
     27010 MiB available memory on the printing compute node when the environment starts
 
     Waiting for input...
     Reading input from standard input
Warning: card &CELL ignored
Warning: card / ignored

     Current dimensions of program PWSCF are:
     Max number of different atomic species (ntypx) = 10
     Max number of k-points (npk) =  40000
     Max angular momentum in pseudopotentials (lmaxx) =  4
     file Si.SCAN.UPF2: wavefunction(s)  0D renormalized

     WARNING: the MGGA functional with ID    5 has been 
     read together with other dft terms, but it should 
     stand alone in order to work properly. The other 
     terms will be ignored.

     WARNING: the MGGA functional with ID    5 has been 
     read together with other dft terms, but it should 
     stand alone in order to work properly. The other 
     terms will be ignored.

     Subspace diagonalization in iterative solution of the eigenvalue problem:
     a serial algorithm will be used

 
     G-vector sticks info
     --------------------
     sticks:   dense  smooth     PW     G-vecs:    dense   smooth      PW
     Sum         721     721    223                12627    12627    2133
 
     Using Slab Decomposition
 


     bravais-lattice index     =            2
     lattice parameter (alat)  =      10.2045  a.u.
     unit-cell volume          =     265.6549 (a.u.)^3
     number of atoms/cell      =            2
     number of atomic types    =            2
     number of electrons       =         8.00
     number of Kohn-Sham states=            4
     kinetic-energy cutoff     =      50.0000  Ry
     charge density cutoff     =     200.0000  Ry
     scf convergence threshold =      2.0E-05
     mixing beta               =       0.2000
     number of iterations used =            8  local-TF  mixing
     Exchange-correlation= SLA  PW   SCAN SCAN
                           (   0   0   0   0   0 263 267)

     celldm(1)=  10.204521  celldm(2)=   0.000000  celldm(3)=   0.000000
     celldm(4)=   0.000000  celldm(5)=   0.000000  celldm(6)=   0.000000

     crystal axes: (cart. coord. in units of alat)
               a(1) = (  -0.500000   0.000000   0.500000 )  
               a(2) = (   0.000000   0.500000   0.500000 )  
               a(3) = (  -0.500000   0.500000   0.000000 )  

     reciprocal axes: (cart. coord. in units 2 pi/alat)
               b(1) = ( -1.000000 -1.000000  1.000000 )  
               b(2) = (  1.000000  1.000000  1.000000 )  
               b(3) = ( -1.000000  1.000000 -1.000000 )  


     PseudoPot. # 1 for Si read from file:
     ~/Documents/TA/PWDFT.jl/pseudopotentials/scan_upf/Si.SCAN.UPF2
     MD5 check sum: Not computed, couldn't open file
     Pseudo is Norm-conserving, Zval =  4.0
     Generated by new atomic code, or converted to UPF format
     Using radial grid of 1475 points,  2 beta functions with: 
                l(1) =   0
                l(2) =   1

     PseudoPot. # 2 for C  read from file:
     ~/Documents/TA/PWDFT.jl/pseudopotentials/scan_upf/C.SCAN.UPF2
     MD5 check sum: Not computed, couldn't open file
     Pseudo is Norm-conserving, Zval =  4.0
     Generated by new atomic code, or converted to UPF format
     Using radial grid of 1389 points,  1 beta functions with: 
                l(1) =   0

     atomic species   valence    mass     pseudopotential
        Si             4.00    28.08550     Si( 1.00)
        C              4.00    12.01100     C ( 1.00)

     24 Sym. Ops. (no inversion) found



   Cartesian axes

     site n.     atom                  positions (alat units)
         1           Si  tau(   1) = (   0.0000000   0.0000000   0.0000000  )
         2           C   tau(   2) = (   0.2500000   0.2500000   0.2500000  )

     number of k points=    47
                       cart. coord. in units 2pi/alat
        k(    1) = (   0.0000000   0.0000000   0.0000000), wk =   0.0020000
        k(    2) = (  -0.1000000   0.1000000  -0.1000000), wk =   0.0160000
        k(    3) = (  -0.2000000   0.2000000  -0.2000000), wk =   0.0160000
        k(    4) = (  -0.3000000   0.3000000  -0.3000000), wk =   0.0160000
        k(    5) = (  -0.4000000   0.4000000  -0.4000000), wk =   0.0160000
        k(    6) = (   0.5000000  -0.5000000   0.5000000), wk =   0.0080000
        k(    7) = (   0.0000000   0.2000000   0.0000000), wk =   0.0120000
        k(    8) = (  -0.1000000   0.3000000  -0.1000000), wk =   0.0480000
        k(    9) = (  -0.2000000   0.4000000  -0.2000000), wk =   0.0480000
        k(   10) = (  -0.3000000   0.5000000  -0.3000000), wk =   0.0480000
        k(   11) = (   0.6000000  -0.4000000   0.6000000), wk =   0.0480000
        k(   12) = (   0.5000000  -0.3000000   0.5000000), wk =   0.0480000
        k(   13) = (   0.4000000  -0.2000000   0.4000000), wk =   0.0480000
        k(   14) = (   0.3000000  -0.1000000   0.3000000), wk =   0.0480000
        k(   15) = (   0.2000000   0.0000000   0.2000000), wk =   0.0240000
        k(   16) = (   0.0000000   0.4000000   0.0000000), wk =   0.0120000
        k(   17) = (  -0.1000000   0.5000000  -0.1000000), wk =   0.0480000
        k(   18) = (  -0.2000000   0.6000000  -0.2000000), wk =   0.0480000
        k(   19) = (   0.7000000  -0.3000000   0.7000000), wk =   0.0480000
        k(   20) = (   0.6000000  -0.2000000   0.6000000), wk =   0.0480000
        k(   21) = (   0.5000000  -0.1000000   0.5000000), wk =   0.0480000
        k(   22) = (   0.4000000   0.0000000   0.4000000), wk =   0.0240000
        k(   23) = (   0.0000000   0.6000000   0.0000000), wk =   0.0120000
        k(   24) = (  -0.1000000   0.7000000  -0.1000000), wk =   0.0480000
        k(   25) = (   0.8000000  -0.2000000   0.8000000), wk =   0.0480000
        k(   26) = (   0.7000000  -0.1000000   0.7000000), wk =   0.0480000
        k(   27) = (   0.6000000  -0.0000000   0.6000000), wk =   0.0240000
        k(   28) = (   0.0000000   0.8000000   0.0000000), wk =   0.0120000
        k(   29) = (   0.9000000  -0.1000000   0.9000000), wk =   0.0480000
        k(   30) = (   0.8000000   0.0000000   0.8000000), wk =   0.0240000
        k(   31) = (   0.0000000  -1.0000000   0.0000000), wk =   0.0060000
        k(   32) = (  -0.2000000   0.4000000   0.0000000), wk =   0.0480000
        k(   33) = (  -0.3000000   0.5000000  -0.1000000), wk =   0.0960000
        k(   34) = (   0.6000000  -0.4000000   0.8000000), wk =   0.0960000
        k(   35) = (   0.5000000  -0.3000000   0.7000000), wk =   0.0480000
        k(   36) = (  -0.2000000   0.6000000   0.0000000), wk =   0.0480000
        k(   37) = (   0.7000000  -0.3000000   0.9000000), wk =   0.0960000
        k(   38) = (   0.6000000  -0.2000000   0.8000000), wk =   0.0960000
        k(   39) = (   0.5000000  -0.1000000   0.7000000), wk =   0.0960000
        k(   40) = (   0.4000000   0.0000000   0.6000000), wk =   0.0480000
        k(   41) = (   0.8000000  -0.2000000   1.0000000), wk =   0.0480000
        k(   42) = (   0.7000000  -0.1000000   0.9000000), wk =   0.0960000
        k(   43) = (   0.6000000   0.0000000   0.8000000), wk =   0.0480000
        k(   44) = (  -0.2000000  -1.0000000   0.0000000), wk =   0.0240000
        k(   45) = (   0.6000000  -0.2000000   1.0000000), wk =   0.0480000
        k(   46) = (   0.5000000  -0.1000000   0.9000000), wk =   0.0480000
        k(   47) = (  -0.4000000  -1.0000000   0.0000000), wk =   0.0240000

     Dense  grid:    12627 G-vectors     FFT dimensions: (  36,  36,  36)

     Estimated max dynamical RAM per process >      24.99 MB

     WARNING: libxc functional with ID  263 depends
      on external parameters: check the user_guide of
      QE if you need to modify them or to check their
      default values.

     Initial potential from superposition of free atoms

     starting charge       7.9995, renormalised to       8.0000
     Starting wfcs are   13 randomized atomic wfcs

     total cpu time spent up to now is        6.2 secs

     Self-consistent Calculation

     iteration #  1     ecut=    50.00 Ry     beta= 0.20
     Davidson diagonalization with overlap
     ethr =  1.00E-02,  avg # of iterations =  1.3

     total cpu time spent up to now is       11.2 secs

     total energy              =     -18.97960356 Ry
     estimated scf accuracy    <       1.05104933 Ry

     iteration #  2     ecut=    50.00 Ry     beta= 0.20
     Davidson diagonalization with overlap
     ethr =  1.00E-02,  avg # of iterations =  1.0

     total cpu time spent up to now is       15.6 secs

     total energy              =     -18.96219235 Ry
     estimated scf accuracy    <       0.66782346 Ry

     iteration #  3     ecut=    50.00 Ry     beta= 0.20
     Davidson diagonalization with overlap
     ethr =  8.35E-03,  avg # of iterations =  1.0

     total cpu time spent up to now is       19.2 secs

     total energy              =     -18.99847935 Ry
     estimated scf accuracy    <       0.02662406 Ry

     iteration #  4     ecut=    50.00 Ry     beta= 0.20
     Davidson diagonalization with overlap
     ethr =  3.33E-04,  avg # of iterations =  2.3

     total cpu time spent up to now is       23.2 secs

     total energy              =     -19.00711215 Ry
     estimated scf accuracy    <       0.02672848 Ry

     iteration #  5     ecut=    50.00 Ry     beta= 0.20
     Davidson diagonalization with overlap
     ethr =  3.33E-04,  avg # of iterations =  1.0

     total cpu time spent up to now is       24.9 secs

     total energy              =     -19.00811177 Ry
     estimated scf accuracy    <       0.03170179 Ry

     iteration #  6     ecut=    50.00 Ry     beta= 0.20
     Davidson diagonalization with overlap
     ethr =  3.33E-04,  avg # of iterations =  1.0

     total cpu time spent up to now is       26.1 secs

     total energy              =     -19.00972448 Ry
     estimated scf accuracy    <       0.01064526 Ry

     iteration #  7     ecut=    50.00 Ry     beta= 0.20
     Davidson diagonalization with overlap
     ethr =  1.33E-04,  avg # of iterations =  1.0

     total cpu time spent up to now is       27.2 secs

     total energy              =     -19.00990272 Ry
     estimated scf accuracy    <       0.01311554 Ry

     iteration #  8     ecut=    50.00 Ry     beta= 0.20
     Davidson diagonalization with overlap
     ethr =  1.33E-04,  avg # of iterations =  1.0

     total cpu time spent up to now is       28.3 secs

     total energy              =     -19.00936360 Ry
     estimated scf accuracy    <       0.01329618 Ry

     iteration #  9     ecut=    50.00 Ry     beta= 0.20
     Davidson diagonalization with overlap
     ethr =  1.33E-04,  avg # of iterations =  1.0

     total cpu time spent up to now is       29.4 secs

     total energy              =     -19.00926294 Ry
     estimated scf accuracy    <       0.00985043 Ry

     iteration # 10     ecut=    50.00 Ry     beta= 0.20
     Davidson diagonalization with overlap
     ethr =  1.23E-04,  avg # of iterations =  1.0

     total cpu time spent up to now is       30.5 secs

     total energy              =     -19.00900150 Ry
     estimated scf accuracy    <       0.00877175 Ry

     iteration # 11     ecut=    50.00 Ry     beta= 0.20
     Davidson diagonalization with overlap
     ethr =  1.10E-04,  avg # of iterations =  1.0

     total cpu time spent up to now is       31.6 secs

     total energy              =     -19.00892285 Ry
     estimated scf accuracy    <       0.00651103 Ry

     iteration # 12     ecut=    50.00 Ry     beta= 0.20
     Davidson diagonalization with overlap
     ethr =  8.14E-05,  avg # of iterations =  1.0

     total cpu time spent up to now is       32.7 secs

     total energy              =     -19.00913585 Ry
     estimated scf accuracy    <       0.00575245 Ry

     iteration # 13     ecut=    50.00 Ry     beta= 0.20
     Davidson diagonalization with overlap
     ethr =  7.19E-05,  avg # of iterations =  1.0

     total cpu time spent up to now is       33.8 secs

     total energy              =     -19.00736578 Ry
     estimated scf accuracy    <       0.00666056 Ry

     iteration # 14     ecut=    50.00 Ry     beta= 0.20
     Davidson diagonalization with overlap
     ethr =  7.19E-05,  avg # of iterations =  2.0

     total cpu time spent up to now is       35.3 secs

     total energy              =     -19.00841833 Ry
     estimated scf accuracy    <       0.00021629 Ry

     iteration # 15     ecut=    50.00 Ry     beta= 0.20
     Davidson diagonalization with overlap
     ethr =  2.70E-06,  avg # of iterations =  4.5

     total cpu time spent up to now is       37.4 secs

     total energy              =     -19.00854805 Ry
     estimated scf accuracy    <       0.00160660 Ry

     iteration # 16     ecut=    50.00 Ry     beta= 0.20
     Davidson diagonalization with overlap
     ethr =  2.70E-06,  avg # of iterations =  1.0

     total cpu time spent up to now is       38.5 secs

     total energy              =     -19.00850932 Ry
     estimated scf accuracy    <       0.00103032 Ry

     iteration # 17     ecut=    50.00 Ry     beta= 0.20
     Davidson diagonalization with overlap
     ethr =  2.70E-06,  avg # of iterations =  1.0

     total cpu time spent up to now is       39.6 secs

     total energy              =     -19.00852146 Ry
     estimated scf accuracy    <       0.00084604 Ry

     iteration # 18     ecut=    50.00 Ry     beta= 0.20
     Davidson diagonalization with overlap
     ethr =  2.70E-06,  avg # of iterations =  1.0

     total cpu time spent up to now is       40.7 secs

     total energy              =     -19.00845997 Ry
     estimated scf accuracy    <       0.00090866 Ry

     iteration # 19     ecut=    50.00 Ry     beta= 0.20
     Davidson diagonalization with overlap
     ethr =  2.70E-06,  avg # of iterations =  1.0

     total cpu time spent up to now is       41.8 secs

     total energy              =     -19.00844170 Ry
     estimated scf accuracy    <       0.00047393 Ry

     iteration # 20     ecut=    50.00 Ry     beta= 0.20
     Davidson diagonalization with overlap
     ethr =  2.70E-06,  avg # of iterations =  1.0

     total cpu time spent up to now is       43.0 secs

     total energy              =     -19.00844183 Ry
     estimated scf accuracy    <       0.00024218 Ry

     iteration # 21     ecut=    50.00 Ry     beta= 0.20
     Davidson diagonalization with overlap
     ethr =  2.70E-06,  avg # of iterations =  1.0

     total cpu time spent up to now is       44.1 secs

     total energy              =     -19.00842467 Ry
     estimated scf accuracy    <       0.00018525 Ry

     iteration # 22     ecut=    50.00 Ry     beta= 0.20
     Davidson diagonalization with overlap
     ethr =  2.32E-06,  avg # of iterations =  1.0

     total cpu time spent up to now is       45.2 secs

     total energy              =     -19.00842267 Ry
     estimated scf accuracy    <       0.00003979 Ry

     iteration # 23     ecut=    50.00 Ry     beta= 0.20
     Davidson diagonalization with overlap
     ethr =  4.97E-07,  avg # of iterations =  2.2

     total cpu time spent up to now is       46.7 secs

     End of self-consistent calculation

          k = 0.0000 0.0000 0.0000 (  1591 PWs)   bands (ev):

    -8.9898   2.6789   2.9573   2.9573

          k =-0.1000 0.1000-0.1000 (  1570 PWs)   bands (ev):

    -8.8769   1.3537   2.8533   2.8533

          k =-0.2000 0.2000-0.2000 (  1576 PWs)   bands (ev):

    -8.5501  -0.1864   2.6127   2.6127

          k =-0.3000 0.3000-0.3000 (  1600 PWs)   bands (ev):

    -8.0555  -1.6320   2.3614   2.3614

          k =-0.4000 0.4000-0.4000 (  1586 PWs)   bands (ev):

    -7.5222  -2.7664   2.1882   2.1882

          k = 0.5000-0.5000 0.5000 (  1568 PWs)   bands (ev):

    -7.2579  -3.2355   2.1272   2.1272

          k = 0.0000 0.2000 0.0000 (  1571 PWs)   bands (ev):

    -8.8390   1.2426   2.6506   2.6506

          k =-0.1000 0.3000-0.1000 (  1575 PWs)   bands (ev):

    -8.5823   0.1077   2.3581   2.3921

          k =-0.2000 0.4000-0.2000 (  1584 PWs)   bands (ev):

    -8.1389  -1.2467   2.0428   2.1053

          k =-0.3000 0.5000-0.3000 (  1590 PWs)   bands (ev):

    -7.6010  -2.4473   1.7005   1.9668

          k = 0.6000-0.4000 0.6000 (  1581 PWs)   bands (ev):

    -7.2082  -3.1560   1.4666   1.9697

          k = 0.5000-0.3000 0.5000 (  1585 PWs)   bands (ev):

    -7.3011  -2.9975   1.3909   2.1068

          k = 0.4000-0.2000 0.4000 (  1586 PWs)   bands (ev):

    -7.7829  -2.0781   1.4981   2.3482

          k = 0.3000-0.1000 0.3000 (  1585 PWs)   bands (ev):

    -8.3058  -0.8097   1.8013   2.6301

          k = 0.2000 0.0000 0.2000 (  1568 PWs)   bands (ev):

    -8.6922   0.4697   2.3089   2.8414

          k = 0.0000 0.4000 0.0000 (  1571 PWs)   bands (ev):

    -8.3986  -0.2874   2.0198   2.0198

          k =-0.1000 0.5000-0.1000 (  1591 PWs)   bands (ev):

    -8.0205  -1.2215   1.6039   1.7382

          k =-0.2000 0.6000-0.2000 (  1598 PWs)   bands (ev):

    -7.5151  -2.2492   1.0619   1.5931

          k = 0.7000-0.3000 0.7000 (  1587 PWs)   bands (ev):

    -7.0601  -3.0176   0.6114   1.6102

          k = 0.6000-0.2000 0.6000 (  1572 PWs)   bands (ev):

    -6.9859  -3.1276   0.3799   1.7849

          k = 0.5000-0.1000 0.5000 (  1583 PWs)   bands (ev):

    -7.3666  -2.5188   0.4481   2.0767

          k = 0.4000 0.0000 0.4000 (  1580 PWs)   bands (ev):

    -7.8814  -1.6227   0.9153   2.4044

          k = 0.0000 0.6000 0.0000 (  1588 PWs)   bands (ev):

    -7.7134  -1.7362   1.4224   1.4224

          k =-0.1000 0.7000-0.1000 (  1592 PWs)   bands (ev):

    -7.2703  -2.4719   0.9627   1.2439

          k = 0.8000-0.2000 0.8000 (  1597 PWs)   bands (ev):

    -6.8288  -3.0908   0.3142   1.2383

          k = 0.7000-0.1000 0.7000 (  1587 PWs)   bands (ev):

    -6.6609  -3.2882  -0.1362   1.4064

          k = 0.6000-0.0000 0.6000 (  1582 PWs)   bands (ev):

    -6.9156  -2.9847  -0.1405   1.7130

          k = 0.0000 0.8000 0.0000 (  1604 PWs)   bands (ev):

    -6.9154  -2.9878   1.0231   1.0231

          k = 0.9000-0.1000 0.9000 (  1596 PWs)   bands (ev):

    -6.5794  -3.4108   0.6158   0.9774

          k = 0.8000 0.0000 0.8000 (  1596 PWs)   bands (ev):

    -6.4725  -3.4848   0.0389   1.1138

          k = 0.0000-1.0000 0.0000 (  1588 PWs)   bands (ev):

    -6.4600  -3.5935   0.8852   0.8852

          k =-0.2000 0.4000 0.0000 (  1583 PWs)   bands (ev):

    -8.2649  -0.7535   1.6325   2.3103

          k =-0.3000 0.5000-0.1000 (  1582 PWs)   bands (ev):

    -7.7864  -1.8207   1.0879   2.0601

          k = 0.6000-0.4000 0.8000 (  1587 PWs)   bands (ev):

    -7.2741  -2.7707   0.7929   1.8191

          k = 0.5000-0.3000 0.7000 (  1578 PWs)   bands (ev):

    -7.0223  -3.1813   0.7026   1.7243

          k =-0.2000 0.6000 0.0000 (  1587 PWs)   bands (ev):

    -7.6067  -1.9654   1.0276   1.5420

          k = 0.7000-0.3000 0.9000 (  1594 PWs)   bands (ev):

    -7.1180  -2.7278   0.4950   1.3130

          k = 0.6000-0.2000 0.8000 (  1585 PWs)   bands (ev):

    -6.7807  -3.1971   0.1248   1.2719

          k = 0.5000-0.1000 0.7000 (  1578 PWs)   bands (ev):

    -6.8782  -3.0611   0.0325   1.4494

          k = 0.4000 0.0000 0.6000 (  1590 PWs)   bands (ev):

    -7.3125  -2.4741   0.3360   1.7664

          k = 0.8000-0.2000 1.0000 (  1593 PWs)   bands (ev):

    -6.8573  -3.0298   0.6693   0.9353

          k = 0.7000-0.1000 0.9000 (  1592 PWs)   bands (ev):

    -6.5475  -3.3744   0.1481   0.8647

          k = 0.6000 0.0000 0.8000 (  1590 PWs)   bands (ev):

    -6.5643  -3.3347  -0.1805   1.0776

          k =-0.2000-1.0000 0.0000 (  1594 PWs)   bands (ev):

    -6.4459  -3.5439   0.6251   0.6377

          k = 0.6000-0.2000 1.0000 (  1586 PWs)   bands (ev):

    -6.7143  -3.1580   0.0930   0.9037

          k = 0.5000-0.1000 0.9000 (  1592 PWs)   bands (ev):

    -6.5273  -3.3525  -0.0321   0.7119

          k =-0.4000-1.0000 0.0000 (  1598 PWs)   bands (ev):

    -6.4226  -3.4567   0.2524   0.3122

     highest occupied level (ev):     2.9573

!    total energy              =     -19.00843073 Ry
     estimated scf accuracy    <       0.00000537 Ry

     The total energy is the sum of the following terms:
     one-electron contribution =       0.29342088 Ry
     hartree contribution      =       2.90404101 Ry
     xc contribution           =      -5.31362139 Ry
     ewald contribution        =     -16.89227124 Ry

     convergence has been achieved in  23 iterations
     Writing meta-gga kinetic term

     Writing all to output data dir ./input_pw/SiC/15/pwscf.save/
     Writing meta-gga kinetic term
 
     init_run     :      2.93s CPU      6.13s WALL (       1 calls)
     electrons    :     33.46s CPU     40.48s WALL (       1 calls)

     Called by init_run:
     wfcinit      :      2.79s CPU      5.65s WALL (       1 calls)
     potinit      :      0.03s CPU      0.10s WALL (       1 calls)
     hinit0       :      0.09s CPU      0.35s WALL (       1 calls)

     Called by electrons:
     c_bands      :     26.31s CPU     31.82s WALL (      23 calls)
     sum_band     :      6.40s CPU      7.70s WALL (      23 calls)
     v_of_rho     :      0.47s CPU      0.64s WALL (      24 calls)
     mix_rho      :      0.29s CPU      0.38s WALL (      23 calls)

     Called by c_bands:
     init_us_2    :      0.27s CPU      0.30s WALL (    2209 calls)
     init_us_2:cp :      0.27s CPU      0.30s WALL (    2209 calls)
     cegterg      :     26.07s CPU     31.57s WALL (    1081 calls)

     Called by *egterg:
     cdiaghg      :      0.06s CPU      0.06s WALL (    2502 calls)
     h_psi        :     28.47s CPU     36.71s WALL (    2549 calls)
     g_psi        :      0.02s CPU      0.02s WALL (    1421 calls)

     Called by h_psi:
     h_psi:calbec :      0.05s CPU      0.06s WALL (    2549 calls)
     vloc_psi     :      7.03s CPU      9.00s WALL (    2549 calls)
     add_vuspsi   :      0.06s CPU      0.06s WALL (    2549 calls)
     h_psi_meta   :     21.28s CPU     27.55s WALL (    2549 calls)

     General routines
     calbec       :      0.05s CPU      0.05s WALL (    2549 calls)
     fft          :      0.08s CPU      0.12s WALL (     285 calls)
     ffts         :      0.15s CPU      0.19s WALL (     506 calls)
     fftw         :     30.95s CPU     39.66s WALL (   99352 calls)
     interpolate  :      0.00s CPU      0.00s WALL (      24 calls)
 
     Parallel routines
 
     PWSCF        :     36.43s CPU     46.80s WALL

 
   This run was terminated on:  14:31:44   7Jul2023            

=------------------------------------------------------------------------------=
   JOB DONE.
=------------------------------------------------------------------------------=
