
     Program PWSCF v.7.0 starts on 21Mar2023 at 13:11:35 

     This program is part of the open-source Quantum ESPRESSO suite
     for quantum simulation of materials; please cite
         "P. Giannozzi et al., J. Phys.:Condens. Matter 21 395502 (2009);
         "P. Giannozzi et al., J. Phys.:Condens. Matter 29 465901 (2017);
         "P. Giannozzi et al., J. Chem. Phys. 152 154105 (2020);
          URL http://www.quantum-espresso.org", 
     in publications or presentations arising from this work. More details at
     http://www.quantum-espresso.org/quote

     Parallel version (MPI), running on     1 processors

     MPI processes distributed on     1 nodes
     24629 MiB available memory on the printing compute node when the environment starts
 
     Waiting for input...
     Reading input from standard input
Warning: card &CELL ignored
Warning: card / ignored

     Current dimensions of program PWSCF are:
     Max number of different atomic species (ntypx) = 10
     Max number of k-points (npk) =  40000
     Max angular momentum in pseudopotentials (lmaxx) =  4
     file Al.SCAN.UPF2: wavefunction(s)  0D renormalized

     WARNING: the MGGA functional with ID    5 has been 
     read together with other dft terms, but it should 
     stand alone in order to work properly. The other 
     terms will be ignored.

     Subspace diagonalization in iterative solution of the eigenvalue problem:
     a serial algorithm will be used

 
     G-vector sticks info
     --------------------
     sticks:   dense  smooth     PW     G-vecs:    dense   smooth      PW
     Sum        2479    2479    685                81451    81451   12039
 
     Using Slab Decomposition
 


     bravais-lattice index     =            2
     lattice parameter (alat)  =      17.3023  a.u.
     unit-cell volume          =    1294.9529 (a.u.)^3
     number of atoms/cell      =            1
     number of atomic types    =            1
     number of electrons       =         3.00
     number of Kohn-Sham states=            6
     kinetic-energy cutoff     =      60.0000  Ry
     charge density cutoff     =     240.0000  Ry
     scf convergence threshold =      1.0E-06
     mixing beta               =       0.0100
     number of iterations used =            8  local-TF  mixing
     Exchange-correlation= SLA  PW   SCAN SCAN
                           (   0   0   0   0   0 263 267)

     celldm(1)=  17.302332  celldm(2)=   0.000000  celldm(3)=   0.000000
     celldm(4)=   0.000000  celldm(5)=   0.000000  celldm(6)=   0.000000

     crystal axes: (cart. coord. in units of alat)
               a(1) = (  -0.500000   0.000000   0.500000 )  
               a(2) = (   0.000000   0.500000   0.500000 )  
               a(3) = (  -0.500000   0.500000   0.000000 )  

     reciprocal axes: (cart. coord. in units 2 pi/alat)
               b(1) = ( -1.000000 -1.000000  1.000000 )  
               b(2) = (  1.000000  1.000000  1.000000 )  
               b(3) = ( -1.000000  1.000000 -1.000000 )  


     PseudoPot. # 1 for Al read from file:
     ~/Documents/TA/PWDFT.jl/pseudopotentials/scan_upf/Al.SCAN.UPF2
     MD5 check sum: Not computed, couldn't open file
     Pseudo is Norm-conserving, Zval =  3.0
     Generated by new atomic code, or converted to UPF format
     Using radial grid of 1467 points,  2 beta functions with: 
                l(1) =   0
                l(2) =   1

     atomic species   valence    mass     pseudopotential
        Al             3.00    26.98154     Al( 1.00)

     48 Sym. Ops., with inversion, found



   Cartesian axes

     site n.     atom                  positions (alat units)
         1           Al  tau(   1) = (   0.0000000   0.0000000   0.0000000  )

     number of k points=    47  Gaussian smearing, width (Ry)=  0.1000
                       cart. coord. in units 2pi/alat
        k(    1) = (   0.0000000   0.0000000   0.0000000), wk =   0.0020000
        k(    2) = (  -0.1000000   0.1000000  -0.1000000), wk =   0.0160000
        k(    3) = (  -0.2000000   0.2000000  -0.2000000), wk =   0.0160000
        k(    4) = (  -0.3000000   0.3000000  -0.3000000), wk =   0.0160000
        k(    5) = (  -0.4000000   0.4000000  -0.4000000), wk =   0.0160000
        k(    6) = (   0.5000000  -0.5000000   0.5000000), wk =   0.0080000
        k(    7) = (   0.0000000   0.2000000   0.0000000), wk =   0.0120000
        k(    8) = (  -0.1000000   0.3000000  -0.1000000), wk =   0.0480000
        k(    9) = (  -0.2000000   0.4000000  -0.2000000), wk =   0.0480000
        k(   10) = (  -0.3000000   0.5000000  -0.3000000), wk =   0.0480000
        k(   11) = (   0.6000000  -0.4000000   0.6000000), wk =   0.0480000
        k(   12) = (   0.5000000  -0.3000000   0.5000000), wk =   0.0480000
        k(   13) = (   0.4000000  -0.2000000   0.4000000), wk =   0.0480000
        k(   14) = (   0.3000000  -0.1000000   0.3000000), wk =   0.0480000
        k(   15) = (   0.2000000   0.0000000   0.2000000), wk =   0.0240000
        k(   16) = (   0.0000000   0.4000000   0.0000000), wk =   0.0120000
        k(   17) = (  -0.1000000   0.5000000  -0.1000000), wk =   0.0480000
        k(   18) = (  -0.2000000   0.6000000  -0.2000000), wk =   0.0480000
        k(   19) = (   0.7000000  -0.3000000   0.7000000), wk =   0.0480000
        k(   20) = (   0.6000000  -0.2000000   0.6000000), wk =   0.0480000
        k(   21) = (   0.5000000  -0.1000000   0.5000000), wk =   0.0480000
        k(   22) = (   0.4000000   0.0000000   0.4000000), wk =   0.0240000
        k(   23) = (   0.0000000   0.6000000   0.0000000), wk =   0.0120000
        k(   24) = (  -0.1000000   0.7000000  -0.1000000), wk =   0.0480000
        k(   25) = (   0.8000000  -0.2000000   0.8000000), wk =   0.0480000
        k(   26) = (   0.7000000  -0.1000000   0.7000000), wk =   0.0480000
        k(   27) = (   0.6000000  -0.0000000   0.6000000), wk =   0.0240000
        k(   28) = (   0.0000000   0.8000000   0.0000000), wk =   0.0120000
        k(   29) = (   0.9000000  -0.1000000   0.9000000), wk =   0.0480000
        k(   30) = (   0.8000000   0.0000000   0.8000000), wk =   0.0240000
        k(   31) = (   0.0000000  -1.0000000   0.0000000), wk =   0.0060000
        k(   32) = (  -0.2000000   0.4000000   0.0000000), wk =   0.0480000
        k(   33) = (  -0.3000000   0.5000000  -0.1000000), wk =   0.0960000
        k(   34) = (   0.6000000  -0.4000000   0.8000000), wk =   0.0960000
        k(   35) = (   0.5000000  -0.3000000   0.7000000), wk =   0.0480000
        k(   36) = (  -0.2000000   0.6000000   0.0000000), wk =   0.0480000
        k(   37) = (   0.7000000  -0.3000000   0.9000000), wk =   0.0960000
        k(   38) = (   0.6000000  -0.2000000   0.8000000), wk =   0.0960000
        k(   39) = (   0.5000000  -0.1000000   0.7000000), wk =   0.0960000
        k(   40) = (   0.4000000   0.0000000   0.6000000), wk =   0.0480000
        k(   41) = (   0.8000000  -0.2000000   1.0000000), wk =   0.0480000
        k(   42) = (   0.7000000  -0.1000000   0.9000000), wk =   0.0960000
        k(   43) = (   0.6000000   0.0000000   0.8000000), wk =   0.0480000
        k(   44) = (  -0.2000000  -1.0000000   0.0000000), wk =   0.0240000
        k(   45) = (   0.6000000  -0.2000000   1.0000000), wk =   0.0480000
        k(   46) = (   0.5000000  -0.1000000   0.9000000), wk =   0.0480000
        k(   47) = (  -0.4000000  -1.0000000   0.0000000), wk =   0.0240000

     Dense  grid:    81451 G-vectors     FFT dimensions: (  64,  64,  64)

     Estimated max dynamical RAM per process >     167.67 MB

     WARNING: libxc functional with ID  263 depends
      on external parameters: check the user_guide of
      QE if you need to modify them or to check their
      default values.

     Initial potential from superposition of free atoms

     starting charge       2.9979, renormalised to       3.0000
     Starting wfcs are    9 randomized atomic wfcs

     total cpu time spent up to now is       37.0 secs

     Self-consistent Calculation

     iteration #  1     ecut=    60.00 Ry     beta= 0.01
     Davidson diagonalization with overlap
     ethr =  1.00E-02,  avg # of iterations =  2.6

     Threshold (ethr) on eigenvalues was too large:
     Diagonalizing with lowered threshold

     Davidson diagonalization with overlap
     ethr =  4.32E-05,  avg # of iterations =  5.6

     total cpu time spent up to now is      226.0 secs

     total energy              =      -3.94199973 Ry
     estimated scf accuracy    <       0.00167560 Ry

     iteration #  2     ecut=    60.00 Ry     beta= 0.01
     Davidson diagonalization with overlap
     ethr =  5.59E-05,  avg # of iterations =  1.0

     total cpu time spent up to now is      288.8 secs

     total energy              =      -3.95751500 Ry
     estimated scf accuracy    <       0.00165111 Ry

     iteration #  3     ecut=    60.00 Ry     beta= 0.01
     Davidson diagonalization with overlap
     ethr =  5.50E-05,  avg # of iterations =  2.6

     total cpu time spent up to now is      353.9 secs

     total energy              =      -3.95826590 Ry
     estimated scf accuracy    <       0.00002597 Ry

     iteration #  4     ecut=    60.00 Ry     beta= 0.01
     Davidson diagonalization with overlap
     ethr =  8.66E-07,  avg # of iterations =  5.1

     total cpu time spent up to now is      422.6 secs

     total energy              =      -3.95796459 Ry
     estimated scf accuracy    <       0.00002332 Ry

     iteration #  5     ecut=    60.00 Ry     beta= 0.01
     Davidson diagonalization with overlap
     ethr =  7.77E-07,  avg # of iterations =  3.2

     total cpu time spent up to now is      471.0 secs

     total energy              =      -3.95814551 Ry
     estimated scf accuracy    <       0.00001741 Ry

     iteration #  6     ecut=    60.00 Ry     beta= 0.01
     Davidson diagonalization with overlap
     ethr =  5.80E-07,  avg # of iterations =  2.0

     total cpu time spent up to now is      508.4 secs

     total energy              =      -3.95816820 Ry
     estimated scf accuracy    <       0.00001390 Ry

     iteration #  7     ecut=    60.00 Ry     beta= 0.01
     Davidson diagonalization with overlap
     ethr =  4.63E-07,  avg # of iterations =  3.8

     total cpu time spent up to now is      548.2 secs

     total energy              =      -3.95830355 Ry
     estimated scf accuracy    <       0.00000172 Ry

     iteration #  8     ecut=    60.00 Ry     beta= 0.01
     Davidson diagonalization with overlap
     ethr =  5.73E-08,  avg # of iterations =  1.7

     total cpu time spent up to now is      578.8 secs

     total energy              =      -3.95830481 Ry
     estimated scf accuracy    <       0.00000170 Ry

     iteration #  9     ecut=    60.00 Ry     beta= 0.01
     Davidson diagonalization with overlap
     ethr =  5.67E-08,  avg # of iterations =  2.4

     total cpu time spent up to now is      603.3 secs

     End of self-consistent calculation

          k = 0.0000 0.0000 0.0000 ( 10081 PWs)   bands (ev):

    -6.8778  -1.0724  -1.0724  -1.0724   0.5471   3.3629

          k =-0.1000 0.1000-0.1000 ( 10099 PWs)   bands (ev):

    -6.8678  -1.2046  -1.0824  -1.0824   0.7110   3.1342

          k =-0.2000 0.2000-0.2000 ( 10141 PWs)   bands (ev):

    -6.8412  -1.4785  -1.1078  -1.1078   1.0594   2.8358

          k =-0.3000 0.3000-0.3000 ( 10150 PWs)   bands (ev):

    -6.8074  -1.7440  -1.1379  -1.1379   1.3702   2.7114

          k =-0.4000 0.4000-0.4000 ( 10152 PWs)   bands (ev):

    -6.7791  -1.9269  -1.1614  -1.1614   1.5121   2.7618

          k = 0.5000-0.5000 0.5000 ( 10200 PWs)   bands (ev):

    -6.7681  -1.9916  -1.1701  -1.1701   1.5390   2.8085

          k = 0.0000 0.2000 0.0000 ( 10133 PWs)   bands (ev):

    -6.8645  -1.2093  -1.1045  -1.1045   0.7645   3.0514

          k =-0.1000 0.3000-0.1000 ( 10150 PWs)   bands (ev):

    -6.8435  -1.4136  -1.1392  -1.1263   1.0494   2.8081

          k =-0.2000 0.4000-0.2000 ( 10160 PWs)   bands (ev):

    -6.8120  -1.6640  -1.1724  -1.1612   1.3839   2.6530

          k =-0.3000 0.5000-0.3000 ( 10148 PWs)   bands (ev):

    -6.7818  -1.8612  -1.2046  -1.1919   1.5968   2.6094

          k = 0.6000-0.4000 0.6000 ( 10150 PWs)   bands (ev):

    -6.7649  -1.9587  -1.2399  -1.1915   1.6655   2.5787

          k = 0.5000-0.3000 0.5000 ( 10153 PWs)   bands (ev):

    -6.7686  -1.9377  -1.2540  -1.1714   1.6623   2.6026

          k = 0.4000-0.2000 0.4000 ( 10162 PWs)   bands (ev):

    -6.7912  -1.8031  -1.2407  -1.1384   1.5591   2.6538

          k = 0.3000-0.1000 0.3000 ( 10135 PWs)   bands (ev):

    -6.8233  -1.5856  -1.2009  -1.1043   1.2833   2.7292

          k = 0.2000 0.0000 0.2000 ( 10117 PWs)   bands (ev):

    -6.8523  -1.3508  -1.1403  -1.0824   0.9348   2.9276

          k = 0.0000 0.4000 0.0000 ( 10161 PWs)   bands (ev):

    -6.8292  -1.4705  -1.1846  -1.1846   1.2173   2.6113

          k =-0.1000 0.5000-0.1000 ( 10163 PWs)   bands (ev):

    -6.8034  -1.6328  -1.2343  -1.2260   1.4681   2.4634

          k =-0.2000 0.6000-0.2000 ( 10173 PWs)   bands (ev):

    -6.7755  -1.7879  -1.3079  -1.2487   1.6965   2.4239

          k = 0.7000-0.3000 0.7000 ( 10163 PWs)   bands (ev):

    -6.7563  -1.8774  -1.3872  -1.2453   1.8518   2.3444

          k = 0.6000-0.2000 0.6000 ( 10158 PWs)   bands (ev):

    -6.7539  -1.8816  -1.4371  -1.2171   1.9706   2.2888

          k = 0.5000-0.1000 0.5000 ( 10171 PWs)   bands (ev):

    -6.7692  -1.8103  -1.4270  -1.1735   1.9233   2.4317

          k = 0.4000 0.0000 0.4000 ( 10157 PWs)   bands (ev):

    -6.7959  -1.7007  -1.3384  -1.1300   1.6347   2.6642

          k = 0.0000 0.6000 0.0000 ( 10185 PWs)   bands (ev):

    -6.7846  -1.7006  -1.2771  -1.2771   1.5107   2.2709

          k =-0.1000 0.7000-0.1000 ( 10177 PWs)   bands (ev):

    -6.7624  -1.7896  -1.3469  -1.3076   1.5661   2.2114

          k = 0.8000-0.2000 0.8000 ( 10184 PWs)   bands (ev):

    -6.7455  -1.8250  -1.4711  -1.3078   1.6748   2.2946

          k = 0.7000-0.1000 0.7000 ( 10163 PWs)   bands (ev):

    -6.7407  -1.7859  -1.6028  -1.2779   1.8454   2.3762

          k = 0.6000-0.0000 0.6000 ( 10165 PWs)   bands (ev):

    -6.7498  -1.7671  -1.6021  -1.2272   2.0944   2.2887

          k = 0.0000 0.8000 0.0000 ( 10194 PWs)   bands (ev):

    -6.7475  -1.8467  -1.3474  -1.3474   1.4286   2.0620

          k = 0.9000-0.1000 0.9000 ( 10186 PWs)   bands (ev):

    -6.7366  -1.8662  -1.4175  -1.3556   1.4439   2.0820

          k = 0.8000 0.0000 0.8000 ( 10173 PWs)   bands (ev):

    -6.7340  -1.8158  -1.5529  -1.3299   1.6006   2.2563

          k = 0.0000-1.0000 0.0000 ( 10190 PWs)   bands (ev):

    -6.7332  -1.8960  -1.3733  -1.3733   1.3476   1.9919

          k =-0.2000 0.4000 0.0000 ( 10156 PWs)   bands (ev):

    -6.8200  -1.5633  -1.2293  -1.1402   1.3329   2.6421

          k =-0.3000 0.5000-0.1000 ( 10153 PWs)   bands (ev):

    -6.7903  -1.7352  -1.3084  -1.1720   1.6462   2.5606

          k = 0.6000-0.4000 0.8000 ( 10166 PWs)   bands (ev):

    -6.7655  -1.8659  -1.3536  -1.2081   1.8395   2.4144

          k = 0.5000-0.3000 0.7000 ( 10168 PWs)   bands (ev):

    -6.7560  -1.9140  -1.3674  -1.2239   1.8969   2.3307

          k =-0.2000 0.6000 0.0000 ( 10171 PWs)   bands (ev):

    -6.7794  -1.7324  -1.3311  -1.2502   1.6447   2.3733

          k = 0.7000-0.3000 0.9000 ( 10159 PWs)   bands (ev):

    -6.7569  -1.8049  -1.4282  -1.2856   1.8117   2.3892

          k = 0.6000-0.2000 0.8000 ( 10166 PWs)   bands (ev):

    -6.7450  -1.8253  -1.5136  -1.2924   1.9603   2.3205

          k = 0.5000-0.1000 0.7000 ( 10164 PWs)   bands (ev):

    -6.7485  -1.8043  -1.5407  -1.2619   2.1326   2.2260

          k = 0.4000 0.0000 0.6000 ( 10175 PWs)   bands (ev):

    -6.7660  -1.7771  -1.4606  -1.2124   1.9751   2.4332

          k = 0.8000-0.2000 1.0000 ( 10163 PWs)   bands (ev):

    -6.7458  -1.8274  -1.4080  -1.3524   1.5785   2.1969

          k = 0.7000-0.1000 0.9000 ( 10184 PWs)   bands (ev):

    -6.7361  -1.8023  -1.5317  -1.3625   1.6977   2.3294

          k = 0.6000 0.0000 0.8000 ( 10157 PWs)   bands (ev):

    -6.7372  -1.7051  -1.6807  -1.3237   1.8883   2.4396

          k =-0.2000-1.0000 0.0000 ( 10180 PWs)   bands (ev):

    -6.7329  -1.8555  -1.4362  -1.3946   1.4979   2.1362

          k = 0.6000-0.2000 1.0000 ( 10178 PWs)   bands (ev):

    -6.7417  -1.7722  -1.5511  -1.3473   1.9179   2.5410

          k = 0.5000-0.1000 0.9000 ( 10168 PWs)   bands (ev):

    -6.7359  -1.7251  -1.6267  -1.3790   1.9485   2.5502

          k =-0.4000-1.0000 0.0000 ( 10184 PWs)   bands (ev):

    -6.7324  -1.7422  -1.5841  -1.4275   1.8237   2.5108

     the Fermi energy is    -2.4264 ev

!    total energy              =      -3.95829894 Ry
     estimated scf accuracy    <       0.00000086 Ry
     smearing contrib. (-TS)   =      -0.10226208 Ry
     internal energy E=F+TS    =      -3.85603686 Ry

     The total energy is F=E-TS. E is the sum of the following terms:
     one-electron contribution =      -1.05752474 Ry
     hartree contribution      =       0.75184649 Ry
     xc contribution           =      -1.16549178 Ry
     ewald contribution        =      -2.38486683 Ry

     convergence has been achieved in   9 iterations
     Writing meta-gga kinetic term

     Writing all to output data dir ./input_pw/Al/14/pwscf.save/
     Writing meta-gga kinetic term
 
     init_run     :     19.35s CPU     36.96s WALL (       1 calls)
     electrons    :    428.09s CPU    566.26s WALL (       1 calls)

     Called by init_run:
     wfcinit      :     18.97s CPU     35.99s WALL (       1 calls)
     potinit      :      0.19s CPU      0.54s WALL (       1 calls)
     hinit0       :      0.08s CPU      0.19s WALL (       1 calls)

     Called by electrons:
     c_bands      :    356.05s CPU    472.86s WALL (      10 calls)
     sum_band     :     66.84s CPU     86.94s WALL (      10 calls)
     v_of_rho     :      2.02s CPU      2.76s WALL (      10 calls)
     mix_rho      :      3.24s CPU      4.03s WALL (      10 calls)

     Called by c_bands:
     init_us_2    :      1.20s CPU      1.61s WALL (     987 calls)
     init_us_2:cp :      1.19s CPU      1.61s WALL (     987 calls)
     cegterg      :    354.66s CPU    470.96s WALL (     470 calls)

     Called by *egterg:
     cdiaghg      :      0.25s CPU      0.33s WALL (    1840 calls)
     h_psi        :    366.74s CPU    497.52s WALL (    1934 calls)
     g_psi        :      0.30s CPU      0.35s WALL (    1417 calls)

     Called by h_psi:
     h_psi:calbec :      1.36s CPU      1.76s WALL (    1934 calls)
     vloc_psi     :     89.73s CPU    121.77s WALL (    1934 calls)
     add_vuspsi   :      0.68s CPU      0.81s WALL (    1934 calls)
     h_psi_meta   :    274.49s CPU    372.47s WALL (    1934 calls)

     General routines
     calbec       :      1.35s CPU      1.76s WALL (    1934 calls)
     fft          :      0.42s CPU      0.61s WALL (     119 calls)
     ffts         :      0.88s CPU      1.09s WALL (     228 calls)
     fftw         :    320.31s CPU    432.11s WALL (   83952 calls)
     interpolate  :      0.01s CPU      0.01s WALL (      10 calls)
 
     Parallel routines
 
     PWSCF        :   7m27.49s CPU  10m 3.36s WALL

 
   This run was terminated on:  13:21:38  21Mar2023            

=------------------------------------------------------------------------------=
   JOB DONE.
=------------------------------------------------------------------------------=
