
     Program PWSCF v.7.0 starts on 21Mar2023 at 11:18: 3 

     This program is part of the open-source Quantum ESPRESSO suite
     for quantum simulation of materials; please cite
         "P. Giannozzi et al., J. Phys.:Condens. Matter 21 395502 (2009);
         "P. Giannozzi et al., J. Phys.:Condens. Matter 29 465901 (2017);
         "P. Giannozzi et al., J. Chem. Phys. 152 154105 (2020);
          URL http://www.quantum-espresso.org", 
     in publications or presentations arising from this work. More details at
     http://www.quantum-espresso.org/quote

     Parallel version (MPI), running on     1 processors

     MPI processes distributed on     1 nodes
     24632 MiB available memory on the printing compute node when the environment starts
 
     Waiting for input...
     Reading input from standard input
Warning: card &CELL ignored
Warning: card / ignored

     Current dimensions of program PWSCF are:
     Max number of different atomic species (ntypx) = 10
     Max number of k-points (npk) =  40000
     Max angular momentum in pseudopotentials (lmaxx) =  4
     file Al.SCAN.UPF2: wavefunction(s)  0D renormalized

     WARNING: the MGGA functional with ID    5 has been 
     read together with other dft terms, but it should 
     stand alone in order to work properly. The other 
     terms will be ignored.

     Subspace diagonalization in iterative solution of the eigenvalue problem:
     a serial algorithm will be used

 
     G-vector sticks info
     --------------------
     sticks:   dense  smooth     PW     G-vecs:    dense   smooth      PW
     Sum         673     673    211                11311    11311    1989
 
     Using Slab Decomposition
 


     bravais-lattice index     =            2
     lattice parameter (alat)  =       8.9654  a.u.
     unit-cell volume          =     180.1562 (a.u.)^3
     number of atoms/cell      =            1
     number of atomic types    =            1
     number of electrons       =         3.00
     number of Kohn-Sham states=            6
     kinetic-energy cutoff     =      60.0000  Ry
     charge density cutoff     =     240.0000  Ry
     scf convergence threshold =      1.0E-06
     mixing beta               =       0.0100
     number of iterations used =            8  local-TF  mixing
     Exchange-correlation= SLA  PW   SCAN SCAN
                           (   0   0   0   0   0 263 267)

     celldm(1)=   8.965401  celldm(2)=   0.000000  celldm(3)=   0.000000
     celldm(4)=   0.000000  celldm(5)=   0.000000  celldm(6)=   0.000000

     crystal axes: (cart. coord. in units of alat)
               a(1) = (  -0.500000   0.000000   0.500000 )  
               a(2) = (   0.000000   0.500000   0.500000 )  
               a(3) = (  -0.500000   0.500000   0.000000 )  

     reciprocal axes: (cart. coord. in units 2 pi/alat)
               b(1) = ( -1.000000 -1.000000  1.000000 )  
               b(2) = (  1.000000  1.000000  1.000000 )  
               b(3) = ( -1.000000  1.000000 -1.000000 )  


     PseudoPot. # 1 for Al read from file:
     ~/Documents/TA/PWDFT.jl/pseudopotentials/scan_upf/Al.SCAN.UPF2
     MD5 check sum: Not computed, couldn't open file
     Pseudo is Norm-conserving, Zval =  3.0
     Generated by new atomic code, or converted to UPF format
     Using radial grid of 1467 points,  2 beta functions with: 
                l(1) =   0
                l(2) =   1

     atomic species   valence    mass     pseudopotential
        Al             3.00    26.98154     Al( 1.00)

     48 Sym. Ops., with inversion, found



   Cartesian axes

     site n.     atom                  positions (alat units)
         1           Al  tau(   1) = (   0.0000000   0.0000000   0.0000000  )

     number of k points=    47  Gaussian smearing, width (Ry)=  0.1000
                       cart. coord. in units 2pi/alat
        k(    1) = (   0.0000000   0.0000000   0.0000000), wk =   0.0020000
        k(    2) = (  -0.1000000   0.1000000  -0.1000000), wk =   0.0160000
        k(    3) = (  -0.2000000   0.2000000  -0.2000000), wk =   0.0160000
        k(    4) = (  -0.3000000   0.3000000  -0.3000000), wk =   0.0160000
        k(    5) = (  -0.4000000   0.4000000  -0.4000000), wk =   0.0160000
        k(    6) = (   0.5000000  -0.5000000   0.5000000), wk =   0.0080000
        k(    7) = (   0.0000000   0.2000000   0.0000000), wk =   0.0120000
        k(    8) = (  -0.1000000   0.3000000  -0.1000000), wk =   0.0480000
        k(    9) = (  -0.2000000   0.4000000  -0.2000000), wk =   0.0480000
        k(   10) = (  -0.3000000   0.5000000  -0.3000000), wk =   0.0480000
        k(   11) = (   0.6000000  -0.4000000   0.6000000), wk =   0.0480000
        k(   12) = (   0.5000000  -0.3000000   0.5000000), wk =   0.0480000
        k(   13) = (   0.4000000  -0.2000000   0.4000000), wk =   0.0480000
        k(   14) = (   0.3000000  -0.1000000   0.3000000), wk =   0.0480000
        k(   15) = (   0.2000000   0.0000000   0.2000000), wk =   0.0240000
        k(   16) = (   0.0000000   0.4000000   0.0000000), wk =   0.0120000
        k(   17) = (  -0.1000000   0.5000000  -0.1000000), wk =   0.0480000
        k(   18) = (  -0.2000000   0.6000000  -0.2000000), wk =   0.0480000
        k(   19) = (   0.7000000  -0.3000000   0.7000000), wk =   0.0480000
        k(   20) = (   0.6000000  -0.2000000   0.6000000), wk =   0.0480000
        k(   21) = (   0.5000000  -0.1000000   0.5000000), wk =   0.0480000
        k(   22) = (   0.4000000   0.0000000   0.4000000), wk =   0.0240000
        k(   23) = (   0.0000000   0.6000000   0.0000000), wk =   0.0120000
        k(   24) = (  -0.1000000   0.7000000  -0.1000000), wk =   0.0480000
        k(   25) = (   0.8000000  -0.2000000   0.8000000), wk =   0.0480000
        k(   26) = (   0.7000000  -0.1000000   0.7000000), wk =   0.0480000
        k(   27) = (   0.6000000  -0.0000000   0.6000000), wk =   0.0240000
        k(   28) = (   0.0000000   0.8000000   0.0000000), wk =   0.0120000
        k(   29) = (   0.9000000  -0.1000000   0.9000000), wk =   0.0480000
        k(   30) = (   0.8000000   0.0000000   0.8000000), wk =   0.0240000
        k(   31) = (   0.0000000  -1.0000000   0.0000000), wk =   0.0060000
        k(   32) = (  -0.2000000   0.4000000   0.0000000), wk =   0.0480000
        k(   33) = (  -0.3000000   0.5000000  -0.1000000), wk =   0.0960000
        k(   34) = (   0.6000000  -0.4000000   0.8000000), wk =   0.0960000
        k(   35) = (   0.5000000  -0.3000000   0.7000000), wk =   0.0480000
        k(   36) = (  -0.2000000   0.6000000   0.0000000), wk =   0.0480000
        k(   37) = (   0.7000000  -0.3000000   0.9000000), wk =   0.0960000
        k(   38) = (   0.6000000  -0.2000000   0.8000000), wk =   0.0960000
        k(   39) = (   0.5000000  -0.1000000   0.7000000), wk =   0.0960000
        k(   40) = (   0.4000000   0.0000000   0.6000000), wk =   0.0480000
        k(   41) = (   0.8000000  -0.2000000   1.0000000), wk =   0.0480000
        k(   42) = (   0.7000000  -0.1000000   0.9000000), wk =   0.0960000
        k(   43) = (   0.6000000   0.0000000   0.8000000), wk =   0.0480000
        k(   44) = (  -0.2000000  -1.0000000   0.0000000), wk =   0.0240000
        k(   45) = (   0.6000000  -0.2000000   1.0000000), wk =   0.0480000
        k(   46) = (   0.5000000  -0.1000000   0.9000000), wk =   0.0480000
        k(   47) = (  -0.4000000  -1.0000000   0.0000000), wk =   0.0240000

     Dense  grid:    11311 G-vectors     FFT dimensions: (  32,  32,  32)

     Estimated max dynamical RAM per process >      22.97 MB

     WARNING: libxc functional with ID  263 depends
      on external parameters: check the user_guide of
      QE if you need to modify them or to check their
      default values.

     Initial potential from superposition of free atoms

     starting charge       2.9979, renormalised to       3.0000
     Starting wfcs are    9 randomized atomic wfcs

     total cpu time spent up to now is        3.3 secs

     Self-consistent Calculation

     iteration #  1     ecut=    60.00 Ry     beta= 0.01
     Davidson diagonalization with overlap
     ethr =  1.00E-02,  avg # of iterations =  2.9

     Threshold (ethr) on eigenvalues was too large:
     Diagonalizing with lowered threshold

     Davidson diagonalization with overlap
     ethr =  1.71E-04,  avg # of iterations =  2.2

     total cpu time spent up to now is       14.1 secs

     total energy              =      -4.10672713 Ry
     estimated scf accuracy    <       0.00508862 Ry

     iteration #  2     ecut=    60.00 Ry     beta= 0.01
     Davidson diagonalization with overlap
     ethr =  1.70E-04,  avg # of iterations =  1.0

     total cpu time spent up to now is       18.2 secs

     total energy              =      -4.11124293 Ry
     estimated scf accuracy    <       0.00499224 Ry

     iteration #  3     ecut=    60.00 Ry     beta= 0.01
     Davidson diagonalization with overlap
     ethr =  1.66E-04,  avg # of iterations =  2.1

     total cpu time spent up to now is       23.7 secs

     total energy              =      -4.11314323 Ry
     estimated scf accuracy    <       0.00062350 Ry

     iteration #  4     ecut=    60.00 Ry     beta= 0.01
     Davidson diagonalization with overlap
     ethr =  2.08E-05,  avg # of iterations =  2.6

     total cpu time spent up to now is       29.1 secs

     total energy              =      -4.11335135 Ry
     estimated scf accuracy    <       0.00018168 Ry

     iteration #  5     ecut=    60.00 Ry     beta= 0.01
     Davidson diagonalization with overlap
     ethr =  6.06E-06,  avg # of iterations =  1.2

     total cpu time spent up to now is       33.0 secs

     total energy              =      -4.11336042 Ry
     estimated scf accuracy    <       0.00021363 Ry

     iteration #  6     ecut=    60.00 Ry     beta= 0.01
     Davidson diagonalization with overlap
     ethr =  6.06E-06,  avg # of iterations =  2.3

     total cpu time spent up to now is       37.9 secs

     total energy              =      -4.11373474 Ry
     estimated scf accuracy    <       0.00002442 Ry

     iteration #  7     ecut=    60.00 Ry     beta= 0.01
     Davidson diagonalization with overlap
     ethr =  8.14E-07,  avg # of iterations =  2.4

     total cpu time spent up to now is       42.0 secs

     total energy              =      -4.11377912 Ry
     estimated scf accuracy    <       0.00001011 Ry

     iteration #  8     ecut=    60.00 Ry     beta= 0.01
     Davidson diagonalization with overlap
     ethr =  3.37E-07,  avg # of iterations =  1.7

     total cpu time spent up to now is       44.1 secs

     total energy              =      -4.11379511 Ry
     estimated scf accuracy    <       0.00000732 Ry

     iteration #  9     ecut=    60.00 Ry     beta= 0.01
     Davidson diagonalization with overlap
     ethr =  2.44E-07,  avg # of iterations =  2.0

     total cpu time spent up to now is       46.4 secs

     total energy              =      -4.11367453 Ry
     estimated scf accuracy    <       0.00001909 Ry

     iteration # 10     ecut=    60.00 Ry     beta= 0.01
     Davidson diagonalization with overlap
     ethr =  2.44E-07,  avg # of iterations =  2.3

     total cpu time spent up to now is       48.8 secs

     total energy              =      -4.11376638 Ry
     estimated scf accuracy    <       0.00000232 Ry

     iteration # 11     ecut=    60.00 Ry     beta= 0.01
     Davidson diagonalization with overlap
     ethr =  7.74E-08,  avg # of iterations =  2.1

     total cpu time spent up to now is       50.5 secs

     total energy              =      -4.11378611 Ry
     estimated scf accuracy    <       0.00000854 Ry

     iteration # 12     ecut=    60.00 Ry     beta= 0.01
     Davidson diagonalization with overlap
     ethr =  7.74E-08,  avg # of iterations =  2.6

     total cpu time spent up to now is       52.7 secs

     total energy              =      -4.11389813 Ry
     estimated scf accuracy    <       0.00000230 Ry

     iteration # 13     ecut=    60.00 Ry     beta= 0.01
     Davidson diagonalization with overlap
     ethr =  7.67E-08,  avg # of iterations =  2.5

     total cpu time spent up to now is       54.8 secs

     total energy              =      -4.11367622 Ry
     estimated scf accuracy    <       0.00001065 Ry

     iteration # 14     ecut=    60.00 Ry     beta= 0.01
     Davidson diagonalization with overlap
     ethr =  7.67E-08,  avg # of iterations =  3.1

     total cpu time spent up to now is       57.1 secs

     End of self-consistent calculation

          k = 0.0000 0.0000 0.0000 (  1411 PWs)   bands (ev):

    -4.9688  13.1099  13.1099  13.1099  14.8265  14.8265

          k =-0.1000 0.1000-0.1000 (  1423 PWs)   bands (ev):

    -4.7599  10.9747  12.6320  12.6321  15.0559  15.5355

          k =-0.2000 0.2000-0.2000 (  1414 PWs)   bands (ev):

    -4.1352   7.9282  12.0159  12.0159  14.8092  16.0532

          k =-0.3000 0.3000-0.3000 (  1405 PWs)   bands (ev):

    -3.1015   5.0500  11.6374  11.6374  14.5919  15.0951

          k =-0.4000 0.4000-0.4000 (  1422 PWs)   bands (ev):

    -1.6792   2.4971  11.4940  11.4940  14.2159  14.5428

          k = 0.5000-0.5000 0.5000 (  1404 PWs)   bands (ev):

    -0.2528   0.6909  11.4754  11.4754  13.8802  13.8802

          k = 0.0000 0.2000 0.0000 (  1419 PWs)   bands (ev):

    -4.6903  11.6641  11.6641  12.3747  13.4127  16.6144

          k =-0.1000 0.3000-0.1000 (  1416 PWs)   bands (ev):

    -4.2042   9.0795  10.9046  11.9067  13.7432  15.6156

          k =-0.2000 0.4000-0.2000 (  1410 PWs)   bands (ev):

    -3.3065   6.1435  10.4693  11.2357  13.3698  15.8989

          k =-0.3000 0.5000-0.3000 (  1418 PWs)   bands (ev):

    -2.0105   3.4791  10.3776  10.5507  12.8125  16.0771

          k = 0.6000-0.4000 0.6000 (  1420 PWs)   bands (ev):

    -0.4044   1.2433   9.8988  10.6200  12.8721  15.0984

          k = 0.5000-0.3000 0.5000 (  1421 PWs)   bands (ev):

    -0.9516   1.9169   9.4542  11.1583  13.4571  14.6897

          k = 0.4000-0.2000 0.4000 (  1418 PWs)   bands (ev):

    -2.4854   4.3306   9.3196  11.8990  14.4571  14.7762

          k = 0.3000-0.1000 0.3000 (  1399 PWs)   bands (ev):

    -3.6511   7.1022   9.5317  12.6695  15.3888  15.6156

          k = 0.2000 0.0000 0.2000 (  1406 PWs)   bands (ev):

    -4.4124  10.0905  10.0990  13.1594  15.3609  15.4661

          k = 0.0000 0.4000 0.0000 (  1395 PWs)   bands (ev):

    -3.8574  10.0206  10.0206  10.6217  11.6121  13.5577

          k =-0.1000 0.5000-0.1000 (  1403 PWs)   bands (ev):

    -3.0981   7.5498   9.4714   9.6889  11.6767  13.3519

          k =-0.2000 0.6000-0.2000 (  1422 PWs)   bands (ev):

    -1.9357   4.8320   8.5237   9.2795  11.3803  15.2776

          k = 0.7000-0.3000 0.7000 (  1416 PWs)   bands (ev):

    -0.4057   2.4378   7.5431   9.4477  11.4915  17.3055

          k = 0.6000-0.2000 0.6000 (  1412 PWs)   bands (ev):

     0.1371   1.7723   6.8796   9.9673  12.0419  16.7285

          k = 0.5000-0.1000 0.5000 (  1418 PWs)   bands (ev):

    -1.4655   3.9995   6.5790  10.8096  12.9950  16.4759

          k = 0.4000 0.0000 0.4000 (  1412 PWs)   bands (ev):

    -2.7568   6.5579   6.7399  11.8782  14.2980  16.4740

          k = 0.0000 0.6000 0.0000 (  1411 PWs)   bands (ev):

    -2.4783   7.8572   8.8025   8.8025  10.2587  11.3793

          k =-0.1000 0.7000-0.1000 (  1408 PWs)   bands (ev):

    -1.4535   6.1370   6.9295   8.4928  10.3771  12.2306

          k = 0.8000-0.2000 0.8000 (  1416 PWs)   bands (ev):

    -0.0435   3.9693   5.4372   8.5492  10.4571  14.6222

          k = 0.7000-0.1000 0.7000 (  1423 PWs)   bands (ev):

     1.3720   2.2397   4.5522   8.9691  10.9149  17.3166

          k = 0.6000-0.0000 0.6000 (  1426 PWs)   bands (ev):

    -0.0628   3.9398   4.2055   9.7389  11.7706  18.4461

          k = 0.0000 0.8000 0.0000 (  1411 PWs)   bands (ev):

    -0.5679   4.7131   8.0624   8.0624   9.4354  10.3927

          k = 0.9000-0.1000 0.9000 (  1408 PWs)   bands (ev):

     0.7084   3.3414   6.1497   7.9992   9.7932  11.7021

          k = 0.8000 0.0000 0.8000 (  1418 PWs)   bands (ev):

     2.2460   2.3535   4.0414   8.3038  10.1682  14.3918

          k = 0.0000-1.0000 0.0000 (  1428 PWs)   bands (ev):

     1.8230   1.8721   7.8146   7.8146   9.1597  10.0922

          k =-0.2000 0.4000 0.0000 (  1405 PWs)   bands (ev):

    -3.5814   8.3447   8.4237  11.6679  13.7659  14.5484

          k =-0.3000 0.5000-0.1000 (  1412 PWs)   bands (ev):

    -2.5510   5.5544   8.0464  10.5420  13.6907  15.5324

          k = 0.6000-0.4000 0.8000 (  1419 PWs)   bands (ev):

    -1.1330   3.0205   8.0422   9.5243  13.6111  15.0607

          k = 0.5000-0.3000 0.7000 (  1418 PWs)   bands (ev):

     0.2944   1.2171   8.1786   9.0349  13.7003  14.6278

          k =-0.2000 0.6000 0.0000 (  1413 PWs)   bands (ev):

    -2.2060   7.0320   7.0597   8.6297  12.4992  13.0069

          k = 0.7000-0.3000 0.9000 (  1409 PWs)   bands (ev):

    -0.9182   4.4855   6.6949   7.5983  12.6500  14.9835

          k = 0.6000-0.2000 0.8000 (  1417 PWs)   bands (ev):

     0.6811   2.2840   6.0516   7.5912  12.9423  16.4861

          k = 0.5000-0.1000 0.7000 (  1421 PWs)   bands (ev):

     0.1289   2.9636   5.5317   8.2221  13.5779  16.1431

          k = 0.4000 0.0000 0.6000 (  1413 PWs)   bands (ev):

    -1.3942   5.2532   5.4508   9.2522  14.4332  15.7743

          k = 0.8000-0.2000 1.0000 (  1409 PWs)   bands (ev):

    -0.3027   4.8714   6.2811   6.7705  11.7225  12.2136

          k = 0.7000-0.1000 0.9000 (  1415 PWs)   bands (ev):

     1.2121   3.5577   4.4095   6.7121  12.1382  14.5593

          k = 0.6000 0.0000 0.8000 (  1421 PWs)   bands (ev):

     1.6844   3.1475   3.5236   7.2681  12.7022  17.2613

          k =-0.2000-1.0000 0.0000 (  1414 PWs)   bands (ev):

     2.0883   2.1021   6.0206   6.4203  11.4616  11.9556

          k = 0.6000-0.2000 1.0000 (  1414 PWs)   bands (ev):

     0.4807   4.4650   4.5190   6.1974  14.9009  15.0384

          k = 0.5000-0.1000 0.9000 (  1408 PWs)   bands (ev):

     1.9022   2.7424   4.6425   5.6231  15.0194  16.0485

          k =-0.4000-1.0000 0.0000 (  1420 PWs)   bands (ev):

     2.6648   2.8830   4.2016   4.9172  14.7892  14.8419

     the Fermi energy is     3.6925 ev

!    total energy              =      -4.11375507 Ry
     estimated scf accuracy    <       0.00000048 Ry
     smearing contrib. (-TS)   =      -0.03594278 Ry
     internal energy E=F+TS    =      -4.07781229 Ry

     The total energy is F=E-TS. E is the sum of the following terms:
     one-electron contribution =       1.89456662 Ry
     hartree contribution      =       0.02208371 Ry
     xc contribution           =      -1.39190660 Ry
     ewald contribution        =      -4.60255601 Ry

     convergence has been achieved in  14 iterations
     Writing meta-gga kinetic term

     Writing all to output data dir ./input_pw/Al/14/pwscf.save/
     Writing meta-gga kinetic term
 
     init_run     :      0.99s CPU      3.20s WALL (       1 calls)
     electrons    :     28.92s CPU     53.79s WALL (       1 calls)

     Called by init_run:
     wfcinit      :      0.88s CPU      2.72s WALL (       1 calls)
     potinit      :      0.03s CPU      0.12s WALL (       1 calls)
     hinit0       :      0.07s CPU      0.31s WALL (       1 calls)

     Called by electrons:
     c_bands      :     23.89s CPU     44.23s WALL (      15 calls)
     sum_band     :      4.64s CPU      8.79s WALL (      15 calls)
     v_of_rho     :      0.29s CPU      0.59s WALL (      15 calls)
     mix_rho      :      0.12s CPU      0.27s WALL (      15 calls)

     Called by c_bands:
     init_us_2    :      0.22s CPU      0.53s WALL (    1457 calls)
     init_us_2:cp :      0.22s CPU      0.53s WALL (    1457 calls)
     cegterg      :     23.67s CPU     43.83s WALL (     705 calls)

     Called by *egterg:
     cdiaghg      :      0.16s CPU      0.31s WALL (    2218 calls)
     h_psi        :     23.78s CPU     45.13s WALL (    2312 calls)
     g_psi        :      0.03s CPU      0.06s WALL (    1560 calls)

     Called by h_psi:
     h_psi:calbec :      0.08s CPU      0.16s WALL (    2312 calls)
     vloc_psi     :      5.84s CPU     10.90s WALL (    2312 calls)
     add_vuspsi   :      0.08s CPU      0.15s WALL (    2312 calls)
     h_psi_meta   :     17.72s CPU     33.87s WALL (    2312 calls)

     General routines
     calbec       :      0.07s CPU      0.15s WALL (    2312 calls)
     fft          :      0.04s CPU      0.06s WALL (     179 calls)
     ffts         :      0.04s CPU      0.09s WALL (     199 calls)
     fftw         :     23.72s CPU     44.85s WALL (  113632 calls)
     interpolate  :      0.00s CPU      0.00s WALL (      15 calls)
 
     Parallel routines
 
     PWSCF        :     29.95s CPU     57.12s WALL

 
   This run was terminated on:  11:19: 0  21Mar2023            

=------------------------------------------------------------------------------=
   JOB DONE.
=------------------------------------------------------------------------------=
