
     Program PWSCF v.7.0 starts on  4Apr2023 at  9:49: 0 

     This program is part of the open-source Quantum ESPRESSO suite
     for quantum simulation of materials; please cite
         "P. Giannozzi et al., J. Phys.:Condens. Matter 21 395502 (2009);
         "P. Giannozzi et al., J. Phys.:Condens. Matter 29 465901 (2017);
         "P. Giannozzi et al., J. Chem. Phys. 152 154105 (2020);
          URL http://www.quantum-espresso.org", 
     in publications or presentations arising from this work. More details at
     http://www.quantum-espresso.org/quote

     Parallel version (MPI), running on     1 processors

     MPI processes distributed on     1 nodes
     19622 MiB available memory on the printing compute node when the environment starts
 
     Waiting for input...
     Reading input from standard input
Warning: card &CELL ignored
Warning: card / ignored

     Current dimensions of program PWSCF are:
     Max number of different atomic species (ntypx) = 10
     Max number of k-points (npk) =  40000
     Max angular momentum in pseudopotentials (lmaxx) =  4
     file Al.SCAN.UPF2: wavefunction(s)  0D renormalized

     WARNING: the MGGA functional with ID    5 has been 
     read together with other dft terms, but it should 
     stand alone in order to work properly. The other 
     terms will be ignored.

     Subspace diagonalization in iterative solution of the eigenvalue problem:
     a serial algorithm will be used

 
     G-vector sticks info
     --------------------
     sticks:   dense  smooth     PW     G-vecs:    dense   smooth      PW
     Sum         721     721    223                12627    12627    2133
 
     Using Slab Decomposition
 


     bravais-lattice index     =            2
     lattice parameter (alat)  =       9.3126  a.u.
     unit-cell volume          =     201.9058 (a.u.)^3
     number of atoms/cell      =            1
     number of atomic types    =            1
     number of electrons       =         3.00
     number of Kohn-Sham states=            6
     kinetic-energy cutoff     =      60.0000  Ry
     charge density cutoff     =     240.0000  Ry
     scf convergence threshold =      1.0E-06
     mixing beta               =       0.0100
     number of iterations used =            8  local-TF  mixing
     Exchange-correlation= SLA  PW   SCAN SCAN
                           (   0   0   0   0   0 263 267)

     celldm(1)=   9.312570  celldm(2)=   0.000000  celldm(3)=   0.000000
     celldm(4)=   0.000000  celldm(5)=   0.000000  celldm(6)=   0.000000

     crystal axes: (cart. coord. in units of alat)
               a(1) = (  -0.500000   0.000000   0.500000 )  
               a(2) = (   0.000000   0.500000   0.500000 )  
               a(3) = (  -0.500000   0.500000   0.000000 )  

     reciprocal axes: (cart. coord. in units 2 pi/alat)
               b(1) = ( -1.000000 -1.000000  1.000000 )  
               b(2) = (  1.000000  1.000000  1.000000 )  
               b(3) = ( -1.000000  1.000000 -1.000000 )  


     PseudoPot. # 1 for Al read from file:
     ~/Documents/TA/PWDFT.jl/pseudopotentials/scan_upf/Al.SCAN.UPF2
     MD5 check sum: Not computed, couldn't open file
     Pseudo is Norm-conserving, Zval =  3.0
     Generated by new atomic code, or converted to UPF format
     Using radial grid of 1467 points,  2 beta functions with: 
                l(1) =   0
                l(2) =   1

     atomic species   valence    mass     pseudopotential
        Al             3.00    26.98154     Al( 1.00)

     Starting magnetic structure 
     atomic species   magnetization
        Al           1.000

     48 Sym. Ops., with inversion, found



   Cartesian axes

     site n.     atom                  positions (alat units)
         1           Al  tau(   1) = (   0.0000000   0.0000000   0.0000000  )

     number of k points=    47  Gaussian smearing, width (Ry)=  0.1000
                       cart. coord. in units 2pi/alat
        k(    1) = (   0.0000000   0.0000000   0.0000000), wk =   0.0010000
        k(    2) = (  -0.1000000   0.1000000  -0.1000000), wk =   0.0080000
        k(    3) = (  -0.2000000   0.2000000  -0.2000000), wk =   0.0080000
        k(    4) = (  -0.3000000   0.3000000  -0.3000000), wk =   0.0080000
        k(    5) = (  -0.4000000   0.4000000  -0.4000000), wk =   0.0080000
        k(    6) = (   0.5000000  -0.5000000   0.5000000), wk =   0.0040000
        k(    7) = (   0.0000000   0.2000000   0.0000000), wk =   0.0060000
        k(    8) = (  -0.1000000   0.3000000  -0.1000000), wk =   0.0240000
        k(    9) = (  -0.2000000   0.4000000  -0.2000000), wk =   0.0240000
        k(   10) = (  -0.3000000   0.5000000  -0.3000000), wk =   0.0240000
        k(   11) = (   0.6000000  -0.4000000   0.6000000), wk =   0.0240000
        k(   12) = (   0.5000000  -0.3000000   0.5000000), wk =   0.0240000
        k(   13) = (   0.4000000  -0.2000000   0.4000000), wk =   0.0240000
        k(   14) = (   0.3000000  -0.1000000   0.3000000), wk =   0.0240000
        k(   15) = (   0.2000000   0.0000000   0.2000000), wk =   0.0120000
        k(   16) = (   0.0000000   0.4000000   0.0000000), wk =   0.0060000
        k(   17) = (  -0.1000000   0.5000000  -0.1000000), wk =   0.0240000
        k(   18) = (  -0.2000000   0.6000000  -0.2000000), wk =   0.0240000
        k(   19) = (   0.7000000  -0.3000000   0.7000000), wk =   0.0240000
        k(   20) = (   0.6000000  -0.2000000   0.6000000), wk =   0.0240000
        k(   21) = (   0.5000000  -0.1000000   0.5000000), wk =   0.0240000
        k(   22) = (   0.4000000   0.0000000   0.4000000), wk =   0.0120000
        k(   23) = (   0.0000000   0.6000000   0.0000000), wk =   0.0060000
        k(   24) = (  -0.1000000   0.7000000  -0.1000000), wk =   0.0240000
        k(   25) = (   0.8000000  -0.2000000   0.8000000), wk =   0.0240000
        k(   26) = (   0.7000000  -0.1000000   0.7000000), wk =   0.0240000
        k(   27) = (   0.6000000  -0.0000000   0.6000000), wk =   0.0120000
        k(   28) = (   0.0000000   0.8000000   0.0000000), wk =   0.0060000
        k(   29) = (   0.9000000  -0.1000000   0.9000000), wk =   0.0240000
        k(   30) = (   0.8000000   0.0000000   0.8000000), wk =   0.0120000
        k(   31) = (   0.0000000  -1.0000000   0.0000000), wk =   0.0030000
        k(   32) = (  -0.2000000   0.4000000   0.0000000), wk =   0.0240000
        k(   33) = (  -0.3000000   0.5000000  -0.1000000), wk =   0.0480000
        k(   34) = (   0.6000000  -0.4000000   0.8000000), wk =   0.0480000
        k(   35) = (   0.5000000  -0.3000000   0.7000000), wk =   0.0240000
        k(   36) = (  -0.2000000   0.6000000   0.0000000), wk =   0.0240000
        k(   37) = (   0.7000000  -0.3000000   0.9000000), wk =   0.0480000
        k(   38) = (   0.6000000  -0.2000000   0.8000000), wk =   0.0480000
        k(   39) = (   0.5000000  -0.1000000   0.7000000), wk =   0.0480000
        k(   40) = (   0.4000000   0.0000000   0.6000000), wk =   0.0240000
        k(   41) = (   0.8000000  -0.2000000   1.0000000), wk =   0.0240000
        k(   42) = (   0.7000000  -0.1000000   0.9000000), wk =   0.0480000
        k(   43) = (   0.6000000   0.0000000   0.8000000), wk =   0.0240000
        k(   44) = (  -0.2000000  -1.0000000   0.0000000), wk =   0.0120000
        k(   45) = (   0.6000000  -0.2000000   1.0000000), wk =   0.0240000
        k(   46) = (   0.5000000  -0.1000000   0.9000000), wk =   0.0240000
        k(   47) = (  -0.4000000  -1.0000000   0.0000000), wk =   0.0120000

     Dense  grid:    12627 G-vectors     FFT dimensions: (  36,  36,  36)

     Estimated max dynamical RAM per process >      44.90 MB

     WARNING: libxc functional with ID  263 depends
      on external parameters: check the user_guide of
      QE if you need to modify them or to check their
      default values.
     Generating pointlists ...
     new r_m :   0.2917 (alat units)  2.7163 (a.u.) for type    1

     Initial potential from superposition of free atoms

     starting charge       2.9979, renormalised to       3.0000
     Starting wfcs are    9 randomized atomic wfcs

     total cpu time spent up to now is        8.5 secs

     Self-consistent Calculation

     iteration #  1     ecut=    60.00 Ry     beta= 0.01
     Davidson diagonalization with overlap
     c_bands:  5 eigenvalues not converged
     c_bands:  5 eigenvalues not converged
     c_bands:  5 eigenvalues not converged
     c_bands:  5 eigenvalues not converged
     c_bands:  5 eigenvalues not converged
     c_bands:  5 eigenvalues not converged
     c_bands:  5 eigenvalues not converged
     c_bands:  5 eigenvalues not converged
     c_bands:  5 eigenvalues not converged
     c_bands:  5 eigenvalues not converged
     c_bands:  5 eigenvalues not converged
     c_bands:  5 eigenvalues not converged
     c_bands:  5 eigenvalues not converged
     c_bands:  5 eigenvalues not converged
     c_bands:  5 eigenvalues not converged
     c_bands:  5 eigenvalues not converged
     c_bands:  5 eigenvalues not converged
     c_bands:  5 eigenvalues not converged
     c_bands:  5 eigenvalues not converged
     c_bands:  5 eigenvalues not converged
     c_bands:  5 eigenvalues not converged
     c_bands:  5 eigenvalues not converged
     c_bands:  5 eigenvalues not converged
     c_bands:  5 eigenvalues not converged
     c_bands:  5 eigenvalues not converged
     c_bands:  5 eigenvalues not converged
     c_bands:  5 eigenvalues not converged
     c_bands:  4 eigenvalues not converged
     c_bands:  5 eigenvalues not converged
     c_bands:  5 eigenvalues not converged
     c_bands:  5 eigenvalues not converged
     c_bands:  5 eigenvalues not converged
     c_bands:  5 eigenvalues not converged
     c_bands:  5 eigenvalues not converged
     c_bands:  5 eigenvalues not converged
     c_bands:  5 eigenvalues not converged
     c_bands:  5 eigenvalues not converged
     c_bands:  5 eigenvalues not converged
     c_bands:  5 eigenvalues not converged
     c_bands:  5 eigenvalues not converged
     c_bands:  5 eigenvalues not converged
     c_bands:  5 eigenvalues not converged
     c_bands:  5 eigenvalues not converged
     c_bands:  5 eigenvalues not converged
     c_bands:  4 eigenvalues not converged
     c_bands:  5 eigenvalues not converged
     c_bands:  4 eigenvalues not converged
     ethr =  1.00E-02,  avg # of iterations = 21.5

     negative rho (up,down):  0.000E+00 2.217E-04

     total cpu time spent up to now is      121.8 secs

     total energy              =    -255.56890106 Ry
     estimated scf accuracy    <   48565.24223329 Ry

     total magnetization       =    -3.00 Bohr mag/cell
     absolute magnetization    =     3.00 Bohr mag/cell

     iteration #  2     ecut=    60.00 Ry     beta= 0.01
     Davidson diagonalization with overlap
     c_bands:  1 eigenvalues not converged
     c_bands:  1 eigenvalues not converged
     c_bands:  1 eigenvalues not converged
     c_bands:  2 eigenvalues not converged
     c_bands:  1 eigenvalues not converged
     c_bands:  3 eigenvalues not converged
     c_bands:  1 eigenvalues not converged
     c_bands:  3 eigenvalues not converged
     c_bands:  1 eigenvalues not converged
     ethr =  1.00E-02,  avg # of iterations = 19.5

     negative rho (up,down):  0.000E+00 1.573E-04

     total cpu time spent up to now is      207.8 secs

     total energy              =      -3.70437648 Ry
     estimated scf accuracy    <      58.78654153 Ry

     total magnetization       =     2.66 Bohr mag/cell
     absolute magnetization    =     2.66 Bohr mag/cell

     iteration #  3     ecut=    60.00 Ry     beta= 0.01
     Davidson diagonalization with overlap
     ethr =  1.00E-02,  avg # of iterations =  2.5

     negative rho (up,down):  0.000E+00 6.507E-04

     total cpu time spent up to now is      222.6 secs

     total energy              =       4.58030891 Ry
     estimated scf accuracy    <      52.31636348 Ry

     total magnetization       =     1.74 Bohr mag/cell
     absolute magnetization    =     1.74 Bohr mag/cell

     iteration #  4     ecut=    60.00 Ry     beta= 0.01
     Davidson diagonalization with overlap
     ethr =  1.00E-02,  avg # of iterations =  6.7

     negative rho (up,down):  0.000E+00 1.651E-03

     total cpu time spent up to now is      248.9 secs

     total energy              =      -3.65458129 Ry
     estimated scf accuracy    <      62.07192483 Ry

     total magnetization       =     3.00 Bohr mag/cell
     absolute magnetization    =     3.00 Bohr mag/cell

     iteration #  5     ecut=    60.00 Ry     beta= 0.01
     Davidson diagonalization with overlap
     ethr =  1.00E-02,  avg # of iterations =  2.2

     negative rho (up,down):  0.000E+00 1.560E-01

     total cpu time spent up to now is      259.9 secs

     total energy              =      -3.60214449 Ry
     estimated scf accuracy    <      61.17669536 Ry

     total magnetization       =     3.00 Bohr mag/cell
     absolute magnetization    =     3.00 Bohr mag/cell

     iteration #  6     ecut=    60.00 Ry     beta= 0.01
     Davidson diagonalization with overlap
     ethr =  1.00E-02,  avg # of iterations =  3.0

     negative rho (up,down):  0.000E+00 3.161E-01

     total cpu time spent up to now is      272.7 secs

     total energy              =      -3.83836272 Ry
     estimated scf accuracy    <      12.76919394 Ry

     total magnetization       =     2.85 Bohr mag/cell
     absolute magnetization    =     2.85 Bohr mag/cell

     iteration #  7     ecut=    60.00 Ry     beta= 0.01
     Davidson diagonalization with overlap
     ethr =  1.00E-02,  avg # of iterations =  5.7

     negative rho (up,down):  0.000E+00 3.071E-01

     total cpu time spent up to now is      295.6 secs

     total energy              =     -17.62908194 Ry
     estimated scf accuracy    <   74372.37828147 Ry

     total magnetization       =    -3.00 Bohr mag/cell
     absolute magnetization    =     3.00 Bohr mag/cell

     iteration #  8     ecut=    60.00 Ry     beta= 0.01
     Davidson diagonalization with overlap
     ethr =  1.00E-02,  avg # of iterations =  2.9

     negative rho (up,down):  0.000E+00 3.046E-01

     total cpu time spent up to now is      311.9 secs

     total energy              =     -43.20938358 Ry
     estimated scf accuracy    <   22655.19880169 Ry

     total magnetization       =    -3.00 Bohr mag/cell
     absolute magnetization    =     3.00 Bohr mag/cell

     iteration #  9     ecut=    60.00 Ry     beta= 0.01
     Davidson diagonalization with overlap
     ethr =  1.00E-02,  avg # of iterations =  2.0

     negative rho (up,down):  0.000E+00 3.011E-01

     total cpu time spent up to now is      325.0 secs

     total energy              =     -50.35645018 Ry
     estimated scf accuracy    <   27043.89621029 Ry

     total magnetization       =    -3.00 Bohr mag/cell
     absolute magnetization    =     3.00 Bohr mag/cell

     iteration # 10     ecut=    60.00 Ry     beta= 0.01
     Davidson diagonalization with overlap
     ethr =  1.00E-02,  avg # of iterations =  1.5

     negative rho (up,down):  0.000E+00 3.068E-01

     total cpu time spent up to now is      336.4 secs

     total energy              =     -92.40997121 Ry
     estimated scf accuracy    <   32947.16233051 Ry

     total magnetization       =    -3.00 Bohr mag/cell
     absolute magnetization    =     3.00 Bohr mag/cell

     iteration # 11     ecut=    60.00 Ry     beta= 0.01
     Davidson diagonalization with overlap
     ethr =  1.00E-02,  avg # of iterations =  2.5

     negative rho (up,down):  0.000E+00 3.134E-01

     total cpu time spent up to now is      348.7 secs

     total energy              =     -56.55755392 Ry
     estimated scf accuracy    <   50140.11417384 Ry

     total magnetization       =    -3.00 Bohr mag/cell
     absolute magnetization    =     3.00 Bohr mag/cell

     iteration # 12     ecut=    60.00 Ry     beta= 0.01
     Davidson diagonalization with overlap
     ethr =  1.00E-02,  avg # of iterations =  2.5

     negative rho (up,down):  0.000E+00 1.928E-01

     total cpu time spent up to now is      362.1 secs

     total energy              =     104.37790656 Ry
     estimated scf accuracy    <   33035.72723603 Ry

     total magnetization       =    -3.00 Bohr mag/cell
     absolute magnetization    =     3.00 Bohr mag/cell

     iteration # 13     ecut=    60.00 Ry     beta= 0.01
     Davidson diagonalization with overlap
     c_bands:  4 eigenvalues not converged
     c_bands:  4 eigenvalues not converged
     c_bands:  4 eigenvalues not converged
     c_bands:  3 eigenvalues not converged
     c_bands:  3 eigenvalues not converged
     c_bands:  3 eigenvalues not converged
     c_bands:  4 eigenvalues not converged
     c_bands:  4 eigenvalues not converged
     c_bands:  4 eigenvalues not converged
     c_bands:  5 eigenvalues not converged
     c_bands:  4 eigenvalues not converged
     c_bands:  4 eigenvalues not converged
     c_bands:  4 eigenvalues not converged
     c_bands:  4 eigenvalues not converged
     c_bands:  3 eigenvalues not converged
     c_bands:  4 eigenvalues not converged
     c_bands:  4 eigenvalues not converged
     c_bands:  4 eigenvalues not converged
     c_bands:  5 eigenvalues not converged
     c_bands:  4 eigenvalues not converged
     c_bands:  4 eigenvalues not converged
     c_bands:  4 eigenvalues not converged
     c_bands:  4 eigenvalues not converged
     c_bands:  4 eigenvalues not converged
     c_bands:  5 eigenvalues not converged
     c_bands:  4 eigenvalues not converged
     c_bands:  3 eigenvalues not converged
     c_bands:  5 eigenvalues not converged
     c_bands:  5 eigenvalues not converged
     c_bands:  4 eigenvalues not converged
     c_bands:  4 eigenvalues not converged
     c_bands:  4 eigenvalues not converged
     c_bands:  4 eigenvalues not converged
     c_bands:  4 eigenvalues not converged
     c_bands:  4 eigenvalues not converged
     c_bands:  5 eigenvalues not converged
     c_bands:  4 eigenvalues not converged
     c_bands:  4 eigenvalues not converged
     c_bands:  4 eigenvalues not converged
     c_bands:  5 eigenvalues not converged
     c_bands:  5 eigenvalues not converged
     c_bands:  5 eigenvalues not converged
     c_bands:  5 eigenvalues not converged
     c_bands:  5 eigenvalues not converged
     ethr =  1.00E-02,  avg # of iterations = 10.7

     negative rho (up,down):  0.000E+00 2.524E-01

     total cpu time spent up to now is      404.6 secs

     total energy              =      -3.93758039 Ry
     estimated scf accuracy    <       6.11531207 Ry

     total magnetization       =     2.54 Bohr mag/cell
     absolute magnetization    =     2.54 Bohr mag/cell

     iteration # 14     ecut=    60.00 Ry     beta= 0.01
     Davidson diagonalization with overlap
     ethr =  1.00E-02,  avg # of iterations =  6.4

     negative rho (up,down):  0.000E+00 1.168E-01

     total cpu time spent up to now is      422.3 secs

     total energy              =     314.25595564 Ry
     estimated scf accuracy    <   50711.44463839 Ry

     total magnetization       =    -3.00 Bohr mag/cell
     absolute magnetization    =     3.00 Bohr mag/cell

     iteration # 15     ecut=    60.00 Ry     beta= 0.01
     Davidson diagonalization with overlap
     c_bands:  4 eigenvalues not converged
     c_bands:  1 eigenvalues not converged
     c_bands:  2 eigenvalues not converged
     c_bands:  3 eigenvalues not converged
     c_bands:  1 eigenvalues not converged
     c_bands:  4 eigenvalues not converged
     c_bands:  2 eigenvalues not converged
     c_bands:  4 eigenvalues not converged
     c_bands:  5 eigenvalues not converged
     c_bands:  4 eigenvalues not converged
     c_bands:  1 eigenvalues not converged
     c_bands:  4 eigenvalues not converged
     c_bands:  5 eigenvalues not converged
     c_bands:  3 eigenvalues not converged
     c_bands:  2 eigenvalues not converged
     c_bands:  4 eigenvalues not converged
     c_bands:  1 eigenvalues not converged
     c_bands:  5 eigenvalues not converged
     c_bands:  4 eigenvalues not converged
     c_bands:  5 eigenvalues not converged
     c_bands:  5 eigenvalues not converged
     c_bands:  5 eigenvalues not converged
     c_bands:  3 eigenvalues not converged
     c_bands:  4 eigenvalues not converged
     c_bands:  4 eigenvalues not converged
     c_bands:  3 eigenvalues not converged
     c_bands:  5 eigenvalues not converged
     c_bands:  4 eigenvalues not converged
     c_bands:  3 eigenvalues not converged
     c_bands:  4 eigenvalues not converged
     c_bands:  5 eigenvalues not converged
     c_bands:  3 eigenvalues not converged
     c_bands:  5 eigenvalues not converged
     c_bands:  3 eigenvalues not converged
     c_bands:  5 eigenvalues not converged
     c_bands:  5 eigenvalues not converged
     ethr =  1.00E-02,  avg # of iterations = 10.7

     negative rho (up,down):  0.000E+00 1.887E-02

     total cpu time spent up to now is      450.2 secs

     total energy              =      -3.53952395 Ry
     estimated scf accuracy    <      20.88794129 Ry

     total magnetization       =     2.75 Bohr mag/cell
     absolute magnetization    =     2.75 Bohr mag/cell

     iteration # 16     ecut=    60.00 Ry     beta= 0.01
     Davidson diagonalization with overlap
     ethr =  1.00E-02,  avg # of iterations =  5.9

     negative rho (up,down):  0.000E+00 7.556E-02

     total cpu time spent up to now is      463.4 secs

     total energy              =      -3.41340861 Ry
     estimated scf accuracy    <      54.19170494 Ry

     total magnetization       =     2.97 Bohr mag/cell
     absolute magnetization    =     2.97 Bohr mag/cell

     iteration # 17     ecut=    60.00 Ry     beta= 0.01
     Davidson diagonalization with overlap
     c_bands:  1 eigenvalues not converged
     c_bands:  1 eigenvalues not converged
     c_bands:  4 eigenvalues not converged
     c_bands:  2 eigenvalues not converged
     c_bands:  2 eigenvalues not converged
     c_bands:  1 eigenvalues not converged
     c_bands:  3 eigenvalues not converged
     c_bands:  2 eigenvalues not converged
     c_bands:  1 eigenvalues not converged
     c_bands:  1 eigenvalues not converged
     c_bands:  5 eigenvalues not converged
     c_bands:  1 eigenvalues not converged
     c_bands:  2 eigenvalues not converged
     c_bands:  2 eigenvalues not converged
     c_bands:  1 eigenvalues not converged
     c_bands:  4 eigenvalues not converged
     c_bands:  2 eigenvalues not converged
     c_bands:  3 eigenvalues not converged
     ethr =  1.00E-02,  avg # of iterations =  9.6

     negative rho (up,down):  0.000E+00 7.247E-02

     total cpu time spent up to now is      486.2 secs

     total energy              =      56.49356014 Ry
     estimated scf accuracy    <   86762.11339507 Ry

     total magnetization       =    -3.00 Bohr mag/cell
     absolute magnetization    =     3.00 Bohr mag/cell

     iteration # 18     ecut=    60.00 Ry     beta= 0.01
     Davidson diagonalization with overlap
     c_bands:  2 eigenvalues not converged
     ethr =  1.00E-02,  avg # of iterations =  8.6

     negative rho (up,down):  0.000E+00 7.823E-02

     total cpu time spent up to now is      505.7 secs

     total energy              =      -3.26324893 Ry
     estimated scf accuracy    <      34.19974977 Ry

     total magnetization       =     2.86 Bohr mag/cell
     absolute magnetization    =     2.86 Bohr mag/cell

     iteration # 19     ecut=    60.00 Ry     beta= 0.01
     Davidson diagonalization with overlap
     ethr =  1.00E-02,  avg # of iterations =  2.0

     negative rho (up,down):  0.000E+00 7.559E-02

     total cpu time spent up to now is      510.2 secs

     total energy              =      -3.32891675 Ry
     estimated scf accuracy    <      33.38861155 Ry

     total magnetization       =     2.96 Bohr mag/cell
     absolute magnetization    =     2.96 Bohr mag/cell

     iteration # 20     ecut=    60.00 Ry     beta= 0.01
     Davidson diagonalization with overlap
     ethr =  1.00E-02,  avg # of iterations =  1.4

     negative rho (up,down):  0.000E+00 2.111E-01

     total cpu time spent up to now is      513.8 secs

     total energy              =      -3.77054941 Ry
     estimated scf accuracy    <      35.31028202 Ry

     total magnetization       =     2.95 Bohr mag/cell
     absolute magnetization    =     2.95 Bohr mag/cell

     iteration # 21     ecut=    60.00 Ry     beta= 0.01
     Davidson diagonalization with overlap
     ethr =  1.00E-02,  avg # of iterations =  1.9

     negative rho (up,down):  0.000E+00 2.644E-01

     total cpu time spent up to now is      518.2 secs

     total energy              =      -3.81097844 Ry
     estimated scf accuracy    <       3.45660654 Ry

     total magnetization       =     2.20 Bohr mag/cell
     absolute magnetization    =     2.20 Bohr mag/cell

     iteration # 22     ecut=    60.00 Ry     beta= 0.01
     Davidson diagonalization with overlap
     ethr =  1.00E-02,  avg # of iterations =  2.1

     negative rho (up,down):  0.000E+00 2.302E-01

     total cpu time spent up to now is      522.4 secs

     total energy              =      -2.88218216 Ry
     estimated scf accuracy    <       0.47360139 Ry

     total magnetization       =     1.81 Bohr mag/cell
     absolute magnetization    =     1.81 Bohr mag/cell

     iteration # 23     ecut=    60.00 Ry     beta= 0.01
     Davidson diagonalization with overlap
     c_bands:  1 eigenvalues not converged
     c_bands:  1 eigenvalues not converged
     c_bands:  4 eigenvalues not converged
     c_bands:  2 eigenvalues not converged
     c_bands:  4 eigenvalues not converged
     c_bands:  5 eigenvalues not converged
     c_bands:  5 eigenvalues not converged
     c_bands:  5 eigenvalues not converged
     c_bands:  4 eigenvalues not converged
     c_bands:  4 eigenvalues not converged
     c_bands:  5 eigenvalues not converged
     c_bands:  5 eigenvalues not converged
     c_bands:  5 eigenvalues not converged
     c_bands:  4 eigenvalues not converged
     c_bands:  4 eigenvalues not converged
     c_bands:  4 eigenvalues not converged
     c_bands:  5 eigenvalues not converged
     c_bands:  4 eigenvalues not converged
     c_bands:  5 eigenvalues not converged
     c_bands:  5 eigenvalues not converged
     c_bands:  4 eigenvalues not converged
     c_bands:  5 eigenvalues not converged
     c_bands:  5 eigenvalues not converged
     c_bands:  5 eigenvalues not converged
     c_bands:  3 eigenvalues not converged
     c_bands:  4 eigenvalues not converged
     c_bands:  4 eigenvalues not converged
     ethr =  1.00E-02,  avg # of iterations = 11.1

     negative rho (up,down):  0.000E+00 1.461E-01

     total cpu time spent up to now is      538.5 secs

     total energy              =    -161.93345918 Ry
     estimated scf accuracy    <   99135.59435392 Ry

     total magnetization       =    -3.00 Bohr mag/cell
     absolute magnetization    =     3.00 Bohr mag/cell

     iteration # 24     ecut=    60.00 Ry     beta= 0.01
     Davidson diagonalization with overlap
     c_bands:  5 eigenvalues not converged
     c_bands:  5 eigenvalues not converged
     c_bands:  5 eigenvalues not converged
     c_bands:  5 eigenvalues not converged
     c_bands:  4 eigenvalues not converged
     c_bands:  4 eigenvalues not converged
     c_bands:  2 eigenvalues not converged
     c_bands:  5 eigenvalues not converged
     c_bands:  4 eigenvalues not converged
     c_bands:  5 eigenvalues not converged
     c_bands:  5 eigenvalues not converged
     c_bands:  5 eigenvalues not converged
     c_bands:  5 eigenvalues not converged
     c_bands:  5 eigenvalues not converged
     c_bands:  4 eigenvalues not converged
     c_bands:  3 eigenvalues not converged
     c_bands:  5 eigenvalues not converged
     c_bands:  5 eigenvalues not converged
     c_bands:  5 eigenvalues not converged
     c_bands:  5 eigenvalues not converged
     c_bands:  5 eigenvalues not converged
     c_bands:  5 eigenvalues not converged
     c_bands:  4 eigenvalues not converged
     c_bands:  5 eigenvalues not converged
     c_bands:  5 eigenvalues not converged
     c_bands:  5 eigenvalues not converged
     c_bands:  4 eigenvalues not converged
     c_bands:  4 eigenvalues not converged
     c_bands:  5 eigenvalues not converged
     c_bands:  5 eigenvalues not converged
     c_bands:  3 eigenvalues not converged
     c_bands:  5 eigenvalues not converged
     c_bands:  5 eigenvalues not converged
     c_bands:  5 eigenvalues not converged
     c_bands:  4 eigenvalues not converged
     c_bands:  3 eigenvalues not converged
     c_bands:  5 eigenvalues not converged
     c_bands:  5 eigenvalues not converged
     c_bands:  5 eigenvalues not converged
     c_bands:  5 eigenvalues not converged
     c_bands:  5 eigenvalues not converged
     c_bands:  5 eigenvalues not converged
     c_bands:  3 eigenvalues not converged
     c_bands:  5 eigenvalues not converged
     c_bands:  5 eigenvalues not converged
     c_bands:  5 eigenvalues not converged
     c_bands:  5 eigenvalues not converged
     ethr =  1.00E-02,  avg # of iterations = 11.6

     negative rho (up,down):  0.000E+00 1.101E-01

     total cpu time spent up to now is      555.9 secs

     total energy              =      62.05768497 Ry
     estimated scf accuracy    <  100091.54640125 Ry

     total magnetization       =    -3.00 Bohr mag/cell
     absolute magnetization    =     3.00 Bohr mag/cell

     iteration # 25     ecut=    60.00 Ry     beta= 0.01
     Davidson diagonalization with overlap
     c_bands:  5 eigenvalues not converged
     c_bands:  2 eigenvalues not converged
     c_bands:  3 eigenvalues not converged
     c_bands:  3 eigenvalues not converged
     c_bands:  2 eigenvalues not converged
     c_bands:  5 eigenvalues not converged
     c_bands:  3 eigenvalues not converged
     c_bands:  3 eigenvalues not converged
     c_bands:  4 eigenvalues not converged
     c_bands:  4 eigenvalues not converged
     c_bands:  4 eigenvalues not converged
     c_bands:  3 eigenvalues not converged
     c_bands:  3 eigenvalues not converged
     c_bands:  2 eigenvalues not converged
     c_bands:  1 eigenvalues not converged
     c_bands:  3 eigenvalues not converged
     c_bands:  4 eigenvalues not converged
     c_bands:  4 eigenvalues not converged
     c_bands:  4 eigenvalues not converged
     c_bands:  3 eigenvalues not converged
     c_bands:  1 eigenvalues not converged
     c_bands:  1 eigenvalues not converged
     c_bands:  4 eigenvalues not converged
     c_bands:  3 eigenvalues not converged
     c_bands:  3 eigenvalues not converged
     c_bands:  3 eigenvalues not converged
     c_bands:  4 eigenvalues not converged
     c_bands:  2 eigenvalues not converged
     c_bands:  4 eigenvalues not converged
     c_bands:  4 eigenvalues not converged
     c_bands:  3 eigenvalues not converged
     c_bands:  2 eigenvalues not converged
     c_bands:  4 eigenvalues not converged
     c_bands:  4 eigenvalues not converged
     c_bands:  5 eigenvalues not converged
     c_bands:  4 eigenvalues not converged
     c_bands:  3 eigenvalues not converged
     c_bands:  3 eigenvalues not converged
     c_bands:  1 eigenvalues not converged
     c_bands:  3 eigenvalues not converged
     c_bands:  4 eigenvalues not converged
     c_bands:  3 eigenvalues not converged
     c_bands:  4 eigenvalues not converged
     ethr =  1.00E-02,  avg # of iterations = 10.5

     negative rho (up,down):  0.000E+00 1.265E-01

     total cpu time spent up to now is      582.4 secs

     total energy              =      -3.13472349 Ry
     estimated scf accuracy    <      22.52879662 Ry

     total magnetization       =     2.91 Bohr mag/cell
     absolute magnetization    =     2.91 Bohr mag/cell

     iteration # 26     ecut=    60.00 Ry     beta= 0.01
     Davidson diagonalization with overlap
     ethr =  1.00E-02,  avg # of iterations =  4.0

     negative rho (up,down):  0.000E+00 1.592E-01

     total cpu time spent up to now is      592.2 secs

     total energy              =      -3.23600954 Ry
     estimated scf accuracy    <      13.73046225 Ry

     total magnetization       =     2.59 Bohr mag/cell
     absolute magnetization    =     2.59 Bohr mag/cell

     iteration # 27     ecut=    60.00 Ry     beta= 0.01
     Davidson diagonalization with overlap
     ethr =  1.00E-02,  avg # of iterations =  1.9

     negative rho (up,down):  0.000E+00 3.009E-01

     total cpu time spent up to now is      600.3 secs

     total energy              =      -3.55205521 Ry
     estimated scf accuracy    <      10.13784542 Ry

     total magnetization       =     2.61 Bohr mag/cell
     absolute magnetization    =     2.61 Bohr mag/cell

     iteration # 28     ecut=    60.00 Ry     beta= 0.01
     Davidson diagonalization with overlap
     ethr =  1.00E-02,  avg # of iterations =  3.1

     negative rho (up,down):  0.000E+00 2.887E-01

     total cpu time spent up to now is      609.7 secs

     total energy              =      -3.79683827 Ry
     estimated scf accuracy    <       0.08279238 Ry

     total magnetization       =     1.92 Bohr mag/cell
     absolute magnetization    =     1.92 Bohr mag/cell

     iteration # 29     ecut=    60.00 Ry     beta= 0.01
     Davidson diagonalization with overlap
     ethr =  2.76E-03,  avg # of iterations =  2.1

     negative rho (up,down):  0.000E+00 1.449E-01

     total cpu time spent up to now is      618.0 secs

     total energy              =      -2.92324535 Ry
     estimated scf accuracy    <       0.29638762 Ry

     total magnetization       =     1.87 Bohr mag/cell
     absolute magnetization    =     1.87 Bohr mag/cell

     iteration # 30     ecut=    60.00 Ry     beta= 0.01
     Davidson diagonalization with overlap
     ethr =  2.76E-03,  avg # of iterations =  2.5

     negative rho (up,down):  0.000E+00 1.329E-03

     total cpu time spent up to now is      627.7 secs

     total energy              =      -3.50365616 Ry
     estimated scf accuracy    <      16.90628255 Ry

     total magnetization       =     2.67 Bohr mag/cell
     absolute magnetization    =     2.67 Bohr mag/cell

     iteration # 31     ecut=    60.00 Ry     beta= 0.01
     Davidson diagonalization with overlap
     ethr =  2.76E-03,  avg # of iterations =  5.8

     negative rho (up,down):  0.000E+00 5.138E-03

     total cpu time spent up to now is      642.8 secs

     total energy              =      -3.28151443 Ry
     estimated scf accuracy    <      79.14224089 Ry

     total magnetization       =     2.97 Bohr mag/cell
     absolute magnetization    =     2.97 Bohr mag/cell

     iteration # 32     ecut=    60.00 Ry     beta= 0.01
     Davidson diagonalization with overlap
     c_bands:  5 eigenvalues not converged
     c_bands:  5 eigenvalues not converged
     c_bands:  4 eigenvalues not converged
     c_bands:  2 eigenvalues not converged
     c_bands:  4 eigenvalues not converged
     c_bands:  4 eigenvalues not converged
     c_bands:  5 eigenvalues not converged
     c_bands:  4 eigenvalues not converged
     c_bands:  3 eigenvalues not converged
     c_bands:  4 eigenvalues not converged
     c_bands:  4 eigenvalues not converged
     c_bands:  5 eigenvalues not converged
     c_bands:  4 eigenvalues not converged
     c_bands:  4 eigenvalues not converged
     c_bands:  5 eigenvalues not converged
     c_bands:  5 eigenvalues not converged
     c_bands:  4 eigenvalues not converged
     c_bands:  5 eigenvalues not converged
     c_bands:  4 eigenvalues not converged
     c_bands:  4 eigenvalues not converged
     c_bands:  5 eigenvalues not converged
     c_bands:  5 eigenvalues not converged
     c_bands:  4 eigenvalues not converged
     c_bands:  2 eigenvalues not converged
     c_bands:  5 eigenvalues not converged
     c_bands:  5 eigenvalues not converged
     c_bands:  5 eigenvalues not converged
     c_bands:  3 eigenvalues not converged
     c_bands:  3 eigenvalues not converged
     c_bands:  4 eigenvalues not converged
     c_bands:  3 eigenvalues not converged
     c_bands:  4 eigenvalues not converged
     c_bands:  4 eigenvalues not converged
     c_bands:  5 eigenvalues not converged
     c_bands:  5 eigenvalues not converged
     c_bands:  3 eigenvalues not converged
     c_bands:  5 eigenvalues not converged
     c_bands:  1 eigenvalues not converged
     c_bands:  5 eigenvalues not converged
     c_bands:  5 eigenvalues not converged
     c_bands:  5 eigenvalues not converged
     c_bands:  5 eigenvalues not converged
     ethr =  2.76E-03,  avg # of iterations = 19.4

     negative rho (up,down):  0.000E+00 2.022E-01

     total cpu time spent up to now is      693.7 secs

     total energy              =      70.34669897 Ry
     estimated scf accuracy    <   34917.98268475 Ry

     total magnetization       =    -3.00 Bohr mag/cell
     absolute magnetization    =     3.00 Bohr mag/cell

     iteration # 33     ecut=    60.00 Ry     beta= 0.01
     Davidson diagonalization with overlap
     ethr =  2.76E-03,  avg # of iterations =  4.7

     negative rho (up,down):  0.000E+00 3.707E-01

     total cpu time spent up to now is      707.7 secs

     total energy              =      -3.68664741 Ry
     estimated scf accuracy    <       8.45740725 Ry

     total magnetization       =     2.07 Bohr mag/cell
     absolute magnetization    =     2.07 Bohr mag/cell

     iteration # 34     ecut=    60.00 Ry     beta= 0.01
     Davidson diagonalization with overlap
     ethr =  2.76E-03,  avg # of iterations =  2.9

     negative rho (up,down):  0.000E+00 3.331E-01

     total cpu time spent up to now is      716.7 secs

     total energy              =      -3.81774268 Ry
     estimated scf accuracy    <       1.04050334 Ry

     total magnetization       =     1.33 Bohr mag/cell
     absolute magnetization    =     1.33 Bohr mag/cell

     iteration # 35     ecut=    60.00 Ry     beta= 0.01
     Davidson diagonalization with overlap
     ethr =  2.76E-03,  avg # of iterations =  3.0

     negative rho (up,down):  0.000E+00 3.056E-01

     total cpu time spent up to now is      724.9 secs

     total energy              =     -85.76214715 Ry
     estimated scf accuracy    <    9590.12059960 Ry

     total magnetization       =     0.14 Bohr mag/cell
     absolute magnetization    =     1.95 Bohr mag/cell

     iteration # 36     ecut=    60.00 Ry     beta= 0.01
     Davidson diagonalization with overlap
     ethr =  2.76E-03,  avg # of iterations =  5.4

     negative rho (up,down):  0.000E+00 2.733E-01

     total cpu time spent up to now is      738.5 secs

     total energy              =      24.59595481 Ry
     estimated scf accuracy    <    7502.51681066 Ry

     total magnetization       =    -0.32 Bohr mag/cell
     absolute magnetization    =     1.66 Bohr mag/cell

     iteration # 37     ecut=    60.00 Ry     beta= 0.01
     Davidson diagonalization with overlap
     c_bands:  1 eigenvalues not converged
     c_bands:  2 eigenvalues not converged
     c_bands:  1 eigenvalues not converged
     c_bands:  1 eigenvalues not converged
     c_bands:  1 eigenvalues not converged
     c_bands:  2 eigenvalues not converged
     c_bands:  3 eigenvalues not converged
     c_bands:  5 eigenvalues not converged
     c_bands:  2 eigenvalues not converged
     c_bands:  1 eigenvalues not converged
     c_bands:  4 eigenvalues not converged
     c_bands:  1 eigenvalues not converged
     c_bands:  1 eigenvalues not converged
     c_bands:  5 eigenvalues not converged
     c_bands:  1 eigenvalues not converged
     c_bands:  1 eigenvalues not converged
     c_bands:  2 eigenvalues not converged
     c_bands:  1 eigenvalues not converged
     c_bands:  3 eigenvalues not converged
     c_bands:  1 eigenvalues not converged
     ethr =  2.76E-03,  avg # of iterations =  9.7

     negative rho (up,down):  0.000E+00 2.473E-01

     total cpu time spent up to now is      758.6 secs

     total energy              =      59.76671422 Ry
     estimated scf accuracy    <   32433.44191729 Ry

     total magnetization       =    -3.00 Bohr mag/cell
     absolute magnetization    =     3.00 Bohr mag/cell

     iteration # 38     ecut=    60.00 Ry     beta= 0.01
     Davidson diagonalization with overlap
     ethr =  2.76E-03,  avg # of iterations =  6.3

     negative rho (up,down):  0.000E+00 2.892E-01

     total cpu time spent up to now is      767.2 secs

     total energy              =      -3.25357647 Ry
     estimated scf accuracy    <       2.41779522 Ry

     total magnetization       =     1.70 Bohr mag/cell
     absolute magnetization    =     1.70 Bohr mag/cell

     iteration # 39     ecut=    60.00 Ry     beta= 0.01
     Davidson diagonalization with overlap
     c_bands:  4 eigenvalues not converged
     c_bands:  4 eigenvalues not converged
     c_bands:  4 eigenvalues not converged
     c_bands:  4 eigenvalues not converged
     c_bands:  5 eigenvalues not converged
     c_bands:  4 eigenvalues not converged
     c_bands:  3 eigenvalues not converged
     c_bands:  1 eigenvalues not converged
     c_bands:  2 eigenvalues not converged
     c_bands:  1 eigenvalues not converged
     c_bands:  5 eigenvalues not converged
     c_bands:  5 eigenvalues not converged
     c_bands:  5 eigenvalues not converged
     c_bands:  5 eigenvalues not converged
     c_bands:  1 eigenvalues not converged
     c_bands:  3 eigenvalues not converged
     c_bands:  5 eigenvalues not converged
     c_bands:  1 eigenvalues not converged
     c_bands:  5 eigenvalues not converged
     c_bands:  2 eigenvalues not converged
     c_bands:  4 eigenvalues not converged
     c_bands:  3 eigenvalues not converged
     c_bands:  5 eigenvalues not converged
     c_bands:  3 eigenvalues not converged
     c_bands:  3 eigenvalues not converged
     c_bands:  5 eigenvalues not converged
     c_bands:  1 eigenvalues not converged
     c_bands:  4 eigenvalues not converged
     c_bands:  2 eigenvalues not converged
     c_bands:  3 eigenvalues not converged
     c_bands:  4 eigenvalues not converged
     c_bands:  4 eigenvalues not converged
     c_bands:  4 eigenvalues not converged
     c_bands:  4 eigenvalues not converged
     c_bands:  2 eigenvalues not converged
     c_bands:  1 eigenvalues not converged
     c_bands:  5 eigenvalues not converged
     c_bands:  5 eigenvalues not converged
     c_bands:  5 eigenvalues not converged
     c_bands:  2 eigenvalues not converged
     c_bands:  2 eigenvalues not converged
     ethr =  2.76E-03,  avg # of iterations = 15.9

     negative rho (up,down):  0.000E+00 1.447E-03

     total cpu time spent up to now is      787.9 secs

     total energy              =     150.52473179 Ry
     estimated scf accuracy    <  107163.86885575 Ry

     total magnetization       =    -3.00 Bohr mag/cell
     absolute magnetization    =     3.00 Bohr mag/cell

     iteration # 40     ecut=    60.00 Ry     beta= 0.01
     Davidson diagonalization with overlap
     c_bands:  3 eigenvalues not converged
     c_bands:  5 eigenvalues not converged
     c_bands:  4 eigenvalues not converged
     c_bands:  1 eigenvalues not converged
     c_bands:  3 eigenvalues not converged
     c_bands:  1 eigenvalues not converged
     c_bands:  2 eigenvalues not converged
     c_bands:  1 eigenvalues not converged
     c_bands:  4 eigenvalues not converged
     c_bands:  3 eigenvalues not converged
     c_bands:  3 eigenvalues not converged
     c_bands:  4 eigenvalues not converged
     c_bands:  4 eigenvalues not converged
     c_bands:  3 eigenvalues not converged
     c_bands:  2 eigenvalues not converged
     c_bands:  3 eigenvalues not converged
     c_bands:  4 eigenvalues not converged
     c_bands:  4 eigenvalues not converged
     c_bands:  5 eigenvalues not converged
     c_bands:  4 eigenvalues not converged
     c_bands:  3 eigenvalues not converged
     c_bands:  5 eigenvalues not converged
     c_bands:  5 eigenvalues not converged
     c_bands:  5 eigenvalues not converged
     c_bands:  5 eigenvalues not converged
     c_bands:  3 eigenvalues not converged
     c_bands:  4 eigenvalues not converged
     c_bands:  5 eigenvalues not converged
     c_bands:  4 eigenvalues not converged
     c_bands:  2 eigenvalues not converged
     c_bands:  4 eigenvalues not converged
     c_bands:  5 eigenvalues not converged
     c_bands:  4 eigenvalues not converged
     c_bands:  4 eigenvalues not converged
     c_bands:  2 eigenvalues not converged
     c_bands:  5 eigenvalues not converged
     c_bands:  2 eigenvalues not converged
     c_bands:  5 eigenvalues not converged
     c_bands:  3 eigenvalues not converged
     c_bands:  2 eigenvalues not converged
     ethr =  2.76E-03,  avg # of iterations = 19.0

     negative rho (up,down):  0.000E+00 5.479E-03

     total cpu time spent up to now is      812.2 secs

     total energy              =     104.13716851 Ry
     estimated scf accuracy    <  116239.17466455 Ry

     total magnetization       =    -3.00 Bohr mag/cell
     absolute magnetization    =     3.00 Bohr mag/cell

     iteration # 41     ecut=    60.00 Ry     beta= 0.01
     Davidson diagonalization with overlap
     ethr =  2.76E-03,  avg # of iterations =  6.5

     negative rho (up,down):  0.000E+00 6.550E-03

     total cpu time spent up to now is      820.8 secs

     total energy              =      -3.30151600 Ry
     estimated scf accuracy    <      74.05311498 Ry

     total magnetization       =     1.89 Bohr mag/cell
     absolute magnetization    =     1.89 Bohr mag/cell

     iteration # 42     ecut=    60.00 Ry     beta= 0.01
     Davidson diagonalization with overlap
     ethr =  2.76E-03,  avg # of iterations =  2.2

     negative rho (up,down):  0.000E+00 1.659E-02

     total cpu time spent up to now is      824.9 secs

     total energy              =       6.90923166 Ry
     estimated scf accuracy    <     148.03859978 Ry

     total magnetization       =     1.50 Bohr mag/cell
     absolute magnetization    =     1.50 Bohr mag/cell

     iteration # 43     ecut=    60.00 Ry     beta= 0.01
     Davidson diagonalization with overlap
     c_bands:  4 eigenvalues not converged
     c_bands:  3 eigenvalues not converged
     c_bands:  4 eigenvalues not converged
     c_bands:  3 eigenvalues not converged
     c_bands:  4 eigenvalues not converged
     c_bands:  3 eigenvalues not converged
     c_bands:  3 eigenvalues not converged
     c_bands:  3 eigenvalues not converged
     c_bands:  5 eigenvalues not converged
     c_bands:  3 eigenvalues not converged
     c_bands:  3 eigenvalues not converged
     c_bands:  3 eigenvalues not converged
     c_bands:  5 eigenvalues not converged
     c_bands:  3 eigenvalues not converged
     c_bands:  3 eigenvalues not converged
     c_bands:  2 eigenvalues not converged
     c_bands:  3 eigenvalues not converged
     c_bands:  3 eigenvalues not converged
     c_bands:  3 eigenvalues not converged
     c_bands:  3 eigenvalues not converged
     c_bands:  4 eigenvalues not converged
     c_bands:  1 eigenvalues not converged
     c_bands:  3 eigenvalues not converged
     c_bands:  3 eigenvalues not converged
     c_bands:  4 eigenvalues not converged
     c_bands:  4 eigenvalues not converged
     c_bands:  3 eigenvalues not converged
     c_bands:  3 eigenvalues not converged
     c_bands:  3 eigenvalues not converged
     c_bands:  5 eigenvalues not converged
     c_bands:  2 eigenvalues not converged
     c_bands:  4 eigenvalues not converged
     c_bands:  4 eigenvalues not converged
     c_bands:  2 eigenvalues not converged
     c_bands:  4 eigenvalues not converged
     c_bands:  4 eigenvalues not converged
     c_bands:  4 eigenvalues not converged
     c_bands:  4 eigenvalues not converged
     c_bands:  5 eigenvalues not converged
     c_bands:  4 eigenvalues not converged
     c_bands:  3 eigenvalues not converged
     c_bands:  3 eigenvalues not converged
     c_bands:  4 eigenvalues not converged
     c_bands:  1 eigenvalues not converged
     c_bands:  2 eigenvalues not converged
     c_bands:  5 eigenvalues not converged
     c_bands:  3 eigenvalues not converged
     ethr =  2.76E-03,  avg # of iterations = 11.4

     negative rho (up,down):  0.000E+00 1.969E-02

     total cpu time spent up to now is      838.7 secs

     total energy              =      61.87285048 Ry
     estimated scf accuracy    <   17634.94612918 Ry

     total magnetization       =    -0.29 Bohr mag/cell
     absolute magnetization    =     1.76 Bohr mag/cell

     iteration # 44     ecut=    60.00 Ry     beta= 0.01
     Davidson diagonalization with overlap
     c_bands:  3 eigenvalues not converged
     c_bands:  4 eigenvalues not converged
     c_bands:  4 eigenvalues not converged
     c_bands:  5 eigenvalues not converged
     c_bands:  4 eigenvalues not converged
     c_bands:  5 eigenvalues not converged
     c_bands:  5 eigenvalues not converged
     c_bands:  5 eigenvalues not converged
     c_bands:  5 eigenvalues not converged
     c_bands:  4 eigenvalues not converged
     c_bands:  4 eigenvalues not converged
     c_bands:  5 eigenvalues not converged
     c_bands:  5 eigenvalues not converged
     c_bands:  1 eigenvalues not converged
     c_bands:  5 eigenvalues not converged
     c_bands:  5 eigenvalues not converged
     c_bands:  5 eigenvalues not converged
     c_bands:  5 eigenvalues not converged
     c_bands:  5 eigenvalues not converged
     c_bands:  5 eigenvalues not converged
     c_bands:  5 eigenvalues not converged
     c_bands:  5 eigenvalues not converged
     c_bands:  5 eigenvalues not converged
     c_bands:  5 eigenvalues not converged
     c_bands:  4 eigenvalues not converged
     c_bands:  5 eigenvalues not converged
     c_bands:  5 eigenvalues not converged
     c_bands:  5 eigenvalues not converged
     c_bands:  5 eigenvalues not converged
     c_bands:  5 eigenvalues not converged
     c_bands:  4 eigenvalues not converged
     c_bands:  5 eigenvalues not converged
     c_bands:  5 eigenvalues not converged
     c_bands:  5 eigenvalues not converged
     c_bands:  5 eigenvalues not converged
     c_bands:  5 eigenvalues not converged
     c_bands:  5 eigenvalues not converged
     c_bands:  5 eigenvalues not converged
     c_bands:  4 eigenvalues not converged
     c_bands:  4 eigenvalues not converged
     c_bands:  5 eigenvalues not converged
     c_bands:  4 eigenvalues not converged
     c_bands:  4 eigenvalues not converged
     c_bands:  5 eigenvalues not converged
     c_bands:  5 eigenvalues not converged
     c_bands:  4 eigenvalues not converged
     c_bands:  5 eigenvalues not converged
     ethr =  2.76E-03,  avg # of iterations = 35.4

     negative rho (up,down):  0.000E+00 1.465E-01

     total cpu time spent up to now is      886.1 secs

     total energy              =      73.65474589 Ry
     estimated scf accuracy    <   49642.24300113 Ry

     total magnetization       =    -3.00 Bohr mag/cell
     absolute magnetization    =     3.00 Bohr mag/cell

     iteration # 45     ecut=    60.00 Ry     beta= 0.01
     Davidson diagonalization with overlap
     c_bands:  4 eigenvalues not converged
     c_bands:  3 eigenvalues not converged
     c_bands:  4 eigenvalues not converged
     c_bands:  4 eigenvalues not converged
     c_bands:  1 eigenvalues not converged
     c_bands:  1 eigenvalues not converged
     c_bands:  3 eigenvalues not converged
     c_bands:  4 eigenvalues not converged
     c_bands:  4 eigenvalues not converged
     c_bands:  2 eigenvalues not converged
     c_bands:  3 eigenvalues not converged
     c_bands:  1 eigenvalues not converged
     c_bands:  3 eigenvalues not converged
     c_bands:  1 eigenvalues not converged
     c_bands:  1 eigenvalues not converged
     c_bands:  1 eigenvalues not converged
     c_bands:  1 eigenvalues not converged
     c_bands:  3 eigenvalues not converged
     c_bands:  1 eigenvalues not converged
     c_bands:  1 eigenvalues not converged
     c_bands:  2 eigenvalues not converged
     c_bands:  1 eigenvalues not converged
     c_bands:  1 eigenvalues not converged
     c_bands:  1 eigenvalues not converged
     c_bands:  1 eigenvalues not converged
     c_bands:  5 eigenvalues not converged
     c_bands:  3 eigenvalues not converged
     c_bands:  5 eigenvalues not converged
     c_bands:  2 eigenvalues not converged
     c_bands:  2 eigenvalues not converged
     c_bands:  2 eigenvalues not converged
     c_bands:  4 eigenvalues not converged
     c_bands:  5 eigenvalues not converged
     c_bands:  5 eigenvalues not converged
     c_bands:  4 eigenvalues not converged
     c_bands:  1 eigenvalues not converged
     c_bands:  1 eigenvalues not converged
     c_bands:  2 eigenvalues not converged
     c_bands:  3 eigenvalues not converged
     ethr =  2.76E-03,  avg # of iterations = 10.5

     negative rho (up,down):  0.000E+00 1.221E-01

     total cpu time spent up to now is      899.5 secs

     total energy              =      41.53644898 Ry
     estimated scf accuracy    <   86362.09386317 Ry

     total magnetization       =    -3.00 Bohr mag/cell
     absolute magnetization    =     3.00 Bohr mag/cell

     iteration # 46     ecut=    60.00 Ry     beta= 0.01
     Davidson diagonalization with overlap
     c_bands:  5 eigenvalues not converged
     c_bands:  5 eigenvalues not converged
     c_bands:  5 eigenvalues not converged
     ethr =  2.76E-03,  avg # of iterations = 14.2

     negative rho (up,down):  0.000E+00 1.902E-01

     total cpu time spent up to now is      918.8 secs

     total energy              =     102.59113678 Ry
     estimated scf accuracy    <   97635.49233623 Ry

     total magnetization       =    -3.00 Bohr mag/cell
     absolute magnetization    =     3.00 Bohr mag/cell

     iteration # 47     ecut=    60.00 Ry     beta= 0.01
     Davidson diagonalization with overlap
     ethr =  2.76E-03,  avg # of iterations =  7.4

     negative rho (up,down):  0.000E+00 2.157E-01

     total cpu time spent up to now is      928.7 secs

     total energy              =      -3.67998707 Ry
     estimated scf accuracy    <       0.22688803 Ry

     total magnetization       =     1.76 Bohr mag/cell
     absolute magnetization    =     1.79 Bohr mag/cell

     iteration # 48     ecut=    60.00 Ry     beta= 0.01
     Davidson diagonalization with overlap
     c_bands:  3 eigenvalues not converged
     c_bands:  4 eigenvalues not converged
     c_bands:  4 eigenvalues not converged
     c_bands:  3 eigenvalues not converged
     c_bands:  5 eigenvalues not converged
     c_bands:  5 eigenvalues not converged
     c_bands:  5 eigenvalues not converged
     c_bands:  5 eigenvalues not converged
     c_bands:  5 eigenvalues not converged
     c_bands:  5 eigenvalues not converged
     c_bands:  5 eigenvalues not converged
     c_bands:  5 eigenvalues not converged
     c_bands:  4 eigenvalues not converged
     c_bands:  5 eigenvalues not converged
     c_bands:  5 eigenvalues not converged
     c_bands:  5 eigenvalues not converged
     c_bands:  5 eigenvalues not converged
     c_bands:  5 eigenvalues not converged
     c_bands:  3 eigenvalues not converged
     c_bands:  5 eigenvalues not converged
     c_bands:  5 eigenvalues not converged
     c_bands:  4 eigenvalues not converged
     c_bands:  5 eigenvalues not converged
     c_bands:  5 eigenvalues not converged
     c_bands:  4 eigenvalues not converged
     c_bands:  4 eigenvalues not converged
     c_bands:  4 eigenvalues not converged
     c_bands:  4 eigenvalues not converged
     c_bands:  5 eigenvalues not converged
     c_bands:  5 eigenvalues not converged
     c_bands:  5 eigenvalues not converged
     c_bands:  5 eigenvalues not converged
     c_bands:  5 eigenvalues not converged
     c_bands:  5 eigenvalues not converged
     c_bands:  3 eigenvalues not converged
     c_bands:  4 eigenvalues not converged
     c_bands:  5 eigenvalues not converged
     c_bands:  5 eigenvalues not converged
     c_bands:  5 eigenvalues not converged
     c_bands:  5 eigenvalues not converged
     c_bands:  5 eigenvalues not converged
     ethr =  2.76E-03,  avg # of iterations = 16.7

     negative rho (up,down):  0.000E+00 2.654E-01

     total cpu time spent up to now is      950.8 secs

     total energy              =     108.22875114 Ry
     estimated scf accuracy    <  122319.04100075 Ry

     total magnetization       =    -3.00 Bohr mag/cell
     absolute magnetization    =     3.00 Bohr mag/cell

     iteration # 49     ecut=    60.00 Ry     beta= 0.01
     Davidson diagonalization with overlap
     c_bands:  2 eigenvalues not converged
     c_bands:  2 eigenvalues not converged
     c_bands:  4 eigenvalues not converged
     ethr =  2.76E-03,  avg # of iterations =  7.7

     negative rho (up,down):  0.000E+00 2.477E-01

     total cpu time spent up to now is      960.9 secs

     total energy              =    -242.28480912 Ry
     estimated scf accuracy    <   62072.18532563 Ry

     total magnetization       =    -3.00 Bohr mag/cell
     absolute magnetization    =     3.00 Bohr mag/cell

     iteration # 50     ecut=    60.00 Ry     beta= 0.01
     Davidson diagonalization with overlap
     ethr =  2.76E-03,  avg # of iterations =  3.6

     negative rho (up,down):  0.000E+00 7.407E-03

     total cpu time spent up to now is      967.0 secs

     total energy              =     107.02571679 Ry
     estimated scf accuracy    <   98131.52012201 Ry

     total magnetization       =    -3.00 Bohr mag/cell
     absolute magnetization    =     3.00 Bohr mag/cell

     iteration # 51     ecut=    60.00 Ry     beta= 0.01
     Davidson diagonalization with overlap
     ethr =  2.76E-03,  avg # of iterations =  5.1

     negative rho (up,down):  0.000E+00 7.708E-03

     total cpu time spent up to now is      974.3 secs

     total energy              =      -3.57058902 Ry
     estimated scf accuracy    <     232.59866122 Ry

     total magnetization       =     1.32 Bohr mag/cell
     absolute magnetization    =     1.32 Bohr mag/cell

     iteration # 52     ecut=    60.00 Ry     beta= 0.01
     Davidson diagonalization with overlap
     ethr =  2.76E-03,  avg # of iterations =  1.0

     negative rho (up,down):  0.000E+00 8.444E-03

     total cpu time spent up to now is      977.5 secs

     total energy              =      -1.93450898 Ry
     estimated scf accuracy    <     269.90102265 Ry

     total magnetization       =     1.26 Bohr mag/cell
     absolute magnetization    =     1.26 Bohr mag/cell

     iteration # 53     ecut=    60.00 Ry     beta= 0.01
     Davidson diagonalization with overlap
     ethr =  2.76E-03,  avg # of iterations =  3.9

     negative rho (up,down):  0.000E+00 6.106E-01

     total cpu time spent up to now is      983.3 secs

     total energy              =      -1.46494233 Ry
     estimated scf accuracy    <     106.80384854 Ry

     total magnetization       =     2.10 Bohr mag/cell
     absolute magnetization    =     2.10 Bohr mag/cell

     iteration # 54     ecut=    60.00 Ry     beta= 0.01
     Davidson diagonalization with overlap
     c_bands:  1 eigenvalues not converged
     ethr =  2.76E-03,  avg # of iterations =  8.2

     negative rho (up,down):  0.000E+00 3.277E-02

     total cpu time spent up to now is      992.5 secs

     total energy              =      37.50675583 Ry
     estimated scf accuracy    <   14196.64070076 Ry

     total magnetization       =    -3.00 Bohr mag/cell
     absolute magnetization    =     3.00 Bohr mag/cell

     iteration # 55     ecut=    60.00 Ry     beta= 0.01
     Davidson diagonalization with overlap
     c_bands:  5 eigenvalues not converged
     c_bands:  4 eigenvalues not converged
     c_bands:  4 eigenvalues not converged
     c_bands:  5 eigenvalues not converged
     c_bands:  5 eigenvalues not converged
     c_bands:  5 eigenvalues not converged
     c_bands:  4 eigenvalues not converged
     c_bands:  5 eigenvalues not converged
     c_bands:  4 eigenvalues not converged
     c_bands:  5 eigenvalues not converged
     c_bands:  5 eigenvalues not converged
     c_bands:  4 eigenvalues not converged
     c_bands:  5 eigenvalues not converged
     c_bands:  4 eigenvalues not converged
     c_bands:  5 eigenvalues not converged
     c_bands:  4 eigenvalues not converged
     c_bands:  5 eigenvalues not converged
     c_bands:  2 eigenvalues not converged
     c_bands:  5 eigenvalues not converged
     c_bands:  4 eigenvalues not converged
     c_bands:  4 eigenvalues not converged
     c_bands:  4 eigenvalues not converged
     c_bands:  4 eigenvalues not converged
     c_bands:  5 eigenvalues not converged
     c_bands:  4 eigenvalues not converged
     c_bands:  4 eigenvalues not converged
     c_bands:  3 eigenvalues not converged
     c_bands:  5 eigenvalues not converged
     c_bands:  4 eigenvalues not converged
     c_bands:  3 eigenvalues not converged
     c_bands:  5 eigenvalues not converged
     c_bands:  5 eigenvalues not converged
     c_bands:  5 eigenvalues not converged
     c_bands:  4 eigenvalues not converged
     c_bands:  5 eigenvalues not converged
     c_bands:  5 eigenvalues not converged
     c_bands:  3 eigenvalues not converged
     c_bands:  4 eigenvalues not converged
     c_bands:  5 eigenvalues not converged
     c_bands:  5 eigenvalues not converged
     c_bands:  5 eigenvalues not converged
     c_bands:  5 eigenvalues not converged
     c_bands:  4 eigenvalues not converged
     c_bands:  4 eigenvalues not converged
     c_bands:  4 eigenvalues not converged
     ethr =  2.76E-03,  avg # of iterations = 26.5

     negative rho (up,down):  0.000E+00 4.271E-02

     total cpu time spent up to now is     1027.3 secs

     total energy              =    -800.71478728 Ry
     estimated scf accuracy    <  136031.36875913 Ry

     total magnetization       =    -3.00 Bohr mag/cell
     absolute magnetization    =     3.00 Bohr mag/cell

     iteration # 56     ecut=    60.00 Ry     beta= 0.01
     Davidson diagonalization with overlap
     c_bands:  4 eigenvalues not converged
     c_bands:  5 eigenvalues not converged
     c_bands:  5 eigenvalues not converged
     c_bands:  5 eigenvalues not converged
     c_bands:  4 eigenvalues not converged
     c_bands:  4 eigenvalues not converged
     c_bands:  5 eigenvalues not converged
     c_bands:  5 eigenvalues not converged
     c_bands:  5 eigenvalues not converged
     c_bands:  2 eigenvalues not converged
     c_bands:  5 eigenvalues not converged
     c_bands:  4 eigenvalues not converged
     c_bands:  5 eigenvalues not converged
     c_bands:  2 eigenvalues not converged
     c_bands:  4 eigenvalues not converged
     c_bands:  5 eigenvalues not converged
     c_bands:  4 eigenvalues not converged
     c_bands:  5 eigenvalues not converged
     c_bands:  2 eigenvalues not converged
     c_bands:  4 eigenvalues not converged
     c_bands:  5 eigenvalues not converged
     c_bands:  5 eigenvalues not converged
     c_bands:  4 eigenvalues not converged
     c_bands:  3 eigenvalues not converged
     c_bands:  4 eigenvalues not converged
     c_bands:  5 eigenvalues not converged
     c_bands:  5 eigenvalues not converged
     c_bands:  4 eigenvalues not converged
     c_bands:  4 eigenvalues not converged
     c_bands:  5 eigenvalues not converged
     c_bands:  5 eigenvalues not converged
     c_bands:  1 eigenvalues not converged
     c_bands:  3 eigenvalues not converged
     c_bands:  1 eigenvalues not converged
     c_bands:  4 eigenvalues not converged
     c_bands:  5 eigenvalues not converged
     c_bands:  4 eigenvalues not converged
     c_bands:  4 eigenvalues not converged
     c_bands:  4 eigenvalues not converged
     c_bands:  5 eigenvalues not converged
     c_bands:  4 eigenvalues not converged
     c_bands:  4 eigenvalues not converged
     c_bands:  4 eigenvalues not converged
     ethr =  2.76E-03,  avg # of iterations = 30.5

     negative rho (up,down):  0.000E+00 4.901E-02

     total cpu time spent up to now is     1067.0 secs

     total energy              =     322.50280206 Ry
     estimated scf accuracy    <  133941.31680650 Ry

     total magnetization       =    -3.00 Bohr mag/cell
     absolute magnetization    =     3.00 Bohr mag/cell

     iteration # 57     ecut=    60.00 Ry     beta= 0.01
     Davidson diagonalization with overlap
     c_bands:  5 eigenvalues not converged
     c_bands:  5 eigenvalues not converged
     c_bands:  4 eigenvalues not converged
     c_bands:  5 eigenvalues not converged
     c_bands:  5 eigenvalues not converged
     c_bands:  5 eigenvalues not converged
     c_bands:  4 eigenvalues not converged
     c_bands:  1 eigenvalues not converged
     c_bands:  4 eigenvalues not converged
     c_bands:  5 eigenvalues not converged
     c_bands:  5 eigenvalues not converged
     c_bands:  5 eigenvalues not converged
     c_bands:  5 eigenvalues not converged
     c_bands:  5 eigenvalues not converged
     c_bands:  4 eigenvalues not converged
     c_bands:  5 eigenvalues not converged
     c_bands:  3 eigenvalues not converged
     c_bands:  5 eigenvalues not converged
     c_bands:  5 eigenvalues not converged
     c_bands:  5 eigenvalues not converged
     c_bands:  4 eigenvalues not converged
     c_bands:  5 eigenvalues not converged
     c_bands:  4 eigenvalues not converged
     c_bands:  5 eigenvalues not converged
     c_bands:  5 eigenvalues not converged
     c_bands:  4 eigenvalues not converged
     c_bands:  2 eigenvalues not converged
     c_bands:  4 eigenvalues not converged
     c_bands:  4 eigenvalues not converged
     c_bands:  4 eigenvalues not converged
     c_bands:  4 eigenvalues not converged
     c_bands:  4 eigenvalues not converged
     c_bands:  4 eigenvalues not converged
     c_bands:  5 eigenvalues not converged
     c_bands:  5 eigenvalues not converged
     c_bands:  1 eigenvalues not converged
     c_bands:  5 eigenvalues not converged
     c_bands:  5 eigenvalues not converged
     c_bands:  4 eigenvalues not converged
     c_bands:  5 eigenvalues not converged
     c_bands:  4 eigenvalues not converged
     c_bands:  4 eigenvalues not converged
     ethr =  2.76E-03,  avg # of iterations = 39.6
