
     Program PWSCF v.7.0 starts on 14Mar2023 at 14:31: 8 

     This program is part of the open-source Quantum ESPRESSO suite
     for quantum simulation of materials; please cite
         "P. Giannozzi et al., J. Phys.:Condens. Matter 21 395502 (2009);
         "P. Giannozzi et al., J. Phys.:Condens. Matter 29 465901 (2017);
         "P. Giannozzi et al., J. Chem. Phys. 152 154105 (2020);
          URL http://www.quantum-espresso.org", 
     in publications or presentations arising from this work. More details at
     http://www.quantum-espresso.org/quote

     Parallel version (MPI), running on     1 processors

     MPI processes distributed on     1 nodes
     26475 MiB available memory on the printing compute node when the environment starts
 
     Waiting for input...
     Reading input from standard input
Warning: card &CELL ignored
Warning: card / ignored

     Current dimensions of program PWSCF are:
     Max number of different atomic species (ntypx) = 10
     Max number of k-points (npk) =  40000
     Max angular momentum in pseudopotentials (lmaxx) =  4
     file Cl.SCAN.UPF2: wavefunction(s)  0D renormalized

     WARNING: the MGGA functional with ID    5 has been 
     read together with other dft terms, but it should 
     stand alone in order to work properly. The other 
     terms will be ignored.

     WARNING: the MGGA functional with ID    5 has been 
     read together with other dft terms, but it should 
     stand alone in order to work properly. The other 
     terms will be ignored.

     Subspace diagonalization in iterative solution of the eigenvalue problem:
     a serial algorithm will be used

 
     G-vector sticks info
     --------------------
     sticks:   dense  smooth     PW     G-vecs:    dense   smooth      PW
     Sum        1201    1201    361                27581    27581    4477
 
     Using Slab Decomposition
 


     bravais-lattice index     =            2
     lattice parameter (alat)  =      13.2320  a.u.
     unit-cell volume          =     579.1839 (a.u.)^3
     number of atoms/cell      =            2
     number of atomic types    =            2
     number of electrons       =         8.00
     number of Kohn-Sham states=            4
     kinetic-energy cutoff     =      50.0000  Ry
     charge density cutoff     =     200.0000  Ry
     scf convergence threshold =      1.0E-06
     mixing beta               =       0.0100
     number of iterations used =            8  local-TF  mixing
     Exchange-correlation= SLA  PW   SCAN SCAN
                           (   0   0   0   0   0 263 267)

     celldm(1)=  13.232000  celldm(2)=   0.000000  celldm(3)=   0.000000
     celldm(4)=   0.000000  celldm(5)=   0.000000  celldm(6)=   0.000000

     crystal axes: (cart. coord. in units of alat)
               a(1) = (  -0.500000   0.000000   0.500000 )  
               a(2) = (   0.000000   0.500000   0.500000 )  
               a(3) = (  -0.500000   0.500000   0.000000 )  

     reciprocal axes: (cart. coord. in units 2 pi/alat)
               b(1) = ( -1.000000 -1.000000  1.000000 )  
               b(2) = (  1.000000  1.000000  1.000000 )  
               b(3) = ( -1.000000  1.000000 -1.000000 )  


     PseudoPot. # 1 for Li read from file:
     ~/Documents/TA/PWDFT.jl/pseudopotentials/scan_upf/Li.SCAN.UPF2
     MD5 check sum: Not computed, couldn't open file
     Pseudo is Norm-conserving, Zval =  1.0
     Generated by new atomic code, or converted to UPF format
     Using radial grid of 1321 points,  1 beta functions with: 
                l(1) =   0

     PseudoPot. # 2 for Cl read from file:
     ~/Documents/TA/PWDFT.jl/pseudopotentials/scan_upf/Cl.SCAN.UPF2
     MD5 check sum: Not computed, couldn't open file
     Pseudo is Norm-conserving, Zval =  7.0
     Generated by new atomic code, or converted to UPF format
     Using radial grid of 1493 points,  2 beta functions with: 
                l(1) =   0
                l(2) =   1

     atomic species   valence    mass     pseudopotential
        Na             1.00     6.94100     Li( 1.00)
        Cl             7.00    35.45300     Cl( 1.00)

     48 Sym. Ops., with inversion, found



   Cartesian axes

     site n.     atom                  positions (alat units)
         1           Na  tau(   1) = (   0.0000000   0.0000000   0.0000000  )
         2           Cl  tau(   2) = (   0.5000000   0.5000000   0.5000000  )

     number of k points=    47
                       cart. coord. in units 2pi/alat
        k(    1) = (   0.0000000   0.0000000   0.0000000), wk =   0.0020000
        k(    2) = (  -0.1000000   0.1000000  -0.1000000), wk =   0.0160000
        k(    3) = (  -0.2000000   0.2000000  -0.2000000), wk =   0.0160000
        k(    4) = (  -0.3000000   0.3000000  -0.3000000), wk =   0.0160000
        k(    5) = (  -0.4000000   0.4000000  -0.4000000), wk =   0.0160000
        k(    6) = (   0.5000000  -0.5000000   0.5000000), wk =   0.0080000
        k(    7) = (   0.0000000   0.2000000   0.0000000), wk =   0.0120000
        k(    8) = (  -0.1000000   0.3000000  -0.1000000), wk =   0.0480000
        k(    9) = (  -0.2000000   0.4000000  -0.2000000), wk =   0.0480000
        k(   10) = (  -0.3000000   0.5000000  -0.3000000), wk =   0.0480000
        k(   11) = (   0.6000000  -0.4000000   0.6000000), wk =   0.0480000
        k(   12) = (   0.5000000  -0.3000000   0.5000000), wk =   0.0480000
        k(   13) = (   0.4000000  -0.2000000   0.4000000), wk =   0.0480000
        k(   14) = (   0.3000000  -0.1000000   0.3000000), wk =   0.0480000
        k(   15) = (   0.2000000   0.0000000   0.2000000), wk =   0.0240000
        k(   16) = (   0.0000000   0.4000000   0.0000000), wk =   0.0120000
        k(   17) = (  -0.1000000   0.5000000  -0.1000000), wk =   0.0480000
        k(   18) = (  -0.2000000   0.6000000  -0.2000000), wk =   0.0480000
        k(   19) = (   0.7000000  -0.3000000   0.7000000), wk =   0.0480000
        k(   20) = (   0.6000000  -0.2000000   0.6000000), wk =   0.0480000
        k(   21) = (   0.5000000  -0.1000000   0.5000000), wk =   0.0480000
        k(   22) = (   0.4000000   0.0000000   0.4000000), wk =   0.0240000
        k(   23) = (   0.0000000   0.6000000   0.0000000), wk =   0.0120000
        k(   24) = (  -0.1000000   0.7000000  -0.1000000), wk =   0.0480000
        k(   25) = (   0.8000000  -0.2000000   0.8000000), wk =   0.0480000
        k(   26) = (   0.7000000  -0.1000000   0.7000000), wk =   0.0480000
        k(   27) = (   0.6000000  -0.0000000   0.6000000), wk =   0.0240000
        k(   28) = (   0.0000000   0.8000000   0.0000000), wk =   0.0120000
        k(   29) = (   0.9000000  -0.1000000   0.9000000), wk =   0.0480000
        k(   30) = (   0.8000000   0.0000000   0.8000000), wk =   0.0240000
        k(   31) = (   0.0000000  -1.0000000   0.0000000), wk =   0.0060000
        k(   32) = (  -0.2000000   0.4000000   0.0000000), wk =   0.0480000
        k(   33) = (  -0.3000000   0.5000000  -0.1000000), wk =   0.0960000
        k(   34) = (   0.6000000  -0.4000000   0.8000000), wk =   0.0960000
        k(   35) = (   0.5000000  -0.3000000   0.7000000), wk =   0.0480000
        k(   36) = (  -0.2000000   0.6000000   0.0000000), wk =   0.0480000
        k(   37) = (   0.7000000  -0.3000000   0.9000000), wk =   0.0960000
        k(   38) = (   0.6000000  -0.2000000   0.8000000), wk =   0.0960000
        k(   39) = (   0.5000000  -0.1000000   0.7000000), wk =   0.0960000
        k(   40) = (   0.4000000   0.0000000   0.6000000), wk =   0.0480000
        k(   41) = (   0.8000000  -0.2000000   1.0000000), wk =   0.0480000
        k(   42) = (   0.7000000  -0.1000000   0.9000000), wk =   0.0960000
        k(   43) = (   0.6000000   0.0000000   0.8000000), wk =   0.0480000
        k(   44) = (  -0.2000000  -1.0000000   0.0000000), wk =   0.0240000
        k(   45) = (   0.6000000  -0.2000000   1.0000000), wk =   0.0480000
        k(   46) = (   0.5000000  -0.1000000   0.9000000), wk =   0.0480000
        k(   47) = (  -0.4000000  -1.0000000   0.0000000), wk =   0.0240000

     Dense  grid:    27581 G-vectors     FFT dimensions: (  45,  45,  45)

     Estimated max dynamical RAM per process >      53.11 MB

     WARNING: libxc functional with ID  263 depends
      on external parameters: check the user_guide of
      QE if you need to modify them or to check their
      default values.

     Initial potential from superposition of free atoms

     starting charge       7.9953, renormalised to       8.0000
     Starting wfcs are   13 randomized atomic wfcs

     total cpu time spent up to now is       17.4 secs

     Self-consistent Calculation

     iteration #  1     ecut=    50.00 Ry     beta= 0.01
     Davidson diagonalization with overlap
     ethr =  1.00E-02,  avg # of iterations =  1.0

     total cpu time spent up to now is       30.5 secs

     total energy              =     -30.56312923 Ry
     estimated scf accuracy    <       0.43890923 Ry

     iteration #  2     ecut=    50.00 Ry     beta= 0.01
     Davidson diagonalization with overlap
     ethr =  5.49E-03,  avg # of iterations =  1.0

     total cpu time spent up to now is       41.8 secs

     total energy              =     -30.62061389 Ry
     estimated scf accuracy    <       0.41693876 Ry

     iteration #  3     ecut=    50.00 Ry     beta= 0.01
     Davidson diagonalization with overlap
     ethr =  5.21E-03,  avg # of iterations =  1.0

     total cpu time spent up to now is       51.6 secs

     total energy              =     -30.63262020 Ry
     estimated scf accuracy    <       0.29112257 Ry

     iteration #  4     ecut=    50.00 Ry     beta= 0.01
     Davidson diagonalization with overlap
     ethr =  3.64E-03,  avg # of iterations =  1.0

     total cpu time spent up to now is       59.5 secs

     total energy              =     -30.63522828 Ry
     estimated scf accuracy    <       0.02575685 Ry

     iteration #  5     ecut=    50.00 Ry     beta= 0.01
     Davidson diagonalization with overlap
     ethr =  3.22E-04,  avg # of iterations =  1.0

     total cpu time spent up to now is       66.8 secs

     total energy              =     -30.62916486 Ry
     estimated scf accuracy    <       0.02394847 Ry

     iteration #  6     ecut=    50.00 Ry     beta= 0.01
     Davidson diagonalization with overlap
     ethr =  2.99E-04,  avg # of iterations =  1.0

     total cpu time spent up to now is       74.2 secs

     total energy              =     -30.62653747 Ry
     estimated scf accuracy    <       0.03760320 Ry

     iteration #  7     ecut=    50.00 Ry     beta= 0.01
     Davidson diagonalization with overlap
     ethr =  2.99E-04,  avg # of iterations =  2.9

     total cpu time spent up to now is       82.8 secs

     total energy              =     -30.64432368 Ry
     estimated scf accuracy    <       0.02026515 Ry

     iteration #  8     ecut=    50.00 Ry     beta= 0.01
     Davidson diagonalization with overlap
     ethr =  2.53E-04,  avg # of iterations =  1.0

     total cpu time spent up to now is       88.6 secs

     total energy              =     -30.64461807 Ry
     estimated scf accuracy    <       0.02441344 Ry

     iteration #  9     ecut=    50.00 Ry     beta= 0.01
     Davidson diagonalization with overlap
     ethr =  2.53E-04,  avg # of iterations =  1.0

     total cpu time spent up to now is       94.0 secs

     total energy              =     -30.64428129 Ry
     estimated scf accuracy    <       0.02600502 Ry

     iteration # 10     ecut=    50.00 Ry     beta= 0.01
     Davidson diagonalization with overlap
     ethr =  2.53E-04,  avg # of iterations =  1.0

     total cpu time spent up to now is       99.3 secs

     total energy              =     -30.64042214 Ry
     estimated scf accuracy    <       0.02501801 Ry

     iteration # 11     ecut=    50.00 Ry     beta= 0.01
     Davidson diagonalization with overlap
     ethr =  2.53E-04,  avg # of iterations =  1.0

     total cpu time spent up to now is      102.9 secs

     total energy              =     -30.63975939 Ry
     estimated scf accuracy    <       0.01092520 Ry

     iteration # 12     ecut=    50.00 Ry     beta= 0.01
     Davidson diagonalization with overlap
     ethr =  1.37E-04,  avg # of iterations =  1.0

     total cpu time spent up to now is      105.6 secs

     total energy              =     -30.63820714 Ry
     estimated scf accuracy    <       0.00581362 Ry

     iteration # 13     ecut=    50.00 Ry     beta= 0.01
     Davidson diagonalization with overlap
     ethr =  7.27E-05,  avg # of iterations =  1.5

     total cpu time spent up to now is      108.3 secs

     total energy              =     -30.63891950 Ry
     estimated scf accuracy    <       0.00097603 Ry

     iteration # 14     ecut=    50.00 Ry     beta= 0.01
     Davidson diagonalization with overlap
     ethr =  1.22E-05,  avg # of iterations =  1.4

     total cpu time spent up to now is      111.1 secs

     total energy              =     -30.63897682 Ry
     estimated scf accuracy    <       0.00182076 Ry

     iteration # 15     ecut=    50.00 Ry     beta= 0.01
     Davidson diagonalization with overlap
     ethr =  1.22E-05,  avg # of iterations =  2.0

     total cpu time spent up to now is      114.8 secs

     total energy              =     -30.63909575 Ry
     estimated scf accuracy    <       0.00377759 Ry

     iteration # 16     ecut=    50.00 Ry     beta= 0.01
     Davidson diagonalization with overlap
     ethr =  1.22E-05,  avg # of iterations =  1.0

     total cpu time spent up to now is      117.5 secs

     total energy              =     -30.63912654 Ry
     estimated scf accuracy    <       0.00401845 Ry

     iteration # 17     ecut=    50.00 Ry     beta= 0.01
     Davidson diagonalization with overlap
     ethr =  1.22E-05,  avg # of iterations =  1.0

     total cpu time spent up to now is      120.2 secs

     total energy              =     -30.63902779 Ry
     estimated scf accuracy    <       0.00424651 Ry

     iteration # 18     ecut=    50.00 Ry     beta= 0.01
     Davidson diagonalization with overlap
     ethr =  1.22E-05,  avg # of iterations =  1.0

     total cpu time spent up to now is      122.9 secs

     total energy              =     -30.63837486 Ry
     estimated scf accuracy    <       0.00345401 Ry

     iteration # 19     ecut=    50.00 Ry     beta= 0.01
     Davidson diagonalization with overlap
     ethr =  1.22E-05,  avg # of iterations =  2.0

     total cpu time spent up to now is      126.6 secs

     total energy              =     -30.63859457 Ry
     estimated scf accuracy    <       0.00034981 Ry

     iteration # 20     ecut=    50.00 Ry     beta= 0.01
     Davidson diagonalization with overlap
     ethr =  4.37E-06,  avg # of iterations =  2.0

     total cpu time spent up to now is      130.0 secs

     total energy              =     -30.63864384 Ry
     estimated scf accuracy    <       0.00001742 Ry

     iteration # 21     ecut=    50.00 Ry     beta= 0.01
     Davidson diagonalization with overlap
     ethr =  2.18E-07,  avg # of iterations =  3.0

     total cpu time spent up to now is      134.0 secs

     total energy              =     -30.63865744 Ry
     estimated scf accuracy    <       0.00000994 Ry

     iteration # 22     ecut=    50.00 Ry     beta= 0.01
     Davidson diagonalization with overlap
     ethr =  1.24E-07,  avg # of iterations =  2.0

     total cpu time spent up to now is      137.5 secs

     total energy              =     -30.63867456 Ry
     estimated scf accuracy    <       0.00003549 Ry

     iteration # 23     ecut=    50.00 Ry     beta= 0.01
     Davidson diagonalization with overlap
     ethr =  1.24E-07,  avg # of iterations =  2.0

     total cpu time spent up to now is      141.2 secs

     total energy              =     -30.63863177 Ry
     estimated scf accuracy    <       0.00009994 Ry

     iteration # 24     ecut=    50.00 Ry     beta= 0.01
     Davidson diagonalization with overlap
     ethr =  1.24E-07,  avg # of iterations =  3.2

     total cpu time spent up to now is      145.6 secs

     total energy              =     -30.63864897 Ry
     estimated scf accuracy    <       0.00000188 Ry

     iteration # 25     ecut=    50.00 Ry     beta= 0.01
     Davidson diagonalization with overlap
     ethr =  2.36E-08,  avg # of iterations =  2.2

     total cpu time spent up to now is      149.3 secs

     total energy              =     -30.63865366 Ry
     estimated scf accuracy    <       0.00000950 Ry

     iteration # 26     ecut=    50.00 Ry     beta= 0.01
     Davidson diagonalization with overlap
     ethr =  2.36E-08,  avg # of iterations =  2.0

     total cpu time spent up to now is      153.0 secs

     total energy              =     -30.63865305 Ry
     estimated scf accuracy    <       0.00002727 Ry

     iteration # 27     ecut=    50.00 Ry     beta= 0.01
     Davidson diagonalization with overlap
     ethr =  2.36E-08,  avg # of iterations =  1.0

     total cpu time spent up to now is      155.6 secs

     total energy              =     -30.63864414 Ry
     estimated scf accuracy    <       0.00002369 Ry

     iteration # 28     ecut=    50.00 Ry     beta= 0.01
     Davidson diagonalization with overlap
     ethr =  2.36E-08,  avg # of iterations =  2.9

     total cpu time spent up to now is      159.5 secs

     total energy              =     -30.63864494 Ry
     estimated scf accuracy    <       0.00000150 Ry

     iteration # 29     ecut=    50.00 Ry     beta= 0.01
     Davidson diagonalization with overlap
     ethr =  1.88E-08,  avg # of iterations =  2.0

     total cpu time spent up to now is      163.0 secs

     End of self-consistent calculation

          k = 0.0000 0.0000 0.0000 (  3479 PWs)   bands (ev):

   -15.5583  -3.2945  -3.2945  -3.2945

          k =-0.1000 0.1000-0.1000 (  3473 PWs)   bands (ev):

   -15.5545  -3.3665  -3.2994  -3.2994

          k =-0.2000 0.2000-0.2000 (  3479 PWs)   bands (ev):

   -15.5448  -3.5392  -3.3122  -3.3122

          k =-0.3000 0.3000-0.3000 (  3452 PWs)   bands (ev):

   -15.5323  -3.7283  -3.3276  -3.3276

          k =-0.4000 0.4000-0.4000 (  3449 PWs)   bands (ev):

   -15.5224  -3.8666  -3.3400  -3.3400

          k = 0.5000-0.5000 0.5000 (  3444 PWs)   bands (ev):

   -15.5185  -3.9166  -3.3446  -3.3446

          k = 0.0000 0.2000 0.0000 (  3467 PWs)   bands (ev):

   -15.5532  -3.3638  -3.3145  -3.3145

          k =-0.1000 0.3000-0.1000 (  3482 PWs)   bands (ev):

   -15.5456  -3.4928  -3.3354  -3.3237

          k =-0.2000 0.4000-0.2000 (  3463 PWs)   bands (ev):

   -15.5340  -3.6693  -3.3540  -3.3403

          k =-0.3000 0.5000-0.3000 (  3471 PWs)   bands (ev):

   -15.5233  -3.8169  -3.3644  -3.3634

          k = 0.6000-0.4000 0.6000 (  3470 PWs)   bands (ev):

   -15.5175  -3.8915  -3.3866  -3.3600

          k = 0.5000-0.3000 0.5000 (  3455 PWs)   bands (ev):

   -15.5186  -3.8749  -3.3979  -3.3453

          k = 0.4000-0.2000 0.4000 (  3465 PWs)   bands (ev):

   -15.5266  -3.7722  -3.3930  -3.3247

          k = 0.3000-0.1000 0.3000 (  3460 PWs)   bands (ev):

   -15.5380  -3.6123  -3.3717  -3.3059

          k = 0.2000 0.0000 0.2000 (  3487 PWs)   bands (ev):

   -15.5489  -3.4533  -3.3362  -3.2961

          k = 0.0000 0.4000 0.0000 (  3479 PWs)   bands (ev):

   -15.5402  -3.5256  -3.3664  -3.3664

          k =-0.1000 0.5000-0.1000 (  3467 PWs)   bands (ev):

   -15.5307  -3.6451  -3.3939  -3.3932

          k =-0.2000 0.6000-0.2000 (  3466 PWs)   bands (ev):

   -15.5208  -3.7640  -3.4341  -3.4058

          k = 0.7000-0.3000 0.7000 (  3454 PWs)   bands (ev):

   -15.5140  -3.8320  -3.4825  -3.3997

          k = 0.6000-0.2000 0.6000 (  3457 PWs)   bands (ev):

   -15.5132  -3.8328  -3.5174  -3.3771

          k = 0.5000-0.1000 0.5000 (  3462 PWs)   bands (ev):

   -15.5187  -3.7763  -3.5151  -3.3464

          k = 0.4000 0.0000 0.4000 (  3467 PWs)   bands (ev):

   -15.5282  -3.6938  -3.4598  -3.3191

          k = 0.0000 0.6000 0.0000 (  3467 PWs)   bands (ev):

   -15.5238  -3.6970  -3.4298  -3.4298

          k =-0.1000 0.7000-0.1000 (  3460 PWs)   bands (ev):

   -15.5158  -3.7697  -3.4720  -3.4504

          k = 0.8000-0.2000 0.8000 (  3447 PWs)   bands (ev):

   -15.5098  -3.7995  -3.5457  -3.4476

          k = 0.7000-0.1000 0.7000 (  3455 PWs)   bands (ev):

   -15.5083  -3.7675  -3.6320  -3.4224

          k = 0.6000-0.0000 0.6000 (  3456 PWs)   bands (ev):

   -15.5117  -3.7427  -3.6380  -3.3839

          k = 0.0000 0.8000 0.0000 (  3447 PWs)   bands (ev):

   -15.5103  -3.8190  -3.4805  -3.4805

          k = 0.9000-0.1000 0.9000 (  3444 PWs)   bands (ev):

   -15.5064  -3.8373  -3.5221  -3.4855

          k = 0.8000 0.0000 0.8000 (  3440 PWs)   bands (ev):

   -15.5056  -3.7983  -3.6020  -3.4635

          k = 0.0000-1.0000 0.0000 (  3442 PWs)   bands (ev):

   -15.5051  -3.8625  -3.4997  -3.4997

          k =-0.2000 0.4000 0.0000 (  3464 PWs)   bands (ev):

   -15.5368  -3.5947  -3.3925  -3.3304

          k =-0.3000 0.5000-0.1000 (  3465 PWs)   bands (ev):

   -15.5261  -3.7214  -3.4399  -3.3474

          k = 0.6000-0.4000 0.8000 (  3457 PWs)   bands (ev):

   -15.5174  -3.8209  -3.4640  -3.3698

          k = 0.5000-0.3000 0.7000 (  3452 PWs)   bands (ev):

   -15.5140  -3.8578  -3.4704  -3.3805

          k =-0.2000 0.6000 0.0000 (  3463 PWs)   bands (ev):

   -15.5220  -3.7216  -3.4611  -3.4036

          k = 0.7000-0.3000 0.9000 (  3455 PWs)   bands (ev):

   -15.5140  -3.7791  -3.5201  -3.4238

          k = 0.6000-0.2000 0.8000 (  3454 PWs)   bands (ev):

   -15.5099  -3.7945  -3.5723  -3.4267

          k = 0.5000-0.1000 0.7000 (  3456 PWs)   bands (ev):

   -15.5112  -3.7750  -3.5930  -3.4044

          k = 0.4000 0.0000 0.6000 (  3461 PWs)   bands (ev):

   -15.5174  -3.7521  -3.5414  -3.3714

          k = 0.8000-0.2000 1.0000 (  3453 PWs)   bands (ev):

   -15.5099  -3.8029  -3.5158  -3.4737

          k = 0.7000-0.1000 0.9000 (  3444 PWs)   bands (ev):

   -15.5064  -3.7858  -3.5904  -3.4768

          k = 0.6000 0.0000 0.8000 (  3446 PWs)   bands (ev):

   -15.5069  -3.7139  -3.6861  -3.4476

          k =-0.2000-1.0000 0.0000 (  3444 PWs)   bands (ev):

   -15.5051  -3.8298  -3.5365  -3.5025

          k = 0.6000-0.2000 1.0000 (  3449 PWs)   bands (ev):

   -15.5085  -3.7567  -3.6061  -3.4578

          k = 0.5000-0.1000 0.9000 (  3442 PWs)   bands (ev):

   -15.5064  -3.7244  -3.6570  -3.4768

          k =-0.4000-1.0000 0.0000 (  3438 PWs)   bands (ev):

   -15.5051  -3.7425  -3.6305  -3.5070

     highest occupied level (ev):    -3.2945

!    total energy              =     -30.63864631 Ry
     estimated scf accuracy    <       0.00000077 Ry

     The total energy is the sum of the following terms:
     one-electron contribution =     -16.45277731 Ry
     hartree contribution      =      10.48116531 Ry
     xc contribution           =      -6.18915003 Ry
     ewald contribution        =     -18.47788428 Ry

     convergence has been achieved in  29 iterations
     Writing meta-gga kinetic term

     Writing all to output data dir ./input_pw/NaCl/19/pwscf.save/
     Writing meta-gga kinetic term
 
     init_run     :      6.60s CPU     17.36s WALL (       1 calls)
     electrons    :    122.29s CPU    145.52s WALL (       1 calls)

     Called by init_run:
     wfcinit      :      6.40s CPU     16.82s WALL (       1 calls)
     potinit      :      0.06s CPU      0.32s WALL (       1 calls)
     hinit0       :      0.10s CPU      0.17s WALL (       1 calls)

     Called by electrons:
     c_bands      :     96.75s CPU    114.52s WALL (      29 calls)
     sum_band     :     22.37s CPU     27.23s WALL (      29 calls)
     v_of_rho     :      1.42s CPU      1.99s WALL (      30 calls)
     mix_rho      :      1.75s CPU      1.97s WALL (      29 calls)

     Called by c_bands:
     init_us_2    :      0.88s CPU      1.07s WALL (    2773 calls)
     init_us_2:cp :      0.87s CPU      1.06s WALL (    2773 calls)
     cegterg      :     95.91s CPU    113.52s WALL (    1363 calls)

     Called by *egterg:
     cdiaghg      :      0.17s CPU      0.24s WALL (    3529 calls)
     h_psi        :    100.91s CPU    128.51s WALL (    3576 calls)
     g_psi        :      0.07s CPU      0.07s WALL (    2166 calls)

     Called by h_psi:
     h_psi:calbec :      0.27s CPU      0.32s WALL (    3576 calls)
     vloc_psi     :     25.04s CPU     31.78s WALL (    3576 calls)
     add_vuspsi   :      0.21s CPU      0.24s WALL (    3576 calls)
     h_psi_meta   :     75.28s CPU     96.05s WALL (    3576 calls)

     General routines
     calbec       :      0.26s CPU      0.32s WALL (    3576 calls)
     fft          :      0.29s CPU      0.44s WALL (     357 calls)
     ffts         :      0.71s CPU      0.83s WALL (     906 calls)
     fftw         :    105.34s CPU    133.68s WALL (  134280 calls)
     interpolate  :      0.00s CPU      0.00s WALL (      30 calls)
 
     Parallel routines
 
     PWSCF        :   2m 8.93s CPU   2m42.99s WALL

 
   This run was terminated on:  14:33:51  14Mar2023            

=------------------------------------------------------------------------------=
   JOB DONE.
=------------------------------------------------------------------------------=
