
     Program PWSCF v.7.0 starts on 14Mar2023 at 11:48:15 

     This program is part of the open-source Quantum ESPRESSO suite
     for quantum simulation of materials; please cite
         "P. Giannozzi et al., J. Phys.:Condens. Matter 21 395502 (2009);
         "P. Giannozzi et al., J. Phys.:Condens. Matter 29 465901 (2017);
         "P. Giannozzi et al., J. Chem. Phys. 152 154105 (2020);
          URL http://www.quantum-espresso.org", 
     in publications or presentations arising from this work. More details at
     http://www.quantum-espresso.org/quote

     Parallel version (MPI), running on     1 processors

     MPI processes distributed on     1 nodes
     27482 MiB available memory on the printing compute node when the environment starts
 
     Waiting for input...
     Reading input from standard input
Warning: card &CELL ignored
Warning: card / ignored

     Current dimensions of program PWSCF are:
     Max number of different atomic species (ntypx) = 10
     Max number of k-points (npk) =  40000
     Max angular momentum in pseudopotentials (lmaxx) =  4

     WARNING: the MGGA functional with ID    5 has been 
     read together with other dft terms, but it should 
     stand alone in order to work properly. The other 
     terms will be ignored.

     Subspace diagonalization in iterative solution of the eigenvalue problem:
     a serial algorithm will be used

 
     G-vector sticks info
     --------------------
     sticks:   dense  smooth     PW     G-vecs:    dense   smooth      PW
     Sum         367     367    121                 4693     4693     941
 
     Using Slab Decomposition
 


     bravais-lattice index     =            2
     lattice parameter (alat)  =       7.3502  a.u.
     unit-cell volume          =      99.2733 (a.u.)^3
     number of atoms/cell      =            2
     number of atomic types    =            1
     number of electrons       =         8.00
     number of Kohn-Sham states=            4
     kinetic-energy cutoff     =      50.0000  Ry
     charge density cutoff     =     200.0000  Ry
     scf convergence threshold =      1.0E-06
     mixing beta               =       0.0100
     number of iterations used =            8  local-TF  mixing
     Exchange-correlation= SLA  PW   SCAN SCAN
                           (   0   0   0   0   0 263 267)

     celldm(1)=   7.350171  celldm(2)=   0.000000  celldm(3)=   0.000000
     celldm(4)=   0.000000  celldm(5)=   0.000000  celldm(6)=   0.000000

     crystal axes: (cart. coord. in units of alat)
               a(1) = (  -0.500000   0.000000   0.500000 )  
               a(2) = (   0.000000   0.500000   0.500000 )  
               a(3) = (  -0.500000   0.500000   0.000000 )  

     reciprocal axes: (cart. coord. in units 2 pi/alat)
               b(1) = ( -1.000000 -1.000000  1.000000 )  
               b(2) = (  1.000000  1.000000  1.000000 )  
               b(3) = ( -1.000000  1.000000 -1.000000 )  


     PseudoPot. # 1 for C  read from file:
     ~/Documents/TA/PWDFT.jl/pseudopotentials/scan_upf/C.SCAN.UPF2
     MD5 check sum: Not computed, couldn't open file
     Pseudo is Norm-conserving, Zval =  4.0
     Generated by new atomic code, or converted to UPF format
     Using radial grid of 1389 points,  1 beta functions with: 
                l(1) =   0

     atomic species   valence    mass     pseudopotential
        C              4.00    12.01100     C ( 1.00)

     48 Sym. Ops., with inversion, found (24 have fractional translation)



   Cartesian axes

     site n.     atom                  positions (alat units)
         1           C   tau(   1) = (   0.0000000   0.0000000   0.0000000  )
         2           C   tau(   2) = (   0.2500000   0.2500000   0.2500000  )

     number of k points=    47
                       cart. coord. in units 2pi/alat
        k(    1) = (   0.0000000   0.0000000   0.0000000), wk =   0.0020000
        k(    2) = (  -0.1000000   0.1000000  -0.1000000), wk =   0.0160000
        k(    3) = (  -0.2000000   0.2000000  -0.2000000), wk =   0.0160000
        k(    4) = (  -0.3000000   0.3000000  -0.3000000), wk =   0.0160000
        k(    5) = (  -0.4000000   0.4000000  -0.4000000), wk =   0.0160000
        k(    6) = (   0.5000000  -0.5000000   0.5000000), wk =   0.0080000
        k(    7) = (   0.0000000   0.2000000   0.0000000), wk =   0.0120000
        k(    8) = (  -0.1000000   0.3000000  -0.1000000), wk =   0.0480000
        k(    9) = (  -0.2000000   0.4000000  -0.2000000), wk =   0.0480000
        k(   10) = (  -0.3000000   0.5000000  -0.3000000), wk =   0.0480000
        k(   11) = (   0.6000000  -0.4000000   0.6000000), wk =   0.0480000
        k(   12) = (   0.5000000  -0.3000000   0.5000000), wk =   0.0480000
        k(   13) = (   0.4000000  -0.2000000   0.4000000), wk =   0.0480000
        k(   14) = (   0.3000000  -0.1000000   0.3000000), wk =   0.0480000
        k(   15) = (   0.2000000   0.0000000   0.2000000), wk =   0.0240000
        k(   16) = (   0.0000000   0.4000000   0.0000000), wk =   0.0120000
        k(   17) = (  -0.1000000   0.5000000  -0.1000000), wk =   0.0480000
        k(   18) = (  -0.2000000   0.6000000  -0.2000000), wk =   0.0480000
        k(   19) = (   0.7000000  -0.3000000   0.7000000), wk =   0.0480000
        k(   20) = (   0.6000000  -0.2000000   0.6000000), wk =   0.0480000
        k(   21) = (   0.5000000  -0.1000000   0.5000000), wk =   0.0480000
        k(   22) = (   0.4000000   0.0000000   0.4000000), wk =   0.0240000
        k(   23) = (   0.0000000   0.6000000   0.0000000), wk =   0.0120000
        k(   24) = (  -0.1000000   0.7000000  -0.1000000), wk =   0.0480000
        k(   25) = (   0.8000000  -0.2000000   0.8000000), wk =   0.0480000
        k(   26) = (   0.7000000  -0.1000000   0.7000000), wk =   0.0480000
        k(   27) = (   0.6000000  -0.0000000   0.6000000), wk =   0.0240000
        k(   28) = (   0.0000000   0.8000000   0.0000000), wk =   0.0120000
        k(   29) = (   0.9000000  -0.1000000   0.9000000), wk =   0.0480000
        k(   30) = (   0.8000000   0.0000000   0.8000000), wk =   0.0240000
        k(   31) = (   0.0000000  -1.0000000   0.0000000), wk =   0.0060000
        k(   32) = (  -0.2000000   0.4000000   0.0000000), wk =   0.0480000
        k(   33) = (  -0.3000000   0.5000000  -0.1000000), wk =   0.0960000
        k(   34) = (   0.6000000  -0.4000000   0.8000000), wk =   0.0960000
        k(   35) = (   0.5000000  -0.3000000   0.7000000), wk =   0.0480000
        k(   36) = (  -0.2000000   0.6000000   0.0000000), wk =   0.0480000
        k(   37) = (   0.7000000  -0.3000000   0.9000000), wk =   0.0960000
        k(   38) = (   0.6000000  -0.2000000   0.8000000), wk =   0.0960000
        k(   39) = (   0.5000000  -0.1000000   0.7000000), wk =   0.0960000
        k(   40) = (   0.4000000   0.0000000   0.6000000), wk =   0.0480000
        k(   41) = (   0.8000000  -0.2000000   1.0000000), wk =   0.0480000
        k(   42) = (   0.7000000  -0.1000000   0.9000000), wk =   0.0960000
        k(   43) = (   0.6000000   0.0000000   0.8000000), wk =   0.0480000
        k(   44) = (  -0.2000000  -1.0000000   0.0000000), wk =   0.0240000
        k(   45) = (   0.6000000  -0.2000000   1.0000000), wk =   0.0480000
        k(   46) = (   0.5000000  -0.1000000   0.9000000), wk =   0.0480000
        k(   47) = (  -0.4000000  -1.0000000   0.0000000), wk =   0.0240000

     Dense  grid:     4693 G-vectors     FFT dimensions: (  24,  24,  24)

     Estimated max dynamical RAM per process >       8.67 MB

     WARNING: libxc functional with ID  263 depends
      on external parameters: check the user_guide of
      QE if you need to modify them or to check their
      default values.

     Initial potential from superposition of free atoms

     starting charge       7.9999, renormalised to       8.0000
     Starting wfcs are    8 randomized atomic wfcs

     total cpu time spent up to now is        1.4 secs

     Self-consistent Calculation

     iteration #  1     ecut=    50.00 Ry     beta= 0.01
     Davidson diagonalization with overlap
     ethr =  1.00E-02,  avg # of iterations =  2.0

     total cpu time spent up to now is        3.1 secs

     total energy              =     -22.55922773 Ry
     estimated scf accuracy    <       1.47901363 Ry

     iteration #  2     ecut=    50.00 Ry     beta= 0.01
     Davidson diagonalization with overlap
     ethr =  1.00E-02,  avg # of iterations =  1.0

     total cpu time spent up to now is        4.4 secs

     total energy              =     -22.36144363 Ry
     estimated scf accuracy    <       1.49234616 Ry

     iteration #  3     ecut=    50.00 Ry     beta= 0.01
     Davidson diagonalization with overlap
     ethr =  1.00E-02,  avg # of iterations =  1.0

     total cpu time spent up to now is        5.7 secs

     total energy              =     -22.62565651 Ry
     estimated scf accuracy    <       4.55388234 Ry

     iteration #  4     ecut=    50.00 Ry     beta= 0.01
     Davidson diagonalization with overlap
     ethr =  1.00E-02,  avg # of iterations =  1.0

     total cpu time spent up to now is        7.0 secs

     total energy              =     -22.66188703 Ry
     estimated scf accuracy    <       0.00881014 Ry

     iteration #  5     ecut=    50.00 Ry     beta= 0.01
     Davidson diagonalization with overlap
     ethr =  1.10E-04,  avg # of iterations =  1.1

     total cpu time spent up to now is        8.3 secs

     total energy              =     -22.66244833 Ry
     estimated scf accuracy    <       0.00777526 Ry

     iteration #  6     ecut=    50.00 Ry     beta= 0.01
     Davidson diagonalization with overlap
     ethr =  9.72E-05,  avg # of iterations =  1.0

     total cpu time spent up to now is        9.5 secs

     total energy              =     -22.66246597 Ry
     estimated scf accuracy    <       0.00742745 Ry

     iteration #  7     ecut=    50.00 Ry     beta= 0.01
     Davidson diagonalization with overlap
     ethr =  9.28E-05,  avg # of iterations =  1.0

     total cpu time spent up to now is       10.8 secs

     total energy              =     -22.66075308 Ry
     estimated scf accuracy    <       0.00708936 Ry

     iteration #  8     ecut=    50.00 Ry     beta= 0.01
     Davidson diagonalization with overlap
     ethr =  8.86E-05,  avg # of iterations =  1.0

     total cpu time spent up to now is       12.2 secs

     total energy              =     -22.66087172 Ry
     estimated scf accuracy    <       0.00227493 Ry

     iteration #  9     ecut=    50.00 Ry     beta= 0.01
     Davidson diagonalization with overlap
     ethr =  2.84E-05,  avg # of iterations =  1.0

     total cpu time spent up to now is       13.2 secs

     total energy              =     -22.66092101 Ry
     estimated scf accuracy    <       0.00259285 Ry

     iteration # 10     ecut=    50.00 Ry     beta= 0.01
     Davidson diagonalization with overlap
     ethr =  2.84E-05,  avg # of iterations =  1.0

     total cpu time spent up to now is       14.1 secs

     total energy              =     -22.66099088 Ry
     estimated scf accuracy    <       0.00210318 Ry

     iteration # 11     ecut=    50.00 Ry     beta= 0.01
     Davidson diagonalization with overlap
     ethr =  2.63E-05,  avg # of iterations =  1.0

     total cpu time spent up to now is       15.0 secs

     total energy              =     -22.66104796 Ry
     estimated scf accuracy    <       0.00048754 Ry

     iteration # 12     ecut=    50.00 Ry     beta= 0.01
     Davidson diagonalization with overlap
     ethr =  6.09E-06,  avg # of iterations =  1.0

     total cpu time spent up to now is       15.9 secs

     total energy              =     -22.66105622 Ry
     estimated scf accuracy    <       0.00007937 Ry

     iteration # 13     ecut=    50.00 Ry     beta= 0.01
     Davidson diagonalization with overlap
     ethr =  9.92E-07,  avg # of iterations =  1.0

     total cpu time spent up to now is       16.7 secs

     total energy              =     -22.66107043 Ry
     estimated scf accuracy    <       0.00003850 Ry

     iteration # 14     ecut=    50.00 Ry     beta= 0.01
     Davidson diagonalization with overlap
     ethr =  4.81E-07,  avg # of iterations =  1.0

     total cpu time spent up to now is       17.6 secs

     total energy              =     -22.66107027 Ry
     estimated scf accuracy    <       0.00002031 Ry

     iteration # 15     ecut=    50.00 Ry     beta= 0.01
     Davidson diagonalization with overlap
     ethr =  2.54E-07,  avg # of iterations =  1.0

     total cpu time spent up to now is       18.5 secs

     End of self-consistent calculation

          k = 0.0000 0.0000 0.0000 (   609 PWs)   bands (ev):

   -10.1997   9.0157   9.0157   9.0157

          k =-0.1000 0.1000-0.1000 (   576 PWs)   bands (ev):

    -9.9599   7.5702   8.6917   8.6917

          k =-0.2000 0.2000-0.2000 (   582 PWs)   bands (ev):

    -9.2486   4.7470   7.9841   7.9841

          k =-0.3000 0.3000-0.3000 (   595 PWs)   bands (ev):

    -8.0976   1.7821   7.3226   7.3226

          k =-0.4000 0.4000-0.4000 (   598 PWs)   bands (ev):

    -6.6287  -0.8546   6.8883   6.8883

          k = 0.5000-0.5000 0.5000 (   580 PWs)   bands (ev):

    -5.6097  -2.2662   6.7397   6.7397

          k = 0.0000 0.2000 0.0000 (   585 PWs)   bands (ev):

    -9.8800   8.0604   8.0939   8.0939

          k =-0.1000 0.3000-0.1000 (   582 PWs)   bands (ev):

    -9.3252   5.6902   7.3185   7.8148

          k =-0.2000 0.4000-0.2000 (   594 PWs)   bands (ev):

    -8.3176   2.8216   6.6902   7.1019

          k =-0.3000 0.5000-0.3000 (   594 PWs)   bands (ev):

    -6.9313   0.0899   6.3585   6.3873

          k = 0.6000-0.4000 0.6000 (   592 PWs)   bands (ev):

    -5.5666  -1.9146   5.8757   6.3632

          k = 0.5000-0.3000 0.5000 (   592 PWs)   bands (ev):

    -5.9492  -1.4000   5.6582   6.6894

          k = 0.4000-0.2000 0.4000 (   597 PWs)   bands (ev):

    -7.4276   0.9702   5.7746   7.2776

          k = 0.3000-0.1000 0.3000 (   586 PWs)   bands (ev):

    -8.7023   3.7827   6.2514   8.0217

          k = 0.2000 0.0000 0.2000 (   582 PWs)   bands (ev):

    -9.5627   6.3580   7.2137   8.6368

          k = 0.0000 0.4000 0.0000 (   584 PWs)   bands (ev):

    -8.9293   5.8192   6.4872   6.4872

          k =-0.1000 0.5000-0.1000 (   589 PWs)   bands (ev):

    -8.0750   3.6734   5.8341   5.8684

          k =-0.2000 0.6000-0.2000 (   594 PWs)   bands (ev):

    -6.8106   1.1634   4.9664   5.4976

          k = 0.7000-0.3000 0.7000 (   592 PWs)   bands (ev):

    -5.3487  -1.0386   4.1380   5.5364

          k = 0.6000-0.2000 0.6000 (   597 PWs)   bands (ev):

    -4.9937  -1.4836   3.6060   5.9276

          k = 0.5000-0.1000 0.5000 (   591 PWs)   bands (ev):

    -6.3459   0.4362   3.5004   6.6093

          k = 0.4000 0.0000 0.4000 (   596 PWs)   bands (ev):

    -7.7101   2.6192   4.1677   7.4156

          k = 0.0000 0.6000 0.0000 (   592 PWs)   bands (ev):

    -7.3761   3.0580   5.1161   5.1161

          k =-0.1000 0.7000-0.1000 (   591 PWs)   bands (ev):

    -6.2526   1.3636   4.1918   4.7199

          k = 0.8000-0.2000 0.8000 (   589 PWs)   bands (ev):

    -4.8271  -0.4221   2.9093   4.7053

          k = 0.7000-0.1000 0.7000 (   591 PWs)   bands (ev):

    -3.9080  -1.3946   1.9552   5.0749

          k = 0.6000-0.0000 0.6000 (   586 PWs)   bands (ev):

    -4.9667  -0.3006   1.8889   5.7643

          k = 0.0000 0.8000 0.0000 (   600 PWs)   bands (ev):

    -5.2747   0.1271   4.2351   4.2351

          k = 0.9000-0.1000 0.9000 (   601 PWs)   bands (ev):

    -3.9463  -1.3040   3.3722   4.1352

          k = 0.8000 0.0000 0.8000 (   600 PWs)   bands (ev):

    -2.9270  -2.1123   2.0938   4.4309

          k = 0.0000-1.0000 0.0000 (   588 PWs)   bands (ev):

    -2.7199  -2.7199   3.9388   3.9388

          k =-0.2000 0.4000 0.0000 (   589 PWs)   bands (ev):

    -8.6209   4.3864   5.6582   7.4081

          k =-0.3000 0.5000-0.1000 (   596 PWs)   bands (ev):

    -7.4829   2.0042   4.7813   6.7198

          k = 0.6000-0.4000 0.8000 (   595 PWs)   bands (ev):

    -6.0315  -0.4513   4.4823   6.0621

          k = 0.5000-0.3000 0.7000 (   592 PWs)   bands (ev):

    -5.0240  -1.8180   4.4240   5.7872

          k =-0.2000 0.6000 0.0000 (   596 PWs)   bands (ev):

    -7.0872   2.3400   4.3406   5.4910

          k = 0.7000-0.3000 0.9000 (   595 PWs)   bands (ev):

    -5.7327   0.4241   3.4397   4.8916

          k = 0.6000-0.2000 0.8000 (   595 PWs)   bands (ev):

    -4.4020  -1.2588   2.8299   4.7709

          k = 0.5000-0.1000 0.7000 (   593 PWs)   bands (ev):

    -4.8121  -0.7374   2.5134   5.2029

          k = 0.4000 0.0000 0.6000 (   587 PWs)   bands (ev):

    -6.2483   1.0018   2.9472   5.9698

          k = 0.8000-0.2000 1.0000 (   594 PWs)   bands (ev):

    -5.0298  -0.0024   3.5480   4.0250

          k = 0.7000-0.1000 0.9000 (   592 PWs)   bands (ev):

    -3.6201  -1.3349   2.3886   3.8961

          k = 0.6000 0.0000 0.8000 (   598 PWs)   bands (ev):

    -3.5194  -1.3731   1.6572   4.3770

          k =-0.2000-1.0000 0.0000 (   604 PWs)   bands (ev):

    -2.5838  -2.5838   3.4026   3.4026

          k = 0.6000-0.2000 1.0000 (   587 PWs)   bands (ev):

    -4.3606  -0.5369   2.3428   3.9734

          k = 0.5000-0.1000 0.9000 (   596 PWs)   bands (ev):

    -3.3541  -1.4493   2.0633   3.5332

          k =-0.4000-1.0000 0.0000 (   604 PWs)   bands (ev):

    -2.3259  -2.3259   2.6111   2.6111

     highest occupied level (ev):     9.0157

!    total energy              =     -22.66107129 Ry
     estimated scf accuracy    <       0.00000045 Ry

     The total energy is the sum of the following terms:
     one-electron contribution =       5.25578979 Ry
     hartree contribution      =       2.21080205 Ry
     xc contribution           =      -6.67548255 Ry
     ewald contribution        =     -23.45218059 Ry

     convergence has been achieved in  15 iterations
     Writing meta-gga kinetic term

     Writing all to output data dir ./input_pw/C/8/pwscf.save/
     Writing meta-gga kinetic term
 
     init_run     :      0.57s CPU      1.33s WALL (       1 calls)
     electrons    :      9.71s CPU     17.19s WALL (       1 calls)

     Called by init_run:
     wfcinit      :      0.52s CPU      1.27s WALL (       1 calls)
     potinit      :      0.01s CPU      0.02s WALL (       1 calls)
     hinit0       :      0.03s CPU      0.03s WALL (       1 calls)

     Called by electrons:
     c_bands      :      7.57s CPU     13.40s WALL (      15 calls)
     sum_band     :      1.94s CPU      3.45s WALL (      15 calls)
     v_of_rho     :      0.13s CPU      0.23s WALL (      16 calls)
     mix_rho      :      0.08s CPU      0.12s WALL (      15 calls)

     Called by c_bands:
     init_us_2    :      0.04s CPU      0.05s WALL (    1457 calls)
     init_us_2:cp :      0.03s CPU      0.05s WALL (    1457 calls)
     cegterg      :      7.53s CPU     13.33s WALL (     705 calls)

     Called by *egterg:
     cdiaghg      :      0.06s CPU      0.09s WALL (    1462 calls)
     h_psi        :      7.84s CPU     14.31s WALL (    1509 calls)
     g_psi        :      0.01s CPU      0.01s WALL (     757 calls)

     Called by h_psi:
     h_psi:calbec :      0.02s CPU      0.02s WALL (    1509 calls)
     vloc_psi     :      1.94s CPU      3.49s WALL (    1509 calls)
     add_vuspsi   :      0.02s CPU      0.06s WALL (    1509 calls)
     h_psi_meta   :      5.85s CPU     10.72s WALL (    1509 calls)

     General routines
     calbec       :      0.01s CPU      0.01s WALL (    1509 calls)
     fft          :      0.03s CPU      0.07s WALL (     189 calls)
     ffts         :      0.04s CPU      0.05s WALL (     264 calls)
     fftw         :      8.66s CPU     15.76s WALL (   60704 calls)
     interpolate  :      0.00s CPU      0.00s WALL (      16 calls)
 
     Parallel routines
 
     PWSCF        :     10.33s CPU     18.57s WALL

 
   This run was terminated on:  11:48:34  14Mar2023            

=------------------------------------------------------------------------------=
   JOB DONE.
=------------------------------------------------------------------------------=
