
     Program PWSCF v.7.0 starts on  7Jul2023 at 14:25:23 

     This program is part of the open-source Quantum ESPRESSO suite
     for quantum simulation of materials; please cite
         "P. Giannozzi et al., J. Phys.:Condens. Matter 21 395502 (2009);
         "P. Giannozzi et al., J. Phys.:Condens. Matter 29 465901 (2017);
         "P. Giannozzi et al., J. Chem. Phys. 152 154105 (2020);
          URL http://www.quantum-espresso.org", 
     in publications or presentations arising from this work. More details at
     http://www.quantum-espresso.org/quote

     Parallel version (MPI), running on     1 processors

     MPI processes distributed on     1 nodes
     27042 MiB available memory on the printing compute node when the environment starts
 
     Waiting for input...
     Reading input from standard input
Warning: card &CELL ignored
Warning: card / ignored

     Current dimensions of program PWSCF are:
     Max number of different atomic species (ntypx) = 10
     Max number of k-points (npk) =  40000
     Max angular momentum in pseudopotentials (lmaxx) =  4

     WARNING: the MGGA functional with ID    5 has been 
     read together with other dft terms, but it should 
     stand alone in order to work properly. The other 
     terms will be ignored.

     Subspace diagonalization in iterative solution of the eigenvalue problem:
     a serial algorithm will be used

 
     G-vector sticks info
     --------------------
     sticks:   dense  smooth     PW     G-vecs:    dense   smooth      PW
     Sum         361     361    121                 4573     4573     893
 
     Using Slab Decomposition
 


     bravais-lattice index     =            2
     lattice parameter (alat)  =       7.2413  a.u.
     unit-cell volume          =      94.9262 (a.u.)^3
     number of atoms/cell      =            2
     number of atomic types    =            1
     number of electrons       =         8.00
     number of Kohn-Sham states=            4
     kinetic-energy cutoff     =      50.0000  Ry
     charge density cutoff     =     200.0000  Ry
     scf convergence threshold =      2.0E-05
     mixing beta               =       0.2000
     number of iterations used =            8  local-TF  mixing
     Exchange-correlation= SLA  PW   SCAN SCAN
                           (   0   0   0   0   0 263 267)

     celldm(1)=   7.241279  celldm(2)=   0.000000  celldm(3)=   0.000000
     celldm(4)=   0.000000  celldm(5)=   0.000000  celldm(6)=   0.000000

     crystal axes: (cart. coord. in units of alat)
               a(1) = (  -0.500000   0.000000   0.500000 )  
               a(2) = (   0.000000   0.500000   0.500000 )  
               a(3) = (  -0.500000   0.500000   0.000000 )  

     reciprocal axes: (cart. coord. in units 2 pi/alat)
               b(1) = ( -1.000000 -1.000000  1.000000 )  
               b(2) = (  1.000000  1.000000  1.000000 )  
               b(3) = ( -1.000000  1.000000 -1.000000 )  


     PseudoPot. # 1 for C  read from file:
     ~/Documents/TA/PWDFT.jl/pseudopotentials/scan_upf/C.SCAN.UPF2
     MD5 check sum: Not computed, couldn't open file
     Pseudo is Norm-conserving, Zval =  4.0
     Generated by new atomic code, or converted to UPF format
     Using radial grid of 1389 points,  1 beta functions with: 
                l(1) =   0

     atomic species   valence    mass     pseudopotential
        C              4.00    12.01100     C ( 1.00)

     48 Sym. Ops., with inversion, found (24 have fractional translation)



   Cartesian axes

     site n.     atom                  positions (alat units)
         1           C   tau(   1) = (   0.0000000   0.0000000   0.0000000  )
         2           C   tau(   2) = (   0.2500000   0.2500000   0.2500000  )

     number of k points=    47
                       cart. coord. in units 2pi/alat
        k(    1) = (   0.0000000   0.0000000   0.0000000), wk =   0.0020000
        k(    2) = (  -0.1000000   0.1000000  -0.1000000), wk =   0.0160000
        k(    3) = (  -0.2000000   0.2000000  -0.2000000), wk =   0.0160000
        k(    4) = (  -0.3000000   0.3000000  -0.3000000), wk =   0.0160000
        k(    5) = (  -0.4000000   0.4000000  -0.4000000), wk =   0.0160000
        k(    6) = (   0.5000000  -0.5000000   0.5000000), wk =   0.0080000
        k(    7) = (   0.0000000   0.2000000   0.0000000), wk =   0.0120000
        k(    8) = (  -0.1000000   0.3000000  -0.1000000), wk =   0.0480000
        k(    9) = (  -0.2000000   0.4000000  -0.2000000), wk =   0.0480000
        k(   10) = (  -0.3000000   0.5000000  -0.3000000), wk =   0.0480000
        k(   11) = (   0.6000000  -0.4000000   0.6000000), wk =   0.0480000
        k(   12) = (   0.5000000  -0.3000000   0.5000000), wk =   0.0480000
        k(   13) = (   0.4000000  -0.2000000   0.4000000), wk =   0.0480000
        k(   14) = (   0.3000000  -0.1000000   0.3000000), wk =   0.0480000
        k(   15) = (   0.2000000   0.0000000   0.2000000), wk =   0.0240000
        k(   16) = (   0.0000000   0.4000000   0.0000000), wk =   0.0120000
        k(   17) = (  -0.1000000   0.5000000  -0.1000000), wk =   0.0480000
        k(   18) = (  -0.2000000   0.6000000  -0.2000000), wk =   0.0480000
        k(   19) = (   0.7000000  -0.3000000   0.7000000), wk =   0.0480000
        k(   20) = (   0.6000000  -0.2000000   0.6000000), wk =   0.0480000
        k(   21) = (   0.5000000  -0.1000000   0.5000000), wk =   0.0480000
        k(   22) = (   0.4000000   0.0000000   0.4000000), wk =   0.0240000
        k(   23) = (   0.0000000   0.6000000   0.0000000), wk =   0.0120000
        k(   24) = (  -0.1000000   0.7000000  -0.1000000), wk =   0.0480000
        k(   25) = (   0.8000000  -0.2000000   0.8000000), wk =   0.0480000
        k(   26) = (   0.7000000  -0.1000000   0.7000000), wk =   0.0480000
        k(   27) = (   0.6000000  -0.0000000   0.6000000), wk =   0.0240000
        k(   28) = (   0.0000000   0.8000000   0.0000000), wk =   0.0120000
        k(   29) = (   0.9000000  -0.1000000   0.9000000), wk =   0.0480000
        k(   30) = (   0.8000000   0.0000000   0.8000000), wk =   0.0240000
        k(   31) = (   0.0000000  -1.0000000   0.0000000), wk =   0.0060000
        k(   32) = (  -0.2000000   0.4000000   0.0000000), wk =   0.0480000
        k(   33) = (  -0.3000000   0.5000000  -0.1000000), wk =   0.0960000
        k(   34) = (   0.6000000  -0.4000000   0.8000000), wk =   0.0960000
        k(   35) = (   0.5000000  -0.3000000   0.7000000), wk =   0.0480000
        k(   36) = (  -0.2000000   0.6000000   0.0000000), wk =   0.0480000
        k(   37) = (   0.7000000  -0.3000000   0.9000000), wk =   0.0960000
        k(   38) = (   0.6000000  -0.2000000   0.8000000), wk =   0.0960000
        k(   39) = (   0.5000000  -0.1000000   0.7000000), wk =   0.0960000
        k(   40) = (   0.4000000   0.0000000   0.6000000), wk =   0.0480000
        k(   41) = (   0.8000000  -0.2000000   1.0000000), wk =   0.0480000
        k(   42) = (   0.7000000  -0.1000000   0.9000000), wk =   0.0960000
        k(   43) = (   0.6000000   0.0000000   0.8000000), wk =   0.0480000
        k(   44) = (  -0.2000000  -1.0000000   0.0000000), wk =   0.0240000
        k(   45) = (   0.6000000  -0.2000000   1.0000000), wk =   0.0480000
        k(   46) = (   0.5000000  -0.1000000   0.9000000), wk =   0.0480000
        k(   47) = (  -0.4000000  -1.0000000   0.0000000), wk =   0.0240000

     Dense  grid:     4573 G-vectors     FFT dimensions: (  24,  24,  24)

     Estimated max dynamical RAM per process >       8.45 MB

     WARNING: libxc functional with ID  263 depends
      on external parameters: check the user_guide of
      QE if you need to modify them or to check their
      default values.

     Initial potential from superposition of free atoms

     starting charge       7.9999, renormalised to       8.0000
     Starting wfcs are    8 randomized atomic wfcs

     total cpu time spent up to now is        1.3 secs

     Self-consistent Calculation

     iteration #  1     ecut=    50.00 Ry     beta= 0.20
     Davidson diagonalization with overlap
     ethr =  1.00E-02,  avg # of iterations =  2.0

     total cpu time spent up to now is        3.0 secs

     total energy              =     -22.61772301 Ry
     estimated scf accuracy    <       1.57279533 Ry

     iteration #  2     ecut=    50.00 Ry     beta= 0.20
     Davidson diagonalization with overlap
     ethr =  1.00E-02,  avg # of iterations =  1.0

     total cpu time spent up to now is        4.3 secs

     total energy              =     -22.67962735 Ry
     estimated scf accuracy    <       1.04423230 Ry

     iteration #  3     ecut=    50.00 Ry     beta= 0.20
     Davidson diagonalization with overlap
     ethr =  1.00E-02,  avg # of iterations =  1.0

     total cpu time spent up to now is        5.6 secs

     total energy              =     -22.68251468 Ry
     estimated scf accuracy    <       0.00821185 Ry

     iteration #  4     ecut=    50.00 Ry     beta= 0.20
     Davidson diagonalization with overlap
     ethr =  1.03E-04,  avg # of iterations =  1.0

     total cpu time spent up to now is        6.9 secs

     total energy              =     -22.68150824 Ry
     estimated scf accuracy    <       0.00523920 Ry

     iteration #  5     ecut=    50.00 Ry     beta= 0.20
     Davidson diagonalization with overlap
     ethr =  6.55E-05,  avg # of iterations =  1.1

     total cpu time spent up to now is        8.2 secs

     total energy              =     -22.68188543 Ry
     estimated scf accuracy    <       0.00004082 Ry

     iteration #  6     ecut=    50.00 Ry     beta= 0.20
     Davidson diagonalization with overlap
     ethr =  5.10E-07,  avg # of iterations =  3.1

     total cpu time spent up to now is        9.7 secs

     total energy              =     -22.68191129 Ry
     estimated scf accuracy    <       0.00006971 Ry

     iteration #  7     ecut=    50.00 Ry     beta= 0.20
     Davidson diagonalization with overlap
     ethr =  5.10E-07,  avg # of iterations =  1.0

     total cpu time spent up to now is       10.9 secs

     total energy              =     -22.68192305 Ry
     estimated scf accuracy    <       0.00007901 Ry

     iteration #  8     ecut=    50.00 Ry     beta= 0.20
     Davidson diagonalization with overlap
     ethr =  5.10E-07,  avg # of iterations =  1.0

     total cpu time spent up to now is       11.7 secs

     End of self-consistent calculation

          k = 0.0000 0.0000 0.0000 (   537 PWs)   bands (ev):

   -10.0352   9.7194   9.7194   9.7194

          k =-0.1000 0.1000-0.1000 (   555 PWs)   bands (ev):

    -9.7875   8.1979   9.3490   9.3490

          k =-0.2000 0.2000-0.2000 (   564 PWs)   bands (ev):

    -9.0516   5.2978   8.5981   8.5981

          k =-0.3000 0.3000-0.3000 (   568 PWs)   bands (ev):

    -7.8581   2.2446   7.9129   7.9129

          k =-0.4000 0.4000-0.4000 (   571 PWs)   bands (ev):

    -6.3225  -0.4899   7.4617   7.4617

          k = 0.5000-0.5000 0.5000 (   568 PWs)   bands (ev):

    -5.2322  -1.9913   7.3082   7.3082

          k = 0.0000 0.2000 0.0000 (   556 PWs)   bands (ev):

    -9.7048   8.7241   8.7241   8.7418

          k =-0.1000 0.3000-0.1000 (   564 PWs)   bands (ev):

    -9.1313   6.2774   7.8986   8.4526

          k =-0.2000 0.4000-0.2000 (   564 PWs)   bands (ev):

    -8.0872   3.3295   7.2464   7.7134

          k =-0.3000 0.5000-0.3000 (   571 PWs)   bands (ev):

    -6.6442   0.4969   6.9029   6.9671

          k = 0.6000-0.4000 0.6000 (   569 PWs)   bands (ev):

    -5.1970  -1.6066   6.4303   6.9087

          k = 0.5000-0.3000 0.5000 (   573 PWs)   bands (ev):

    -5.6077  -1.0605   6.1981   7.2493

          k = 0.4000-0.2000 0.4000 (   571 PWs)   bands (ev):

    -7.1616   1.4108   6.3164   7.8691

          k = 0.3000-0.1000 0.3000 (   568 PWs)   bands (ev):

    -8.4864   4.3192   6.8024   8.6413

          k = 0.2000 0.0000 0.2000 (   559 PWs)   bands (ev):

    -9.3768   6.9709   7.7975   9.2896

          k = 0.0000 0.4000 0.0000 (   568 PWs)   bands (ev):

    -8.7223   6.4894   7.0316   7.0316

          k =-0.1000 0.5000-0.1000 (   570 PWs)   bands (ev):

    -7.8377   4.2496   6.3469   6.4254

          k =-0.2000 0.6000-0.2000 (   572 PWs)   bands (ev):

    -6.5251   1.6434   5.4990   5.9999

          k = 0.7000-0.3000 0.7000 (   567 PWs)   bands (ev):

    -4.9890  -0.6608   4.6402   6.0419

          k = 0.6000-0.2000 0.6000 (   570 PWs)   bands (ev):

    -4.6064  -1.1339   4.0821   6.4528

          k = 0.5000-0.1000 0.5000 (   565 PWs)   bands (ev):

    -6.0367   0.8837   3.9588   7.1674

          k = 0.4000 0.0000 0.4000 (   562 PWs)   bands (ev):

    -7.4573   3.1648   4.6281   8.0149

          k = 0.0000 0.6000 0.0000 (   568 PWs)   bands (ev):

    -7.1147   3.6768   5.6000   5.6000

          k =-0.1000 0.7000-0.1000 (   566 PWs)   bands (ev):

    -5.9513   1.9254   4.6452   5.1916

          k = 0.8000-0.2000 0.8000 (   570 PWs)   bands (ev):

    -4.4638   0.0623   3.3076   5.1784

          k = 0.7000-0.1000 0.7000 (   562 PWs)   bands (ev):

    -3.4795  -0.9734   2.3181   5.5640

          k = 0.6000-0.0000 0.6000 (   572 PWs)   bands (ev):

    -4.5980   0.1787   2.2343   6.2793

          k = 0.0000 0.8000 0.0000 (   568 PWs)   bands (ev):

    -4.9397   0.6554   4.6898   4.6898

          k = 0.9000-0.1000 0.9000 (   562 PWs)   bands (ev):

    -3.5582  -0.8225   3.7865   4.5873

          k = 0.8000 0.0000 0.8000 (   564 PWs)   bands (ev):

    -2.4704  -1.6693   2.4330   4.8921

          k = 0.0000-1.0000 0.0000 (   588 PWs)   bands (ev):

    -2.2961  -2.2961   4.3707   4.3707

          k =-0.2000 0.4000 0.0000 (   563 PWs)   bands (ev):

    -8.4026   4.9717   6.1734   8.0198

          k =-0.3000 0.5000-0.1000 (   571 PWs)   bands (ev):

    -7.2217   2.5050   5.2850   7.2921

          k = 0.6000-0.4000 0.8000 (   569 PWs)   bands (ev):

    -5.7051  -0.0529   4.9923   6.5974

          k = 0.5000-0.3000 0.7000 (   562 PWs)   bands (ev):

    -4.6291  -1.4970   4.9419   6.3068

          k =-0.2000 0.6000 0.0000 (   563 PWs)   bands (ev):

    -6.8137   2.9154   4.8028   6.0049

          k = 0.7000-0.3000 0.9000 (   565 PWs)   bands (ev):

    -5.4039   0.9182   3.8884   5.3688

          k = 0.6000-0.2000 0.8000 (   560 PWs)   bands (ev):

    -3.9973  -0.8589   3.2650   5.2408

          k = 0.5000-0.1000 0.7000 (   569 PWs)   bands (ev):

    -4.4333  -0.3085   2.9240   5.6930

          k = 0.4000 0.0000 0.6000 (   568 PWs)   bands (ev):

    -5.9385   1.5183   3.3509   6.4965

          k = 0.8000-0.2000 1.0000 (   571 PWs)   bands (ev):

    -4.6806   0.5240   3.9716   4.4555

          k = 0.7000-0.1000 0.9000 (   568 PWs)   bands (ev):

    -3.2052  -0.8520   2.7450   4.3263

          k = 0.6000 0.0000 0.8000 (   562 PWs)   bands (ev):

    -3.0811  -0.9058   1.9785   4.8328

          k =-0.2000-1.0000 0.0000 (   568 PWs)   bands (ev):

    -2.1420  -2.1420   3.8151   3.8151

          k = 0.6000-0.2000 1.0000 (   565 PWs)   bands (ev):

    -3.9734  -0.0321   2.7071   4.3996

          k = 0.5000-0.1000 0.9000 (   566 PWs)   bands (ev):

    -2.9110  -0.9834   2.4154   3.9370

          k =-0.4000-1.0000 0.0000 (   568 PWs)   bands (ev):

    -1.8564  -1.8564   2.9737   2.9737

     highest occupied level (ev):     9.7194

!    total energy              =     -22.68192591 Ry
     estimated scf accuracy    <       0.00000376 Ry

     The total energy is the sum of the following terms:
     one-electron contribution =       5.70406175 Ry
     hartree contribution      =       2.15979855 Ry
     xc contribution           =      -6.74094044 Ry
     ewald contribution        =     -23.80484576 Ry

     convergence has been achieved in   8 iterations
     Writing meta-gga kinetic term

     Writing all to output data dir ./input_pw/C/8/pwscf.save/
     Writing meta-gga kinetic term
 
     init_run     :      0.53s CPU      1.19s WALL (       1 calls)
     electrons    :      5.74s CPU     10.42s WALL (       1 calls)

     Called by init_run:
     wfcinit      :      0.49s CPU      1.04s WALL (       1 calls)
     potinit      :      0.01s CPU      0.02s WALL (       1 calls)
     hinit0       :      0.03s CPU      0.13s WALL (       1 calls)

     Called by electrons:
     c_bands      :      4.58s CPU      8.31s WALL (       8 calls)
     sum_band     :      1.05s CPU      1.93s WALL (       8 calls)
     v_of_rho     :      0.07s CPU      0.15s WALL (       9 calls)
     mix_rho      :      0.03s CPU      0.04s WALL (       8 calls)

     Called by c_bands:
     init_us_2    :      0.02s CPU      0.02s WALL (     799 calls)
     init_us_2:cp :      0.02s CPU      0.02s WALL (     799 calls)
     cegterg      :      4.56s CPU      8.28s WALL (     376 calls)

     Called by *egterg:
     cdiaghg      :      0.04s CPU      0.05s WALL (     901 calls)
     h_psi        :      4.92s CPU      9.12s WALL (     948 calls)
     g_psi        :      0.00s CPU      0.02s WALL (     525 calls)

     Called by h_psi:
     h_psi:calbec :      0.01s CPU      0.02s WALL (     948 calls)
     vloc_psi     :      1.21s CPU      2.21s WALL (     948 calls)
     add_vuspsi   :      0.01s CPU      0.01s WALL (     948 calls)
     h_psi_meta   :      3.67s CPU      6.87s WALL (     948 calls)

     General routines
     calbec       :      0.01s CPU      0.02s WALL (     948 calls)
     fft          :      0.01s CPU      0.04s WALL (     105 calls)
     ffts         :      0.02s CPU      0.02s WALL (     133 calls)
     fftw         :      5.30s CPU      9.83s WALL (   36664 calls)
     interpolate  :      0.00s CPU      0.00s WALL (       9 calls)
 
     Parallel routines
 
     PWSCF        :      6.30s CPU     11.70s WALL

 
   This run was terminated on:  14:25:35   7Jul2023            

=------------------------------------------------------------------------------=
   JOB DONE.
=------------------------------------------------------------------------------=
