
     Program PWSCF v.7.0 starts on 29Mar2023 at 12:34:19 

     This program is part of the open-source Quantum ESPRESSO suite
     for quantum simulation of materials; please cite
         "P. Giannozzi et al., J. Phys.:Condens. Matter 21 395502 (2009);
         "P. Giannozzi et al., J. Phys.:Condens. Matter 29 465901 (2017);
         "P. Giannozzi et al., J. Chem. Phys. 152 154105 (2020);
          URL http://www.quantum-espresso.org", 
     in publications or presentations arising from this work. More details at
     http://www.quantum-espresso.org/quote

     Parallel version (MPI), running on     1 processors

     MPI processes distributed on     1 nodes
     22891 MiB available memory on the printing compute node when the environment starts
 
     Waiting for input...
     Reading input from standard input
Warning: card &CELL ignored
Warning: card / ignored

     Current dimensions of program PWSCF are:
     Max number of different atomic species (ntypx) = 10
     Max number of k-points (npk) =  40000
     Max angular momentum in pseudopotentials (lmaxx) =  4

     WARNING: the MGGA functional with ID    5 has been 
     read together with other dft terms, but it should 
     stand alone in order to work properly. The other 
     terms will be ignored.

     Subspace diagonalization in iterative solution of the eigenvalue problem:
     a serial algorithm will be used

 
     G-vector sticks info
     --------------------
     sticks:   dense  smooth     PW     G-vecs:    dense   smooth      PW
     Sum         361     361    121                 4573     4573     893
 
     Using Slab Decomposition
 


     bravais-lattice index     =            2
     lattice parameter (alat)  =       7.2413  a.u.
     unit-cell volume          =      94.9262 (a.u.)^3
     number of atoms/cell      =            2
     number of atomic types    =            1
     number of electrons       =         8.00
     number of Kohn-Sham states=            4
     kinetic-energy cutoff     =      50.0000  Ry
     charge density cutoff     =     200.0000  Ry
     scf convergence threshold =      1.0E-06
     mixing beta               =       0.0100
     number of iterations used =            8  local-TF  mixing
     Exchange-correlation= SLA  PW   SCAN SCAN
                           (   0   0   0   0   0 263 267)

     celldm(1)=   7.241279  celldm(2)=   0.000000  celldm(3)=   0.000000
     celldm(4)=   0.000000  celldm(5)=   0.000000  celldm(6)=   0.000000

     crystal axes: (cart. coord. in units of alat)
               a(1) = (  -0.500000   0.000000   0.500000 )  
               a(2) = (   0.000000   0.500000   0.500000 )  
               a(3) = (  -0.500000   0.500000   0.000000 )  

     reciprocal axes: (cart. coord. in units 2 pi/alat)
               b(1) = ( -1.000000 -1.000000  1.000000 )  
               b(2) = (  1.000000  1.000000  1.000000 )  
               b(3) = ( -1.000000  1.000000 -1.000000 )  


     PseudoPot. # 1 for C  read from file:
     ~/Documents/TA/PWDFT.jl/pseudopotentials/scan_upf/C.SCAN.UPF2
     MD5 check sum: Not computed, couldn't open file
     Pseudo is Norm-conserving, Zval =  4.0
     Generated by new atomic code, or converted to UPF format
     Using radial grid of 1389 points,  1 beta functions with: 
                l(1) =   0

     atomic species   valence    mass     pseudopotential
        C              4.00    12.01100     C ( 1.00)

     48 Sym. Ops., with inversion, found (24 have fractional translation)



   Cartesian axes

     site n.     atom                  positions (alat units)
         1           C   tau(   1) = (   0.0000000   0.0000000   0.0000000  )
         2           C   tau(   2) = (   0.2500000   0.2500000   0.2500000  )

     number of k points=    47
                       cart. coord. in units 2pi/alat
        k(    1) = (   0.0000000   0.0000000   0.0000000), wk =   0.0020000
        k(    2) = (  -0.1000000   0.1000000  -0.1000000), wk =   0.0160000
        k(    3) = (  -0.2000000   0.2000000  -0.2000000), wk =   0.0160000
        k(    4) = (  -0.3000000   0.3000000  -0.3000000), wk =   0.0160000
        k(    5) = (  -0.4000000   0.4000000  -0.4000000), wk =   0.0160000
        k(    6) = (   0.5000000  -0.5000000   0.5000000), wk =   0.0080000
        k(    7) = (   0.0000000   0.2000000   0.0000000), wk =   0.0120000
        k(    8) = (  -0.1000000   0.3000000  -0.1000000), wk =   0.0480000
        k(    9) = (  -0.2000000   0.4000000  -0.2000000), wk =   0.0480000
        k(   10) = (  -0.3000000   0.5000000  -0.3000000), wk =   0.0480000
        k(   11) = (   0.6000000  -0.4000000   0.6000000), wk =   0.0480000
        k(   12) = (   0.5000000  -0.3000000   0.5000000), wk =   0.0480000
        k(   13) = (   0.4000000  -0.2000000   0.4000000), wk =   0.0480000
        k(   14) = (   0.3000000  -0.1000000   0.3000000), wk =   0.0480000
        k(   15) = (   0.2000000   0.0000000   0.2000000), wk =   0.0240000
        k(   16) = (   0.0000000   0.4000000   0.0000000), wk =   0.0120000
        k(   17) = (  -0.1000000   0.5000000  -0.1000000), wk =   0.0480000
        k(   18) = (  -0.2000000   0.6000000  -0.2000000), wk =   0.0480000
        k(   19) = (   0.7000000  -0.3000000   0.7000000), wk =   0.0480000
        k(   20) = (   0.6000000  -0.2000000   0.6000000), wk =   0.0480000
        k(   21) = (   0.5000000  -0.1000000   0.5000000), wk =   0.0480000
        k(   22) = (   0.4000000   0.0000000   0.4000000), wk =   0.0240000
        k(   23) = (   0.0000000   0.6000000   0.0000000), wk =   0.0120000
        k(   24) = (  -0.1000000   0.7000000  -0.1000000), wk =   0.0480000
        k(   25) = (   0.8000000  -0.2000000   0.8000000), wk =   0.0480000
        k(   26) = (   0.7000000  -0.1000000   0.7000000), wk =   0.0480000
        k(   27) = (   0.6000000  -0.0000000   0.6000000), wk =   0.0240000
        k(   28) = (   0.0000000   0.8000000   0.0000000), wk =   0.0120000
        k(   29) = (   0.9000000  -0.1000000   0.9000000), wk =   0.0480000
        k(   30) = (   0.8000000   0.0000000   0.8000000), wk =   0.0240000
        k(   31) = (   0.0000000  -1.0000000   0.0000000), wk =   0.0060000
        k(   32) = (  -0.2000000   0.4000000   0.0000000), wk =   0.0480000
        k(   33) = (  -0.3000000   0.5000000  -0.1000000), wk =   0.0960000
        k(   34) = (   0.6000000  -0.4000000   0.8000000), wk =   0.0960000
        k(   35) = (   0.5000000  -0.3000000   0.7000000), wk =   0.0480000
        k(   36) = (  -0.2000000   0.6000000   0.0000000), wk =   0.0480000
        k(   37) = (   0.7000000  -0.3000000   0.9000000), wk =   0.0960000
        k(   38) = (   0.6000000  -0.2000000   0.8000000), wk =   0.0960000
        k(   39) = (   0.5000000  -0.1000000   0.7000000), wk =   0.0960000
        k(   40) = (   0.4000000   0.0000000   0.6000000), wk =   0.0480000
        k(   41) = (   0.8000000  -0.2000000   1.0000000), wk =   0.0480000
        k(   42) = (   0.7000000  -0.1000000   0.9000000), wk =   0.0960000
        k(   43) = (   0.6000000   0.0000000   0.8000000), wk =   0.0480000
        k(   44) = (  -0.2000000  -1.0000000   0.0000000), wk =   0.0240000
        k(   45) = (   0.6000000  -0.2000000   1.0000000), wk =   0.0480000
        k(   46) = (   0.5000000  -0.1000000   0.9000000), wk =   0.0480000
        k(   47) = (  -0.4000000  -1.0000000   0.0000000), wk =   0.0240000

     Dense  grid:     4573 G-vectors     FFT dimensions: (  24,  24,  24)

     Estimated max dynamical RAM per process >       8.45 MB

     WARNING: libxc functional with ID  263 depends
      on external parameters: check the user_guide of
      QE if you need to modify them or to check their
      default values.

     Initial potential from superposition of free atoms

     starting charge       7.9999, renormalised to       8.0000
     Starting wfcs are    8 randomized atomic wfcs

     total cpu time spent up to now is        1.2 secs

     Self-consistent Calculation

     iteration #  1     ecut=    50.00 Ry     beta= 0.01
     Davidson diagonalization with overlap
     ethr =  1.00E-02,  avg # of iterations =  2.0

     total cpu time spent up to now is        3.0 secs

     total energy              =     -22.57397694 Ry
     estimated scf accuracy    <       1.57279533 Ry

     iteration #  2     ecut=    50.00 Ry     beta= 0.01
     Davidson diagonalization with overlap
     ethr =  1.00E-02,  avg # of iterations =  1.0

     total cpu time spent up to now is        4.2 secs

     total energy              =     -22.36731337 Ry
     estimated scf accuracy    <       1.58343885 Ry

     iteration #  3     ecut=    50.00 Ry     beta= 0.01
     Davidson diagonalization with overlap
     ethr =  1.00E-02,  avg # of iterations =  1.0

     total cpu time spent up to now is        5.5 secs

     total energy              =     -22.65426010 Ry
     estimated scf accuracy    <       4.54139667 Ry

     iteration #  4     ecut=    50.00 Ry     beta= 0.01
     Davidson diagonalization with overlap
     ethr =  1.00E-02,  avg # of iterations =  1.0

     total cpu time spent up to now is        6.8 secs

     total energy              =     -22.68298246 Ry
     estimated scf accuracy    <       0.00990204 Ry

     iteration #  5     ecut=    50.00 Ry     beta= 0.01
     Davidson diagonalization with overlap
     ethr =  1.24E-04,  avg # of iterations =  1.2

     total cpu time spent up to now is        8.0 secs

     total energy              =     -22.68344868 Ry
     estimated scf accuracy    <       0.00932372 Ry

     iteration #  6     ecut=    50.00 Ry     beta= 0.01
     Davidson diagonalization with overlap
     ethr =  1.17E-04,  avg # of iterations =  1.0

     total cpu time spent up to now is        9.3 secs

     total energy              =     -22.68187738 Ry
     estimated scf accuracy    <       0.00807735 Ry

     iteration #  7     ecut=    50.00 Ry     beta= 0.01
     Davidson diagonalization with overlap
     ethr =  1.01E-04,  avg # of iterations =  1.0

     total cpu time spent up to now is       10.6 secs

     total energy              =     -22.68162319 Ry
     estimated scf accuracy    <       0.00195972 Ry

     iteration #  8     ecut=    50.00 Ry     beta= 0.01
     Davidson diagonalization with overlap
     ethr =  2.45E-05,  avg # of iterations =  1.6

     total cpu time spent up to now is       12.0 secs

     total energy              =     -22.68184622 Ry
     estimated scf accuracy    <       0.00393531 Ry

     iteration #  9     ecut=    50.00 Ry     beta= 0.01
     Davidson diagonalization with overlap
     ethr =  2.45E-05,  avg # of iterations =  1.0

     total cpu time spent up to now is       13.3 secs

     total energy              =     -22.68191308 Ry
     estimated scf accuracy    <       0.00560916 Ry

     iteration # 10     ecut=    50.00 Ry     beta= 0.01
     Davidson diagonalization with overlap
     ethr =  2.45E-05,  avg # of iterations =  1.0

     total cpu time spent up to now is       14.6 secs

     total energy              =     -22.68191805 Ry
     estimated scf accuracy    <       0.00030552 Ry

     iteration # 11     ecut=    50.00 Ry     beta= 0.01
     Davidson diagonalization with overlap
     ethr =  3.82E-06,  avg # of iterations =  1.0

     total cpu time spent up to now is       15.5 secs

     total energy              =     -22.68192247 Ry
     estimated scf accuracy    <       0.00003019 Ry

     iteration # 12     ecut=    50.00 Ry     beta= 0.01
     Davidson diagonalization with overlap
     ethr =  3.77E-07,  avg # of iterations =  1.0

     total cpu time spent up to now is       16.5 secs

     total energy              =     -22.68192380 Ry
     estimated scf accuracy    <       0.00004245 Ry

     iteration # 13     ecut=    50.00 Ry     beta= 0.01
     Davidson diagonalization with overlap
     ethr =  3.77E-07,  avg # of iterations =  1.0

     total cpu time spent up to now is       17.6 secs

     total energy              =     -22.68192602 Ry
     estimated scf accuracy    <       0.00002119 Ry

     iteration # 14     ecut=    50.00 Ry     beta= 0.01
     Davidson diagonalization with overlap
     ethr =  2.65E-07,  avg # of iterations =  1.0

     total cpu time spent up to now is       18.6 secs

     total energy              =     -22.68192630 Ry
     estimated scf accuracy    <       0.00000244 Ry

     iteration # 15     ecut=    50.00 Ry     beta= 0.01
     Davidson diagonalization with overlap
     ethr =  3.06E-08,  avg # of iterations =  1.2

     total cpu time spent up to now is       19.7 secs

     End of self-consistent calculation

          k = 0.0000 0.0000 0.0000 (   537 PWs)   bands (ev):

   -10.0387   9.7156   9.7156   9.7156

          k =-0.1000 0.1000-0.1000 (   555 PWs)   bands (ev):

    -9.7910   8.1942   9.3453   9.3453

          k =-0.2000 0.2000-0.2000 (   564 PWs)   bands (ev):

    -9.0551   5.2942   8.5944   8.5944

          k =-0.3000 0.3000-0.3000 (   568 PWs)   bands (ev):

    -7.8617   2.2412   7.9092   7.9092

          k =-0.4000 0.4000-0.4000 (   571 PWs)   bands (ev):

    -6.3263  -0.4930   7.4579   7.4579

          k = 0.5000-0.5000 0.5000 (   568 PWs)   bands (ev):

    -5.2363  -1.9940   7.3044   7.3044

          k = 0.0000 0.2000 0.0000 (   556 PWs)   bands (ev):

    -9.7083   8.7204   8.7204   8.7379

          k =-0.1000 0.3000-0.1000 (   564 PWs)   bands (ev):

    -9.1348   6.2737   7.8949   8.4488

          k =-0.2000 0.4000-0.2000 (   564 PWs)   bands (ev):

    -8.0908   3.3260   7.2428   7.7097

          k =-0.3000 0.5000-0.3000 (   571 PWs)   bands (ev):

    -6.6479   0.4936   6.8993   6.9634

          k = 0.6000-0.4000 0.6000 (   569 PWs)   bands (ev):

    -5.2011  -1.6095   6.4266   6.9050

          k = 0.5000-0.3000 0.5000 (   573 PWs)   bands (ev):

    -5.6117  -1.0636   6.1944   7.2456

          k = 0.4000-0.2000 0.4000 (   571 PWs)   bands (ev):

    -7.1653   1.4075   6.3129   7.8653

          k = 0.3000-0.1000 0.3000 (   568 PWs)   bands (ev):

    -8.4900   4.3156   6.7989   8.6374

          k = 0.2000 0.0000 0.2000 (   559 PWs)   bands (ev):

    -9.3803   6.9671   7.7940   9.2857

          k = 0.0000 0.4000 0.0000 (   568 PWs)   bands (ev):

    -8.7258   6.4853   7.0280   7.0280

          k =-0.1000 0.5000-0.1000 (   570 PWs)   bands (ev):

    -7.8413   4.2458   6.3434   6.4217

          k =-0.2000 0.6000-0.2000 (   572 PWs)   bands (ev):

    -6.5288   1.6398   5.4955   5.9963

          k = 0.7000-0.3000 0.7000 (   567 PWs)   bands (ev):

    -4.9929  -0.6641   4.6368   6.0383

          k = 0.6000-0.2000 0.6000 (   570 PWs)   bands (ev):

    -4.6105  -1.1370   4.0788   6.4492

          k = 0.5000-0.1000 0.5000 (   565 PWs)   bands (ev):

    -6.0406   0.8802   3.9556   7.1637

          k = 0.4000 0.0000 0.4000 (   562 PWs)   bands (ev):

    -7.4610   3.1610   4.6250   8.0111

          k = 0.0000 0.6000 0.0000 (   568 PWs)   bands (ev):

    -7.1184   3.6727   5.5965   5.5965

          k =-0.1000 0.7000-0.1000 (   566 PWs)   bands (ev):

    -5.9550   1.9213   4.6419   5.1882

          k = 0.8000-0.2000 0.8000 (   570 PWs)   bands (ev):

    -4.4677   0.0584   3.3047   5.1750

          k = 0.7000-0.1000 0.7000 (   562 PWs)   bands (ev):

    -3.4837  -0.9771   2.3154   5.5605

          k = 0.6000-0.0000 0.6000 (   572 PWs)   bands (ev):

    -4.6020   0.1748   2.2316   6.2757

          k = 0.0000 0.8000 0.0000 (   568 PWs)   bands (ev):

    -4.9434   0.6513   4.6864   4.6864

          k = 0.9000-0.1000 0.9000 (   562 PWs)   bands (ev):

    -3.5621  -0.8265   3.7834   4.5839

          k = 0.8000 0.0000 0.8000 (   564 PWs)   bands (ev):

    -2.4746  -1.6732   2.4304   4.8886

          k = 0.0000-1.0000 0.0000 (   588 PWs)   bands (ev):

    -2.3000  -2.3000   4.3673   4.3673

          k =-0.2000 0.4000 0.0000 (   563 PWs)   bands (ev):

    -8.4061   4.9679   6.1700   8.0160

          k =-0.3000 0.5000-0.1000 (   571 PWs)   bands (ev):

    -7.2254   2.5014   5.2816   7.2884

          k = 0.6000-0.4000 0.8000 (   569 PWs)   bands (ev):

    -5.7090  -0.0562   4.9888   6.5938

          k = 0.5000-0.3000 0.7000 (   562 PWs)   bands (ev):

    -4.6333  -1.4999   4.9384   6.3033

          k =-0.2000 0.6000 0.0000 (   563 PWs)   bands (ev):

    -6.8174   2.9113   4.7996   6.0014

          k = 0.7000-0.3000 0.9000 (   565 PWs)   bands (ev):

    -5.4078   0.9143   3.8853   5.3654

          k = 0.6000-0.2000 0.8000 (   560 PWs)   bands (ev):

    -4.0015  -0.8623   3.2619   5.2374

          k = 0.5000-0.1000 0.7000 (   569 PWs)   bands (ev):

    -4.4373  -0.3121   2.9210   5.6896

          k = 0.4000 0.0000 0.6000 (   568 PWs)   bands (ev):

    -5.9423   1.5144   3.3480   6.4929

          k = 0.8000-0.2000 1.0000 (   571 PWs)   bands (ev):

    -4.6844   0.5198   3.9685   4.4523

          k = 0.7000-0.1000 0.9000 (   568 PWs)   bands (ev):

    -3.2092  -0.8561   2.7423   4.3231

          k = 0.6000 0.0000 0.8000 (   562 PWs)   bands (ev):

    -3.0853  -0.9097   1.9760   4.8295

          k =-0.2000-1.0000 0.0000 (   568 PWs)   bands (ev):

    -2.1460  -2.1460   3.8120   3.8120

          k = 0.6000-0.2000 1.0000 (   565 PWs)   bands (ev):

    -3.9774  -0.0362   2.7043   4.3965

          k = 0.5000-0.1000 0.9000 (   566 PWs)   bands (ev):

    -2.9152  -0.9874   2.4127   3.9340

          k =-0.4000-1.0000 0.0000 (   568 PWs)   bands (ev):

    -1.8605  -1.8605   2.9710   2.9710

     highest occupied level (ev):     9.7156

!    total energy              =     -22.68192638 Ry
     estimated scf accuracy    <       0.00000012 Ry

     The total energy is the sum of the following terms:
     one-electron contribution =       5.70348704 Ry
     hartree contribution      =       2.16068333 Ry
     xc contribution           =      -6.74125099 Ry
     ewald contribution        =     -23.80484576 Ry

     convergence has been achieved in  15 iterations
     Writing meta-gga kinetic term

     Writing all to output data dir ./input_pw/C/8/pwscf.save/
     Writing meta-gga kinetic term
 
     init_run     :      0.55s CPU      1.16s WALL (       1 calls)
     electrons    :      9.73s CPU     18.48s WALL (       1 calls)

     Called by init_run:
     wfcinit      :      0.50s CPU      1.10s WALL (       1 calls)
     potinit      :      0.01s CPU      0.01s WALL (       1 calls)
     hinit0       :      0.03s CPU      0.04s WALL (       1 calls)

     Called by electrons:
     c_bands      :      7.62s CPU     14.54s WALL (      15 calls)
     sum_band     :      1.91s CPU      3.51s WALL (      15 calls)
     v_of_rho     :      0.13s CPU      0.30s WALL (      16 calls)
     mix_rho      :      0.07s CPU      0.12s WALL (      15 calls)

     Called by c_bands:
     init_us_2    :      0.04s CPU      0.12s WALL (    1457 calls)
     init_us_2:cp :      0.03s CPU      0.10s WALL (    1457 calls)
     cegterg      :      7.58s CPU     14.43s WALL (     705 calls)

     Called by *egterg:
     cdiaghg      :      0.06s CPU      0.10s WALL (    1503 calls)
     h_psi        :      7.88s CPU     15.22s WALL (    1550 calls)
     g_psi        :      0.01s CPU      0.01s WALL (     798 calls)

     Called by h_psi:
     h_psi:calbec :      0.02s CPU      0.05s WALL (    1550 calls)
     vloc_psi     :      1.95s CPU      3.56s WALL (    1550 calls)
     add_vuspsi   :      0.02s CPU      0.04s WALL (    1550 calls)
     h_psi_meta   :      5.87s CPU     11.54s WALL (    1550 calls)

     General routines
     calbec       :      0.01s CPU      0.01s WALL (    1550 calls)
     fft          :      0.03s CPU      0.08s WALL (     189 calls)
     ffts         :      0.04s CPU      0.06s WALL (     258 calls)
     fftw         :      8.67s CPU     16.74s WALL (   61280 calls)
     interpolate  :      0.00s CPU      0.00s WALL (      16 calls)
 
     Parallel routines
 
     PWSCF        :     10.31s CPU     19.68s WALL

 
   This run was terminated on:  12:34:39  29Mar2023            

=------------------------------------------------------------------------------=
   JOB DONE.
=------------------------------------------------------------------------------=
