
     Program PWSCF v.7.0 starts on 21Mar2023 at 13:11:36 

     This program is part of the open-source Quantum ESPRESSO suite
     for quantum simulation of materials; please cite
         "P. Giannozzi et al., J. Phys.:Condens. Matter 21 395502 (2009);
         "P. Giannozzi et al., J. Phys.:Condens. Matter 29 465901 (2017);
         "P. Giannozzi et al., J. Chem. Phys. 152 154105 (2020);
          URL http://www.quantum-espresso.org", 
     in publications or presentations arising from this work. More details at
     http://www.quantum-espresso.org/quote

     Parallel version (MPI), running on     1 processors

     MPI processes distributed on     1 nodes
     23799 MiB available memory on the printing compute node when the environment starts
 
     Waiting for input...
     Reading input from standard input
Warning: card &CELL ignored
Warning: card / ignored

     Current dimensions of program PWSCF are:
     Max number of different atomic species (ntypx) = 10
     Max number of k-points (npk) =  40000
     Max angular momentum in pseudopotentials (lmaxx) =  4
     file Al.SCAN.UPF2: wavefunction(s)  0D renormalized

     WARNING: the MGGA functional with ID    5 has been 
     read together with other dft terms, but it should 
     stand alone in order to work properly. The other 
     terms will be ignored.

     Subspace diagonalization in iterative solution of the eigenvalue problem:
     a serial algorithm will be used

 
     G-vector sticks info
     --------------------
     sticks:   dense  smooth     PW     G-vecs:    dense   smooth      PW
     Sum        2029    2029    583                60087    60087    9257
 
     Using Slab Decomposition
 


     bravais-lattice index     =            2
     lattice parameter (alat)  =      15.6545  a.u.
     unit-cell volume          =     959.0845 (a.u.)^3
     number of atoms/cell      =            1
     number of atomic types    =            1
     number of electrons       =         3.00
     number of Kohn-Sham states=            6
     kinetic-energy cutoff     =      60.0000  Ry
     charge density cutoff     =     240.0000  Ry
     scf convergence threshold =      1.0E-06
     mixing beta               =       0.0100
     number of iterations used =            8  local-TF  mixing
     Exchange-correlation= SLA  PW   SCAN SCAN
                           (   0   0   0   0   0 263 267)

     celldm(1)=  15.654491  celldm(2)=   0.000000  celldm(3)=   0.000000
     celldm(4)=   0.000000  celldm(5)=   0.000000  celldm(6)=   0.000000

     crystal axes: (cart. coord. in units of alat)
               a(1) = (  -0.500000   0.000000   0.500000 )  
               a(2) = (   0.000000   0.500000   0.500000 )  
               a(3) = (  -0.500000   0.500000   0.000000 )  

     reciprocal axes: (cart. coord. in units 2 pi/alat)
               b(1) = ( -1.000000 -1.000000  1.000000 )  
               b(2) = (  1.000000  1.000000  1.000000 )  
               b(3) = ( -1.000000  1.000000 -1.000000 )  


     PseudoPot. # 1 for Al read from file:
     ~/Documents/TA/PWDFT.jl/pseudopotentials/scan_upf/Al.SCAN.UPF2
     MD5 check sum: Not computed, couldn't open file
     Pseudo is Norm-conserving, Zval =  3.0
     Generated by new atomic code, or converted to UPF format
     Using radial grid of 1467 points,  2 beta functions with: 
                l(1) =   0
                l(2) =   1

     atomic species   valence    mass     pseudopotential
        Al             3.00    26.98154     Al( 1.00)

     48 Sym. Ops., with inversion, found



   Cartesian axes

     site n.     atom                  positions (alat units)
         1           Al  tau(   1) = (   0.0000000   0.0000000   0.0000000  )

     number of k points=    47  Gaussian smearing, width (Ry)=  0.1000
                       cart. coord. in units 2pi/alat
        k(    1) = (   0.0000000   0.0000000   0.0000000), wk =   0.0020000
        k(    2) = (  -0.1000000   0.1000000  -0.1000000), wk =   0.0160000
        k(    3) = (  -0.2000000   0.2000000  -0.2000000), wk =   0.0160000
        k(    4) = (  -0.3000000   0.3000000  -0.3000000), wk =   0.0160000
        k(    5) = (  -0.4000000   0.4000000  -0.4000000), wk =   0.0160000
        k(    6) = (   0.5000000  -0.5000000   0.5000000), wk =   0.0080000
        k(    7) = (   0.0000000   0.2000000   0.0000000), wk =   0.0120000
        k(    8) = (  -0.1000000   0.3000000  -0.1000000), wk =   0.0480000
        k(    9) = (  -0.2000000   0.4000000  -0.2000000), wk =   0.0480000
        k(   10) = (  -0.3000000   0.5000000  -0.3000000), wk =   0.0480000
        k(   11) = (   0.6000000  -0.4000000   0.6000000), wk =   0.0480000
        k(   12) = (   0.5000000  -0.3000000   0.5000000), wk =   0.0480000
        k(   13) = (   0.4000000  -0.2000000   0.4000000), wk =   0.0480000
        k(   14) = (   0.3000000  -0.1000000   0.3000000), wk =   0.0480000
        k(   15) = (   0.2000000   0.0000000   0.2000000), wk =   0.0240000
        k(   16) = (   0.0000000   0.4000000   0.0000000), wk =   0.0120000
        k(   17) = (  -0.1000000   0.5000000  -0.1000000), wk =   0.0480000
        k(   18) = (  -0.2000000   0.6000000  -0.2000000), wk =   0.0480000
        k(   19) = (   0.7000000  -0.3000000   0.7000000), wk =   0.0480000
        k(   20) = (   0.6000000  -0.2000000   0.6000000), wk =   0.0480000
        k(   21) = (   0.5000000  -0.1000000   0.5000000), wk =   0.0480000
        k(   22) = (   0.4000000   0.0000000   0.4000000), wk =   0.0240000
        k(   23) = (   0.0000000   0.6000000   0.0000000), wk =   0.0120000
        k(   24) = (  -0.1000000   0.7000000  -0.1000000), wk =   0.0480000
        k(   25) = (   0.8000000  -0.2000000   0.8000000), wk =   0.0480000
        k(   26) = (   0.7000000  -0.1000000   0.7000000), wk =   0.0480000
        k(   27) = (   0.6000000  -0.0000000   0.6000000), wk =   0.0240000
        k(   28) = (   0.0000000   0.8000000   0.0000000), wk =   0.0120000
        k(   29) = (   0.9000000  -0.1000000   0.9000000), wk =   0.0480000
        k(   30) = (   0.8000000   0.0000000   0.8000000), wk =   0.0240000
        k(   31) = (   0.0000000  -1.0000000   0.0000000), wk =   0.0060000
        k(   32) = (  -0.2000000   0.4000000   0.0000000), wk =   0.0480000
        k(   33) = (  -0.3000000   0.5000000  -0.1000000), wk =   0.0960000
        k(   34) = (   0.6000000  -0.4000000   0.8000000), wk =   0.0960000
        k(   35) = (   0.5000000  -0.3000000   0.7000000), wk =   0.0480000
        k(   36) = (  -0.2000000   0.6000000   0.0000000), wk =   0.0480000
        k(   37) = (   0.7000000  -0.3000000   0.9000000), wk =   0.0960000
        k(   38) = (   0.6000000  -0.2000000   0.8000000), wk =   0.0960000
        k(   39) = (   0.5000000  -0.1000000   0.7000000), wk =   0.0960000
        k(   40) = (   0.4000000   0.0000000   0.6000000), wk =   0.0480000
        k(   41) = (   0.8000000  -0.2000000   1.0000000), wk =   0.0480000
        k(   42) = (   0.7000000  -0.1000000   0.9000000), wk =   0.0960000
        k(   43) = (   0.6000000   0.0000000   0.8000000), wk =   0.0480000
        k(   44) = (  -0.2000000  -1.0000000   0.0000000), wk =   0.0240000
        k(   45) = (   0.6000000  -0.2000000   1.0000000), wk =   0.0480000
        k(   46) = (   0.5000000  -0.1000000   0.9000000), wk =   0.0480000
        k(   47) = (  -0.4000000  -1.0000000   0.0000000), wk =   0.0240000

     Dense  grid:    60087 G-vectors     FFT dimensions: (  60,  60,  60)

     Estimated max dynamical RAM per process >     126.44 MB

     WARNING: libxc functional with ID  263 depends
      on external parameters: check the user_guide of
      QE if you need to modify them or to check their
      default values.

     Initial potential from superposition of free atoms

     starting charge       2.9979, renormalised to       3.0000
     Starting wfcs are    9 randomized atomic wfcs

     total cpu time spent up to now is       34.3 secs

     Self-consistent Calculation

     iteration #  1     ecut=    60.00 Ry     beta= 0.01
     Davidson diagonalization with overlap
     ethr =  1.00E-02,  avg # of iterations =  2.2

     Threshold (ethr) on eigenvalues was too large:
     Diagonalizing with lowered threshold

     Davidson diagonalization with overlap
     ethr =  6.36E-05,  avg # of iterations =  4.5

     total cpu time spent up to now is      200.7 secs

     total energy              =      -3.94930179 Ry
     estimated scf accuracy    <       0.00230166 Ry

     iteration #  2     ecut=    60.00 Ry     beta= 0.01
     Davidson diagonalization with overlap
     ethr =  7.67E-05,  avg # of iterations =  1.0

     total cpu time spent up to now is      264.4 secs

     total energy              =      -3.96275810 Ry
     estimated scf accuracy    <       0.00227091 Ry

     iteration #  3     ecut=    60.00 Ry     beta= 0.01
     Davidson diagonalization with overlap
     ethr =  7.57E-05,  avg # of iterations =  2.1

     total cpu time spent up to now is      333.1 secs

     total energy              =      -3.96425811 Ry
     estimated scf accuracy    <       0.00009791 Ry

     iteration #  4     ecut=    60.00 Ry     beta= 0.01
     Davidson diagonalization with overlap
     c_bands:  2 eigenvalues not converged
     ethr =  3.26E-06,  avg # of iterations =  5.3

     total cpu time spent up to now is      398.6 secs

     total energy              =      -3.96412357 Ry
     estimated scf accuracy    <       0.00003742 Ry

     iteration #  5     ecut=    60.00 Ry     beta= 0.01
     Davidson diagonalization with overlap
     ethr =  1.25E-06,  avg # of iterations =  3.0

     total cpu time spent up to now is      452.2 secs

     total energy              =      -3.96428682 Ry
     estimated scf accuracy    <       0.00003149 Ry

     iteration #  6     ecut=    60.00 Ry     beta= 0.01
     Davidson diagonalization with overlap
     ethr =  1.05E-06,  avg # of iterations =  1.0

     total cpu time spent up to now is      483.7 secs

     total energy              =      -3.96432857 Ry
     estimated scf accuracy    <       0.00003042 Ry

     iteration #  7     ecut=    60.00 Ry     beta= 0.01
     Davidson diagonalization with overlap
     ethr =  1.01E-06,  avg # of iterations =  3.0

     total cpu time spent up to now is      520.0 secs

     total energy              =      -3.96443103 Ry
     estimated scf accuracy    <       0.00000382 Ry

     iteration #  8     ecut=    60.00 Ry     beta= 0.01
     Davidson diagonalization with overlap
     ethr =  1.27E-07,  avg # of iterations =  2.7

     total cpu time spent up to now is      544.8 secs

     total energy              =      -3.96443328 Ry
     estimated scf accuracy    <       0.00000270 Ry

     iteration #  9     ecut=    60.00 Ry     beta= 0.01
     Davidson diagonalization with overlap
     ethr =  9.02E-08,  avg # of iterations =  1.0

     total cpu time spent up to now is      562.9 secs

     total energy              =      -3.96442259 Ry
     estimated scf accuracy    <       0.00000249 Ry

     iteration # 10     ecut=    60.00 Ry     beta= 0.01
     Davidson diagonalization with overlap
     ethr =  8.29E-08,  avg # of iterations =  2.0

     total cpu time spent up to now is      587.6 secs

     End of self-consistent calculation

          k = 0.0000 0.0000 0.0000 (  7631 PWs)   bands (ev):

    -6.6172  -0.3830  -0.3830  -0.3830   1.3023   4.0862

          k =-0.1000 0.1000-0.1000 (  7559 PWs)   bands (ev):

    -6.5948  -0.6160  -0.4004  -0.4004   1.5417   3.8499

          k =-0.2000 0.2000-0.2000 (  7543 PWs)   bands (ev):

    -6.5340  -1.0687  -0.4442  -0.4442   1.9611   3.6041

          k =-0.3000 0.3000-0.3000 (  7507 PWs)   bands (ev):

    -6.4539  -1.4976  -0.4949  -0.4949   2.1813   3.6954

          k =-0.4000 0.4000-0.4000 (  7528 PWs)   bands (ev):

    -6.3846  -1.7952  -0.5336  -0.5336   2.1868   3.8902

          k = 0.5000-0.5000 0.5000 (  7498 PWs)   bands (ev):

    -6.3568  -1.9016  -0.5478  -0.5478   2.1678   3.8258

          k = 0.0000 0.2000 0.0000 (  7571 PWs)   bands (ev):

    -6.5873  -0.6209  -0.4412  -0.4412   1.6218   3.7199

          k =-0.1000 0.3000-0.1000 (  7545 PWs)   bands (ev):

    -6.5393  -0.9593  -0.5022  -0.4793   1.9852   3.4725

          k =-0.2000 0.4000-0.2000 (  7545 PWs)   bands (ev):

    -6.4655  -1.3666  -0.5583  -0.5406   2.2936   3.4576

          k =-0.3000 0.5000-0.3000 (  7521 PWs)   bands (ev):

    -6.3918  -1.6893  -0.6161  -0.5894   2.3632   3.4586

          k = 0.6000-0.4000 0.6000 (  7524 PWs)   bands (ev):

    -6.3493  -1.8513  -0.6770  -0.5865   2.3561   3.3705

          k = 0.5000-0.3000 0.5000 (  7518 PWs)   bands (ev):

    -6.3586  -1.8166  -0.7024  -0.5510   2.3741   3.4179

          k = 0.4000-0.2000 0.4000 (  7509 PWs)   bands (ev):

    -6.4149  -1.5944  -0.6818  -0.4941   2.3895   3.5739

          k = 0.3000-0.1000 0.3000 (  7531 PWs)   bands (ev):

    -6.4921  -1.2396  -0.6148  -0.4355   2.2322   3.4994

          k = 0.2000 0.0000 0.2000 (  7557 PWs)   bands (ev):

    -6.5596  -0.8579  -0.5071  -0.3985   1.8421   3.6248

          k = 0.0000 0.4000 0.0000 (  7559 PWs)   bands (ev):

    -6.5065  -1.0457  -0.5826  -0.5826   2.1774   3.1890

          k =-0.1000 0.5000-0.1000 (  7523 PWs)   bands (ev):

    -6.4456  -1.3094  -0.6702  -0.6528   2.3753   3.0526

          k =-0.2000 0.6000-0.2000 (  7513 PWs)   bands (ev):

    -6.3774  -1.5681  -0.8007  -0.6893   2.4637   3.1448

          k = 0.7000-0.3000 0.7000 (  7528 PWs)   bands (ev):

    -6.3293  -1.7241  -0.9361  -0.6815   2.5230   3.1429

          k = 0.6000-0.2000 0.6000 (  7548 PWs)   bands (ev):

    -6.3229  -1.7353  -1.0198  -0.6320   2.6632   3.0985

          k = 0.5000-0.1000 0.5000 (  7531 PWs)   bands (ev):

    -6.3614  -1.6129  -1.0059  -0.5561   2.8311   3.1580

          k = 0.4000 0.0000 0.4000 (  7516 PWs)   bands (ev):

    -6.4268  -1.4257  -0.8586  -0.4800   2.6640   3.4426

          k = 0.0000 0.6000 0.0000 (  7527 PWs)   bands (ev):

    -6.4006  -1.4164  -0.7394  -0.7394   2.2311   2.7752

          k =-0.1000 0.7000-0.1000 (  7526 PWs)   bands (ev):

    -6.3462  -1.5658  -0.8629  -0.7892   2.1603   2.7410

          k = 0.8000-0.2000 0.8000 (  7510 PWs)   bands (ev):

    -6.3034  -1.6350  -1.0803  -0.7883   2.2122   2.9753

          k = 0.7000-0.1000 0.7000 (  7512 PWs)   bands (ev):

    -6.2906  -1.5859  -1.2959  -0.7370   2.3715   3.2776

          k = 0.6000-0.0000 0.6000 (  7518 PWs)   bands (ev):

    -6.3134  -1.5555  -1.2935  -0.6499   2.6514   3.3525

          k = 0.0000 0.8000 0.0000 (  7516 PWs)   bands (ev):

    -6.3093  -1.6595  -0.8549  -0.8549   1.9017   2.5205

          k = 0.9000-0.1000 0.9000 (  7529 PWs)   bands (ev):

    -6.2815  -1.6972  -0.9813  -0.8678   1.8971   2.5811

          k = 0.8000 0.0000 0.8000 (  7520 PWs)   bands (ev):

    -6.2744  -1.6240  -1.2182  -0.8247   2.0810   2.9199

          k = 0.0000-1.0000 0.0000 (  7488 PWs)   bands (ev):

    -6.2729  -1.7441  -0.8968  -0.8968   1.7551   2.4349

          k =-0.2000 0.4000 0.0000 (  7542 PWs)   bands (ev):

    -6.4847  -1.1995  -0.6654  -0.5012   2.3186   3.2957

          k =-0.3000 0.5000-0.1000 (  7532 PWs)   bands (ev):

    -6.4133  -1.4820  -0.8028  -0.5567   2.5886   3.3183

          k = 0.6000-0.4000 0.8000 (  7522 PWs)   bands (ev):

    -6.3521  -1.7027  -0.8776  -0.6193   2.6508   3.1287

          k = 0.5000-0.3000 0.7000 (  7532 PWs)   bands (ev):

    -6.3277  -1.7852  -0.8999  -0.6464   2.6612   3.0297

          k =-0.2000 0.6000 0.0000 (  7534 PWs)   bands (ev):

    -6.3875  -1.4727  -0.8385  -0.6954   2.4326   2.9649

          k = 0.7000-0.3000 0.9000 (  7514 PWs)   bands (ev):

    -6.3317  -1.6009  -1.0051  -0.7584   2.4926   3.1034

          k = 0.6000-0.2000 0.8000 (  7537 PWs)   bands (ev):

    -6.3013  -1.6470  -1.1464  -0.7699   2.5851   3.1688

          k = 0.5000-0.1000 0.7000 (  7540 PWs)   bands (ev):

    -6.3100  -1.6138  -1.1915  -0.7166   2.7660   3.1359

          k = 0.4000 0.0000 0.6000 (  7530 PWs)   bands (ev):

    -6.3538  -1.5570  -1.0630  -0.6289   2.9264   3.1404

          k = 0.8000-0.2000 1.0000 (  7518 PWs)   bands (ev):

    -6.3047  -1.6334  -0.9646  -0.8730   2.1177   2.7466

          k = 0.7000-0.1000 0.9000 (  7516 PWs)   bands (ev):

    -6.2798  -1.6031  -1.1796  -0.8915   2.2467   3.0132

          k = 0.6000 0.0000 0.8000 (  7524 PWs)   bands (ev):

    -6.2820  -1.4544  -1.4242  -0.8249   2.4633   3.3310

          k =-0.2000-1.0000 0.0000 (  7532 PWs)   bands (ev):

    -6.2719  -1.6836  -1.0101  -0.9456   1.9768   2.6715

          k = 0.6000-0.2000 1.0000 (  7501 PWs)   bands (ev):

    -6.2935  -1.5579  -1.2086  -0.8734   2.5818   3.3175

          k = 0.5000-0.1000 0.9000 (  7526 PWs)   bands (ev):

    -6.2787  -1.4904  -1.3289  -0.9306   2.6070   3.4302

          k =-0.4000-1.0000 0.0000 (  7512 PWs)   bands (ev):

    -6.2703  -1.5113  -1.2605  -1.0177   2.4512   3.2755

     the Fermi energy is    -2.0653 ev

!    total energy              =      -3.96442711 Ry
     estimated scf accuracy    <       0.00000007 Ry
     smearing contrib. (-TS)   =      -0.09636072 Ry
     internal energy E=F+TS    =      -3.86806640 Ry

     The total energy is F=E-TS. E is the sum of the following terms:
     one-electron contribution =      -0.65807489 Ry
     hartree contribution      =       0.59068740 Ry
     xc contribution           =      -1.16477346 Ry
     ewald contribution        =      -2.63590545 Ry

     convergence has been achieved in  10 iterations
     Writing meta-gga kinetic term

     Writing all to output data dir ./input_pw/Al/10/pwscf.save/
     Writing meta-gga kinetic term
 
     init_run     :     18.75s CPU     34.13s WALL (       1 calls)
     electrons    :    416.43s CPU    553.40s WALL (       1 calls)

     Called by init_run:
     wfcinit      :     18.37s CPU     33.17s WALL (       1 calls)
     potinit      :      0.21s CPU      0.47s WALL (       1 calls)
     hinit0       :      0.08s CPU      0.19s WALL (       1 calls)

     Called by electrons:
     c_bands      :    343.21s CPU    456.20s WALL (      11 calls)
     sum_band     :     69.09s CPU     92.10s WALL (      11 calls)
     v_of_rho     :      1.77s CPU      2.36s WALL (      11 calls)
     mix_rho      :      2.44s CPU      2.99s WALL (      11 calls)

     Called by c_bands:
     init_us_2    :      0.91s CPU      1.16s WALL (    1081 calls)
     init_us_2:cp :      0.90s CPU      1.16s WALL (    1081 calls)
     cegterg      :    342.13s CPU    454.75s WALL (     517 calls)

     Called by *egterg:
     cdiaghg      :      0.23s CPU      0.28s WALL (    1776 calls)
     h_psi        :    355.79s CPU    481.50s WALL (    1870 calls)
     g_psi        :      0.19s CPU      0.25s WALL (    1306 calls)

     Called by h_psi:
     h_psi:calbec :      0.89s CPU      1.16s WALL (    1870 calls)
     vloc_psi     :     87.46s CPU    117.79s WALL (    1870 calls)
     add_vuspsi   :      0.46s CPU      0.67s WALL (    1870 calls)
     h_psi_meta   :    266.63s CPU    361.40s WALL (    1870 calls)

     General routines
     calbec       :      0.88s CPU      1.15s WALL (    1870 calls)
     fft          :      0.44s CPU      0.58s WALL (     131 calls)
     ffts         :      0.81s CPU      1.02s WALL (     229 calls)
     fftw         :    313.94s CPU    424.64s WALL (   86888 calls)
     interpolate  :      0.01s CPU      0.01s WALL (      11 calls)
 
     Parallel routines
 
     PWSCF        :   7m15.24s CPU   9m47.72s WALL

 
   This run was terminated on:  13:21:24  21Mar2023            

=------------------------------------------------------------------------------=
   JOB DONE.
=------------------------------------------------------------------------------=
