
     Program PWSCF v.7.0 starts on  4Apr2023 at  8:56:52 

     This program is part of the open-source Quantum ESPRESSO suite
     for quantum simulation of materials; please cite
         "P. Giannozzi et al., J. Phys.:Condens. Matter 21 395502 (2009);
         "P. Giannozzi et al., J. Phys.:Condens. Matter 29 465901 (2017);
         "P. Giannozzi et al., J. Chem. Phys. 152 154105 (2020);
          URL http://www.quantum-espresso.org", 
     in publications or presentations arising from this work. More details at
     http://www.quantum-espresso.org/quote

     Parallel version (MPI), running on     1 processors

     MPI processes distributed on     1 nodes
     19245 MiB available memory on the printing compute node when the environment starts
 
     Waiting for input...
     Reading input from standard input
Warning: card &CELL ignored
Warning: card / ignored

     Current dimensions of program PWSCF are:
     Max number of different atomic species (ntypx) = 10
     Max number of k-points (npk) =  40000
     Max angular momentum in pseudopotentials (lmaxx) =  4
     file Al.SCAN.UPF2: wavefunction(s)  0D renormalized

     WARNING: the MGGA functional with ID    5 has been 
     read together with other dft terms, but it should 
     stand alone in order to work properly. The other 
     terms will be ignored.

     Subspace diagonalization in iterative solution of the eigenvalue problem:
     a serial algorithm will be used

 
     G-vector sticks info
     --------------------
     sticks:   dense  smooth     PW     G-vecs:    dense   smooth      PW
     Sum        1213    1213    361                27725    27725    4477
 
     Using Slab Decomposition
 


     bravais-lattice index     =            2
     lattice parameter (alat)  =      12.0942  a.u.
     unit-cell volume          =     442.2588 (a.u.)^3
     number of atoms/cell      =            1
     number of atomic types    =            1
     number of electrons       =         3.00
     number of Kohn-Sham states=            6
     kinetic-energy cutoff     =      60.0000  Ry
     charge density cutoff     =     240.0000  Ry
     scf convergence threshold =      1.0E-06
     mixing beta               =       0.0100
     number of iterations used =            8  local-TF  mixing
     Exchange-correlation= SLA  PW   SCAN SCAN
                           (   0   0   0   0   0 263 267)

     celldm(1)=  12.094247  celldm(2)=   0.000000  celldm(3)=   0.000000
     celldm(4)=   0.000000  celldm(5)=   0.000000  celldm(6)=   0.000000

     crystal axes: (cart. coord. in units of alat)
               a(1) = (  -0.500000   0.000000   0.500000 )  
               a(2) = (   0.000000   0.500000   0.500000 )  
               a(3) = (  -0.500000   0.500000   0.000000 )  

     reciprocal axes: (cart. coord. in units 2 pi/alat)
               b(1) = ( -1.000000 -1.000000  1.000000 )  
               b(2) = (  1.000000  1.000000  1.000000 )  
               b(3) = ( -1.000000  1.000000 -1.000000 )  


     PseudoPot. # 1 for Al read from file:
     ~/Documents/TA/PWDFT.jl/pseudopotentials/scan_upf/Al.SCAN.UPF2
     MD5 check sum: Not computed, couldn't open file
     Pseudo is Norm-conserving, Zval =  3.0
     Generated by new atomic code, or converted to UPF format
     Using radial grid of 1467 points,  2 beta functions with: 
                l(1) =   0
                l(2) =   1

     atomic species   valence    mass     pseudopotential
        Al             3.00    26.98154     Al( 1.00)

     48 Sym. Ops., with inversion, found



   Cartesian axes

     site n.     atom                  positions (alat units)
         1           Al  tau(   1) = (   0.0000000   0.0000000   0.0000000  )

     number of k points=    47  Gaussian smearing, width (Ry)=  0.1000
                       cart. coord. in units 2pi/alat
        k(    1) = (   0.0000000   0.0000000   0.0000000), wk =   0.0020000
        k(    2) = (  -0.1000000   0.1000000  -0.1000000), wk =   0.0160000
        k(    3) = (  -0.2000000   0.2000000  -0.2000000), wk =   0.0160000
        k(    4) = (  -0.3000000   0.3000000  -0.3000000), wk =   0.0160000
        k(    5) = (  -0.4000000   0.4000000  -0.4000000), wk =   0.0160000
        k(    6) = (   0.5000000  -0.5000000   0.5000000), wk =   0.0080000
        k(    7) = (   0.0000000   0.2000000   0.0000000), wk =   0.0120000
        k(    8) = (  -0.1000000   0.3000000  -0.1000000), wk =   0.0480000
        k(    9) = (  -0.2000000   0.4000000  -0.2000000), wk =   0.0480000
        k(   10) = (  -0.3000000   0.5000000  -0.3000000), wk =   0.0480000
        k(   11) = (   0.6000000  -0.4000000   0.6000000), wk =   0.0480000
        k(   12) = (   0.5000000  -0.3000000   0.5000000), wk =   0.0480000
        k(   13) = (   0.4000000  -0.2000000   0.4000000), wk =   0.0480000
        k(   14) = (   0.3000000  -0.1000000   0.3000000), wk =   0.0480000
        k(   15) = (   0.2000000   0.0000000   0.2000000), wk =   0.0240000
        k(   16) = (   0.0000000   0.4000000   0.0000000), wk =   0.0120000
        k(   17) = (  -0.1000000   0.5000000  -0.1000000), wk =   0.0480000
        k(   18) = (  -0.2000000   0.6000000  -0.2000000), wk =   0.0480000
        k(   19) = (   0.7000000  -0.3000000   0.7000000), wk =   0.0480000
        k(   20) = (   0.6000000  -0.2000000   0.6000000), wk =   0.0480000
        k(   21) = (   0.5000000  -0.1000000   0.5000000), wk =   0.0480000
        k(   22) = (   0.4000000   0.0000000   0.4000000), wk =   0.0240000
        k(   23) = (   0.0000000   0.6000000   0.0000000), wk =   0.0120000
        k(   24) = (  -0.1000000   0.7000000  -0.1000000), wk =   0.0480000
        k(   25) = (   0.8000000  -0.2000000   0.8000000), wk =   0.0480000
        k(   26) = (   0.7000000  -0.1000000   0.7000000), wk =   0.0480000
        k(   27) = (   0.6000000  -0.0000000   0.6000000), wk =   0.0240000
        k(   28) = (   0.0000000   0.8000000   0.0000000), wk =   0.0120000
        k(   29) = (   0.9000000  -0.1000000   0.9000000), wk =   0.0480000
        k(   30) = (   0.8000000   0.0000000   0.8000000), wk =   0.0240000
        k(   31) = (   0.0000000  -1.0000000   0.0000000), wk =   0.0060000
        k(   32) = (  -0.2000000   0.4000000   0.0000000), wk =   0.0480000
        k(   33) = (  -0.3000000   0.5000000  -0.1000000), wk =   0.0960000
        k(   34) = (   0.6000000  -0.4000000   0.8000000), wk =   0.0960000
        k(   35) = (   0.5000000  -0.3000000   0.7000000), wk =   0.0480000
        k(   36) = (  -0.2000000   0.6000000   0.0000000), wk =   0.0480000
        k(   37) = (   0.7000000  -0.3000000   0.9000000), wk =   0.0960000
        k(   38) = (   0.6000000  -0.2000000   0.8000000), wk =   0.0960000
        k(   39) = (   0.5000000  -0.1000000   0.7000000), wk =   0.0960000
        k(   40) = (   0.4000000   0.0000000   0.6000000), wk =   0.0480000
        k(   41) = (   0.8000000  -0.2000000   1.0000000), wk =   0.0480000
        k(   42) = (   0.7000000  -0.1000000   0.9000000), wk =   0.0960000
        k(   43) = (   0.6000000   0.0000000   0.8000000), wk =   0.0480000
        k(   44) = (  -0.2000000  -1.0000000   0.0000000), wk =   0.0240000
        k(   45) = (   0.6000000  -0.2000000   1.0000000), wk =   0.0480000
        k(   46) = (   0.5000000  -0.1000000   0.9000000), wk =   0.0480000
        k(   47) = (  -0.4000000  -1.0000000   0.0000000), wk =   0.0240000

     Dense  grid:    27725 G-vectors     FFT dimensions: (  45,  45,  45)

     Estimated max dynamical RAM per process >      57.41 MB

     WARNING: libxc functional with ID  263 depends
      on external parameters: check the user_guide of
      QE if you need to modify them or to check their
      default values.

     Initial potential from superposition of free atoms

     starting charge       2.9979, renormalised to       3.0000
     Starting wfcs are    9 randomized atomic wfcs

     total cpu time spent up to now is       10.4 secs

     Self-consistent Calculation

     iteration #  1     ecut=    60.00 Ry     beta= 0.01
     Davidson diagonalization with overlap
     ethr =  1.00E-02,  avg # of iterations =  2.9

     Threshold (ethr) on eigenvalues was too large:
     Diagonalizing with lowered threshold

     Davidson diagonalization with overlap
     ethr =  1.25E-04,  avg # of iterations =  2.5

     total cpu time spent up to now is       57.8 secs

     total energy              =      -3.99968280 Ry
     estimated scf accuracy    <       0.00357830 Ry

     iteration #  2     ecut=    60.00 Ry     beta= 0.01
     Davidson diagonalization with overlap
     ethr =  1.19E-04,  avg # of iterations =  1.0

     total cpu time spent up to now is       76.6 secs

     total energy              =      -4.00547809 Ry
     estimated scf accuracy    <       0.00349725 Ry

     iteration #  3     ecut=    60.00 Ry     beta= 0.01
     Davidson diagonalization with overlap
     ethr =  1.17E-04,  avg # of iterations =  2.0

     total cpu time spent up to now is       96.8 secs

     total energy              =      -4.00668767 Ry
     estimated scf accuracy    <       0.00020173 Ry

     iteration #  4     ecut=    60.00 Ry     beta= 0.01
     Davidson diagonalization with overlap
     ethr =  6.72E-06,  avg # of iterations =  2.6

     total cpu time spent up to now is      112.3 secs

     total energy              =      -4.00677013 Ry
     estimated scf accuracy    <       0.00005358 Ry

     iteration #  5     ecut=    60.00 Ry     beta= 0.01
     Davidson diagonalization with overlap
     ethr =  1.79E-06,  avg # of iterations =  1.4

     total cpu time spent up to now is      117.4 secs

     total energy              =      -4.00673563 Ry
     estimated scf accuracy    <       0.00005113 Ry

     iteration #  6     ecut=    60.00 Ry     beta= 0.01
     Davidson diagonalization with overlap
     ethr =  1.70E-06,  avg # of iterations =  2.0

     total cpu time spent up to now is      127.3 secs

     total energy              =      -4.00672840 Ry
     estimated scf accuracy    <       0.00004913 Ry

     iteration #  7     ecut=    60.00 Ry     beta= 0.01
     Davidson diagonalization with overlap
     ethr =  1.64E-06,  avg # of iterations =  2.0

     total cpu time spent up to now is      138.8 secs

     total energy              =      -4.00674867 Ry
     estimated scf accuracy    <       0.00000216 Ry

     iteration #  8     ecut=    60.00 Ry     beta= 0.01
     Davidson diagonalization with overlap
     ethr =  7.21E-08,  avg # of iterations =  1.0

     total cpu time spent up to now is      145.5 secs

     total energy              =      -4.00674943 Ry
     estimated scf accuracy    <       0.00000200 Ry

     iteration #  9     ecut=    60.00 Ry     beta= 0.01
     Davidson diagonalization with overlap
     ethr =  6.67E-08,  avg # of iterations =  1.1

     total cpu time spent up to now is      149.3 secs

     total energy              =      -4.00675163 Ry
     estimated scf accuracy    <       0.00000191 Ry

     iteration # 10     ecut=    60.00 Ry     beta= 0.01
     Davidson diagonalization with overlap
     ethr =  6.37E-08,  avg # of iterations =  2.0

     total cpu time spent up to now is      153.7 secs

     End of self-consistent calculation

          k = 0.0000 0.0000 0.0000 (  3479 PWs)   bands (ev):

    -5.9072   3.1766   3.1766   3.1766   6.3012   7.2807

          k =-0.1000 0.1000-0.1000 (  3479 PWs)   bands (ev):

    -5.8164   2.5429   3.1062   3.1062   6.5367   7.2562

          k =-0.2000 0.2000-0.2000 (  3488 PWs)   bands (ev):

    -5.5527   1.3210   2.9454   2.9454   6.1668   7.6142

          k =-0.3000 0.3000-0.3000 (  3470 PWs)   bands (ev):

    -5.1512   0.0932   2.7806   2.7806   5.7829   7.3186

          k =-0.4000 0.4000-0.4000 (  3477 PWs)   bands (ev):

    -4.7134  -0.8757   2.6673   2.6673   5.5534   6.9930

          k = 0.5000-0.5000 0.5000 (  3444 PWs)   bands (ev):

    -4.4937  -1.2771   2.6278   2.6278   5.4785   6.8714

          k = 0.0000 0.2000 0.0000 (  3491 PWs)   bands (ev):

    -5.7861   2.6453   2.9222   2.9222   6.6786   6.8399

          k =-0.1000 0.3000-0.1000 (  3486 PWs)   bands (ev):

    -5.5796   1.7027   2.6926   2.8085   6.3559   7.1564

          k =-0.2000 0.4000-0.2000 (  3479 PWs)   bands (ev):

    -5.2213   0.5137   2.5139   2.5894   6.0821   7.0643

          k =-0.3000 0.5000-0.3000 (  3480 PWs)   bands (ev):

    -4.7834  -0.5326   2.3379   2.4349   5.8787   6.6856

          k = 0.6000-0.4000 0.6000 (  3478 PWs)   bands (ev):

    -4.4605  -1.1449   2.1400   2.4681   5.8302   6.5169

          k = 0.5000-0.3000 0.5000 (  3473 PWs)   bands (ev):

    -4.5367  -1.0087   2.0417   2.6012   5.9360   6.5806

          k = 0.4000-0.2000 0.4000 (  3476 PWs)   bands (ev):

    -4.9313  -0.2122   2.0707   2.8012   6.1504   6.9035

          k = 0.3000-0.1000 0.3000 (  3472 PWs)   bands (ev):

    -5.3558   0.8981   2.2470   3.0097   6.4663   7.3467

          k = 0.2000 0.0000 0.2000 (  3495 PWs)   bands (ev):

    -5.6677   1.9657   2.6244   3.1393   6.8721   6.9227

          k = 0.0000 0.4000 0.0000 (  3495 PWs)   bands (ev):

    -5.4332   1.6237   2.4000   2.4000   5.7859   6.3986

          k =-0.1000 0.5000-0.1000 (  3486 PWs)   bands (ev):

    -5.1307   0.8196   2.1006   2.1784   5.5941   6.0304

          k =-0.2000 0.6000-0.2000 (  3478 PWs)   bands (ev):

    -4.7255  -0.1082   1.6717   2.0803   5.3408   6.5962

          k = 0.7000-0.3000 0.7000 (  3481 PWs)   bands (ev):

    -4.3605  -0.7916   1.2853   2.1218   5.2884   7.1496

          k = 0.6000-0.2000 0.6000 (  3473 PWs)   bands (ev):

    -4.2986  -0.8877   1.0443   2.2938   5.4940   7.2809

          k = 0.5000-0.1000 0.5000 (  3474 PWs)   bands (ev):

    -4.6010  -0.3433   1.0160   2.5602   5.9419   7.3246

          k = 0.4000 0.0000 0.4000 (  3469 PWs)   bands (ev):

    -5.0143   0.4008   1.3723   2.8426   6.5791   7.2306

          k = 0.0000 0.6000 0.0000 (  3491 PWs)   bands (ev):

    -4.8905   0.5411   1.9094   1.9094   5.0835   5.0849

          k =-0.1000 0.7000-0.1000 (  3472 PWs)   bands (ev):

    -4.5445  -0.0321   1.4515   1.7697   4.7315   5.2947

          k = 0.8000-0.2000 0.8000 (  3455 PWs)   bands (ev):

    -4.2037  -0.4802   0.7562   1.7818   4.6679   6.2565

          k = 0.7000-0.1000 0.7000 (  3473 PWs)   bands (ev):

    -4.0703  -0.5486   0.2146   1.9432   4.8613   7.4483

          k = 0.6000-0.0000 0.6000 (  3466 PWs)   bands (ev):

    -4.2539  -0.3389   0.1843   2.2262   5.2984   8.3362

          k = 0.0000 0.8000 0.0000 (  3455 PWs)   bands (ev):

    -4.2821  -0.4159   1.5831   1.5831   4.2295   4.6526

          k = 0.9000-0.1000 0.9000 (  3456 PWs)   bands (ev):

    -4.0382  -0.6874   1.0955   1.5508   4.2257   4.9942

          k = 0.8000 0.0000 0.8000 (  3460 PWs)   bands (ev):

    -3.9532  -0.5932   0.3413   1.6770   4.4390   6.1351

          k = 0.0000-1.0000 0.0000 (  3490 PWs)   bands (ev):

    -3.9616  -0.8597   1.4702   1.4702   3.9440   4.5071

          k =-0.2000 0.4000 0.0000 (  3480 PWs)   bands (ev):

    -5.3245   1.1041   2.0385   2.7461   6.3340   6.7914

          k =-0.3000 0.5000-0.1000 (  3474 PWs)   bands (ev):

    -4.9391   0.1899   1.6255   2.5311   6.2315   6.7445

          k = 0.6000-0.4000 0.8000 (  3479 PWs)   bands (ev):

    -4.5258  -0.6586   1.4674   2.2973   6.0677   6.5067

          k = 0.5000-0.3000 0.7000 (  3464 PWs)   bands (ev):

    -4.3227  -1.0199   1.4303   2.1984   6.0391   6.3599

          k =-0.2000 0.6000 0.0000 (  3475 PWs)   bands (ev):

    -4.8025   0.3032   1.5052   2.0158   5.5561   5.7286

          k = 0.7000-0.3000 0.9000 (  3469 PWs)   bands (ev):

    -4.4176  -0.2920   1.0168   1.7672   5.4317   6.4716

          k = 0.6000-0.2000 0.8000 (  3462 PWs)   bands (ev):

    -4.1548  -0.6738   0.6708   1.7271   5.4996   7.1241

          k = 0.5000-0.1000 0.7000 (  3465 PWs)   bands (ev):

    -4.2260  -0.5436   0.5241   1.9117   5.7636   7.1625

          k = 0.4000 0.0000 0.6000 (  3466 PWs)   bands (ev):

    -4.5632  -0.1165   0.7914   2.2334   6.1555   7.1162

          k = 0.8000-0.2000 1.0000 (  3458 PWs)   bands (ev):

    -4.2324  -0.3932   1.1561   1.4010   4.8137   5.3367

          k = 0.7000-0.1000 0.9000 (  3462 PWs)   bands (ev):

    -4.0026  -0.5066   0.4710   1.3368   5.0204   6.2582

          k = 0.6000 0.0000 0.8000 (  3466 PWs)   bands (ev):

    -4.0045  -0.2014  -0.1545   1.5462   5.3143   7.4355

          k =-0.2000-1.0000 0.0000 (  3448 PWs)   bands (ev):

    -3.9437  -0.7262   1.0360   1.1746   4.5750   5.2030

          k = 0.6000-0.2000 1.0000 (  3473 PWs)   bands (ev):

    -4.1147  -0.3405   0.4184   1.3089   5.9028   6.8298

          k = 0.5000-0.1000 0.9000 (  3462 PWs)   bands (ev):

    -3.9797  -0.3176   0.1500   1.1129   6.0005   7.2913

          k =-0.4000-1.0000 0.0000 (  3452 PWs)   bands (ev):

    -3.9139  -0.3325   0.2911   0.8225   5.7896   6.7215

     the Fermi energy is    -0.4721 ev

!    total energy              =      -4.00675313 Ry
     estimated scf accuracy    <       0.00000002 Ry
     smearing contrib. (-TS)   =      -0.06599500 Ry
     internal energy E=F+TS    =      -3.94075813 Ry

     The total energy is F=E-TS. E is the sum of the following terms:
     one-electron contribution =       0.43567706 Ry
     hartree contribution      =       0.23723387 Ry
     xc contribution           =      -1.20181894 Ry
     ewald contribution        =      -3.41185011 Ry

     convergence has been achieved in  10 iterations
     Writing meta-gga kinetic term

     Writing all to output data dir ./input_pw/Al/10/pwscf.save/
     Writing meta-gga kinetic term
 
     init_run     :      5.50s CPU     10.33s WALL (       1 calls)
     electrons    :    101.30s CPU    143.29s WALL (       1 calls)

     Called by init_run:
     wfcinit      :      5.32s CPU      9.93s WALL (       1 calls)
     potinit      :      0.07s CPU      0.23s WALL (       1 calls)
     hinit0       :      0.07s CPU      0.11s WALL (       1 calls)

     Called by electrons:
     c_bands      :     82.24s CPU    117.08s WALL (      11 calls)
     sum_band     :     18.02s CPU     24.91s WALL (      11 calls)
     v_of_rho     :      0.62s CPU      0.93s WALL (      11 calls)
     mix_rho      :      0.46s CPU      0.55s WALL (      11 calls)

     Called by c_bands:
     init_us_2    :      0.36s CPU      0.48s WALL (    1081 calls)
     init_us_2:cp :      0.36s CPU      0.48s WALL (    1081 calls)
     cegterg      :     81.84s CPU    116.50s WALL (     517 calls)

     Called by *egterg:
     cdiaghg      :      0.13s CPU      0.15s WALL (    1432 calls)
     h_psi        :     85.94s CPU    124.85s WALL (    1526 calls)
     g_psi        :      0.05s CPU      0.05s WALL (     962 calls)

     Called by h_psi:
     h_psi:calbec :      0.20s CPU      0.24s WALL (    1526 calls)
     vloc_psi     :     21.29s CPU     31.13s WALL (    1526 calls)
     add_vuspsi   :      0.13s CPU      0.19s WALL (    1526 calls)
     h_psi_meta   :     64.23s CPU     93.17s WALL (    1526 calls)

     General routines
     calbec       :      0.19s CPU      0.23s WALL (    1526 calls)
     fft          :      0.13s CPU      0.27s WALL (     131 calls)
     ffts         :      0.18s CPU      0.24s WALL (     175 calls)
     fftw         :     85.04s CPU    122.94s WALL (   76440 calls)
     interpolate  :      0.00s CPU      0.00s WALL (      11 calls)
 
     Parallel routines
 
     PWSCF        :   1m46.84s CPU   2m33.71s WALL

 
   This run was terminated on:   8:59:26   4Apr2023            

=------------------------------------------------------------------------------=
   JOB DONE.
=------------------------------------------------------------------------------=
