
     Program PWSCF v.7.0 starts on 21Mar2023 at 11:18: 3 

     This program is part of the open-source Quantum ESPRESSO suite
     for quantum simulation of materials; please cite
         "P. Giannozzi et al., J. Phys.:Condens. Matter 21 395502 (2009);
         "P. Giannozzi et al., J. Phys.:Condens. Matter 29 465901 (2017);
         "P. Giannozzi et al., J. Chem. Phys. 152 154105 (2020);
          URL http://www.quantum-espresso.org", 
     in publications or presentations arising from this work. More details at
     http://www.quantum-espresso.org/quote

     Parallel version (MPI), running on     1 processors

     MPI processes distributed on     1 nodes
     24470 MiB available memory on the printing compute node when the environment starts
 
     Waiting for input...
     Reading input from standard input
Warning: card &CELL ignored
Warning: card / ignored

     Current dimensions of program PWSCF are:
     Max number of different atomic species (ntypx) = 10
     Max number of k-points (npk) =  40000
     Max angular momentum in pseudopotentials (lmaxx) =  4
     file Al.SCAN.UPF2: wavefunction(s)  0D renormalized

     WARNING: the MGGA functional with ID    5 has been 
     read together with other dft terms, but it should 
     stand alone in order to work properly. The other 
     terms will be ignored.

     Subspace diagonalization in iterative solution of the eigenvalue problem:
     a serial algorithm will be used

 
     G-vector sticks info
     --------------------
     sticks:   dense  smooth     PW     G-vecs:    dense   smooth      PW
     Sum         547     547    163                 8363     8363    1459
 
     Using Slab Decomposition
 


     bravais-lattice index     =            2
     lattice parameter (alat)  =       8.0907  a.u.
     unit-cell volume          =     132.4045 (a.u.)^3
     number of atoms/cell      =            1
     number of atomic types    =            1
     number of electrons       =         3.00
     number of Kohn-Sham states=            6
     kinetic-energy cutoff     =      60.0000  Ry
     charge density cutoff     =     240.0000  Ry
     scf convergence threshold =      1.0E-06
     mixing beta               =       0.0100
     number of iterations used =            8  local-TF  mixing
     Exchange-correlation= SLA  PW   SCAN SCAN
                           (   0   0   0   0   0 263 267)

     celldm(1)=   8.090727  celldm(2)=   0.000000  celldm(3)=   0.000000
     celldm(4)=   0.000000  celldm(5)=   0.000000  celldm(6)=   0.000000

     crystal axes: (cart. coord. in units of alat)
               a(1) = (  -0.500000   0.000000   0.500000 )  
               a(2) = (   0.000000   0.500000   0.500000 )  
               a(3) = (  -0.500000   0.500000   0.000000 )  

     reciprocal axes: (cart. coord. in units 2 pi/alat)
               b(1) = ( -1.000000 -1.000000  1.000000 )  
               b(2) = (  1.000000  1.000000  1.000000 )  
               b(3) = ( -1.000000  1.000000 -1.000000 )  


     PseudoPot. # 1 for Al read from file:
     ~/Documents/TA/PWDFT.jl/pseudopotentials/scan_upf/Al.SCAN.UPF2
     MD5 check sum: Not computed, couldn't open file
     Pseudo is Norm-conserving, Zval =  3.0
     Generated by new atomic code, or converted to UPF format
     Using radial grid of 1467 points,  2 beta functions with: 
                l(1) =   0
                l(2) =   1

     atomic species   valence    mass     pseudopotential
        Al             3.00    26.98154     Al( 1.00)

     48 Sym. Ops., with inversion, found



   Cartesian axes

     site n.     atom                  positions (alat units)
         1           Al  tau(   1) = (   0.0000000   0.0000000   0.0000000  )

     number of k points=    47  Gaussian smearing, width (Ry)=  0.1000
                       cart. coord. in units 2pi/alat
        k(    1) = (   0.0000000   0.0000000   0.0000000), wk =   0.0020000
        k(    2) = (  -0.1000000   0.1000000  -0.1000000), wk =   0.0160000
        k(    3) = (  -0.2000000   0.2000000  -0.2000000), wk =   0.0160000
        k(    4) = (  -0.3000000   0.3000000  -0.3000000), wk =   0.0160000
        k(    5) = (  -0.4000000   0.4000000  -0.4000000), wk =   0.0160000
        k(    6) = (   0.5000000  -0.5000000   0.5000000), wk =   0.0080000
        k(    7) = (   0.0000000   0.2000000   0.0000000), wk =   0.0120000
        k(    8) = (  -0.1000000   0.3000000  -0.1000000), wk =   0.0480000
        k(    9) = (  -0.2000000   0.4000000  -0.2000000), wk =   0.0480000
        k(   10) = (  -0.3000000   0.5000000  -0.3000000), wk =   0.0480000
        k(   11) = (   0.6000000  -0.4000000   0.6000000), wk =   0.0480000
        k(   12) = (   0.5000000  -0.3000000   0.5000000), wk =   0.0480000
        k(   13) = (   0.4000000  -0.2000000   0.4000000), wk =   0.0480000
        k(   14) = (   0.3000000  -0.1000000   0.3000000), wk =   0.0480000
        k(   15) = (   0.2000000   0.0000000   0.2000000), wk =   0.0240000
        k(   16) = (   0.0000000   0.4000000   0.0000000), wk =   0.0120000
        k(   17) = (  -0.1000000   0.5000000  -0.1000000), wk =   0.0480000
        k(   18) = (  -0.2000000   0.6000000  -0.2000000), wk =   0.0480000
        k(   19) = (   0.7000000  -0.3000000   0.7000000), wk =   0.0480000
        k(   20) = (   0.6000000  -0.2000000   0.6000000), wk =   0.0480000
        k(   21) = (   0.5000000  -0.1000000   0.5000000), wk =   0.0480000
        k(   22) = (   0.4000000   0.0000000   0.4000000), wk =   0.0240000
        k(   23) = (   0.0000000   0.6000000   0.0000000), wk =   0.0120000
        k(   24) = (  -0.1000000   0.7000000  -0.1000000), wk =   0.0480000
        k(   25) = (   0.8000000  -0.2000000   0.8000000), wk =   0.0480000
        k(   26) = (   0.7000000  -0.1000000   0.7000000), wk =   0.0480000
        k(   27) = (   0.6000000  -0.0000000   0.6000000), wk =   0.0240000
        k(   28) = (   0.0000000   0.8000000   0.0000000), wk =   0.0120000
        k(   29) = (   0.9000000  -0.1000000   0.9000000), wk =   0.0480000
        k(   30) = (   0.8000000   0.0000000   0.8000000), wk =   0.0240000
        k(   31) = (   0.0000000  -1.0000000   0.0000000), wk =   0.0060000
        k(   32) = (  -0.2000000   0.4000000   0.0000000), wk =   0.0480000
        k(   33) = (  -0.3000000   0.5000000  -0.1000000), wk =   0.0960000
        k(   34) = (   0.6000000  -0.4000000   0.8000000), wk =   0.0960000
        k(   35) = (   0.5000000  -0.3000000   0.7000000), wk =   0.0480000
        k(   36) = (  -0.2000000   0.6000000   0.0000000), wk =   0.0480000
        k(   37) = (   0.7000000  -0.3000000   0.9000000), wk =   0.0960000
        k(   38) = (   0.6000000  -0.2000000   0.8000000), wk =   0.0960000
        k(   39) = (   0.5000000  -0.1000000   0.7000000), wk =   0.0960000
        k(   40) = (   0.4000000   0.0000000   0.6000000), wk =   0.0480000
        k(   41) = (   0.8000000  -0.2000000   1.0000000), wk =   0.0480000
        k(   42) = (   0.7000000  -0.1000000   0.9000000), wk =   0.0960000
        k(   43) = (   0.6000000   0.0000000   0.8000000), wk =   0.0480000
        k(   44) = (  -0.2000000  -1.0000000   0.0000000), wk =   0.0240000
        k(   45) = (   0.6000000  -0.2000000   1.0000000), wk =   0.0480000
        k(   46) = (   0.5000000  -0.1000000   0.9000000), wk =   0.0480000
        k(   47) = (  -0.4000000  -1.0000000   0.0000000), wk =   0.0240000

     Dense  grid:     8363 G-vectors     FFT dimensions: (  30,  30,  30)

     Estimated max dynamical RAM per process >      17.30 MB

     WARNING: libxc functional with ID  263 depends
      on external parameters: check the user_guide of
      QE if you need to modify them or to check their
      default values.

     Initial potential from superposition of free atoms

     starting charge       2.9979, renormalised to       3.0000
     Starting wfcs are    9 randomized atomic wfcs

     total cpu time spent up to now is        3.9 secs

     Self-consistent Calculation

     iteration #  1     ecut=    60.00 Ry     beta= 0.01
     Davidson diagonalization with overlap
     ethr =  1.00E-02,  avg # of iterations =  3.3

     Threshold (ethr) on eigenvalues was too large:
     Diagonalizing with lowered threshold

     Davidson diagonalization with overlap
     ethr =  2.11E-04,  avg # of iterations =  2.1

     total cpu time spent up to now is       18.3 secs

     total energy              =      -4.14610082 Ry
     estimated scf accuracy    <       0.00618059 Ry

     iteration #  2     ecut=    60.00 Ry     beta= 0.01
     Davidson diagonalization with overlap
     ethr =  2.06E-04,  avg # of iterations =  1.0

     total cpu time spent up to now is       23.5 secs

     total energy              =      -4.14533242 Ry
     estimated scf accuracy    <       0.00610996 Ry

     iteration #  3     ecut=    60.00 Ry     beta= 0.01
     Davidson diagonalization with overlap
     ethr =  2.04E-04,  avg # of iterations =  2.1

     total cpu time spent up to now is       29.3 secs

     total energy              =      -4.14608509 Ry
     estimated scf accuracy    <       0.00023560 Ry

     iteration #  4     ecut=    60.00 Ry     beta= 0.01
     Davidson diagonalization with overlap
     ethr =  7.85E-06,  avg # of iterations =  3.1

     total cpu time spent up to now is       35.4 secs

     total energy              =      -4.14613899 Ry
     estimated scf accuracy    <       0.00008014 Ry

     iteration #  5     ecut=    60.00 Ry     beta= 0.01
     Davidson diagonalization with overlap
     ethr =  2.67E-06,  avg # of iterations =  1.3

     total cpu time spent up to now is       39.4 secs

     total energy              =      -4.14625579 Ry
     estimated scf accuracy    <       0.00008090 Ry

     iteration #  6     ecut=    60.00 Ry     beta= 0.01
     Davidson diagonalization with overlap
     ethr =  2.67E-06,  avg # of iterations =  2.2

     total cpu time spent up to now is       43.3 secs

     total energy              =      -4.14645015 Ry
     estimated scf accuracy    <       0.00001983 Ry

     iteration #  7     ecut=    60.00 Ry     beta= 0.01
     Davidson diagonalization with overlap
     ethr =  6.61E-07,  avg # of iterations =  2.6

     total cpu time spent up to now is       46.5 secs

     total energy              =      -4.14651712 Ry
     estimated scf accuracy    <       0.00000514 Ry

     iteration #  8     ecut=    60.00 Ry     beta= 0.01
     Davidson diagonalization with overlap
     ethr =  1.71E-07,  avg # of iterations =  1.0

     total cpu time spent up to now is       48.5 secs

     total energy              =      -4.14651358 Ry
     estimated scf accuracy    <       0.00000443 Ry

     iteration #  9     ecut=    60.00 Ry     beta= 0.01
     Davidson diagonalization with overlap
     ethr =  1.48E-07,  avg # of iterations =  1.6

     total cpu time spent up to now is       50.6 secs

     total energy              =      -4.14647839 Ry
     estimated scf accuracy    <       0.00000622 Ry

     iteration # 10     ecut=    60.00 Ry     beta= 0.01
     Davidson diagonalization with overlap
     ethr =  1.48E-07,  avg # of iterations =  2.0

     total cpu time spent up to now is       53.0 secs

     total energy              =      -4.14650337 Ry
     estimated scf accuracy    <       0.00000138 Ry

     iteration # 11     ecut=    60.00 Ry     beta= 0.01
     Davidson diagonalization with overlap
     ethr =  4.60E-08,  avg # of iterations =  2.0

     total cpu time spent up to now is       55.2 secs

     total energy              =      -4.14649651 Ry
     estimated scf accuracy    <       0.00000246 Ry

     iteration # 12     ecut=    60.00 Ry     beta= 0.01
     Davidson diagonalization with overlap
     ethr =  4.60E-08,  avg # of iterations =  2.0

     total cpu time spent up to now is       57.2 secs

     End of self-consistent calculation

          k = 0.0000 0.0000 0.0000 (  1037 PWs)   bands (ev):

    -4.0873  18.2300  18.2300  18.5785  18.5788  18.5788

          k =-0.1000 0.1000-0.1000 (  1016 PWs)   bands (ev):

    -3.8350  14.9174  17.1970  17.1971  19.7204  19.9273

          k =-0.2000 0.2000-0.2000 (  1031 PWs)   bands (ev):

    -3.0807  11.2269  16.4128  16.4128  19.5616  20.5379

          k =-0.3000 0.3000-0.3000 (  1047 PWs)   bands (ev):

    -1.8318   7.7987  16.0381  16.0381  19.1531  19.1531

          k =-0.4000 0.4000-0.4000 (  1038 PWs)   bands (ev):

    -0.1002   4.7405  16.0407  16.0407  17.9110  17.9110

          k = 0.5000-0.5000 0.5000 (  1056 PWs)   bands (ev):

     2.0672   2.1285  16.1866  16.1866  17.3419  17.3419

          k = 0.0000 0.2000 0.0000 (  1014 PWs)   bands (ev):

    -3.7510  15.8573  15.8573  16.6793  17.7940  21.3849

          k =-0.1000 0.3000-0.1000 (  1021 PWs)   bands (ev):

    -3.1643  12.6024  14.9281  16.3990  18.1095  19.6135

          k =-0.2000 0.4000-0.2000 (  1040 PWs)   bands (ev):

    -2.0806   9.1003  14.4270  15.8675  16.8520  20.9794

          k =-0.3000 0.5000-0.3000 (  1038 PWs)   bands (ev):

    -0.5105   5.9232  14.3560  14.9832  16.1901  20.2840

          k = 0.6000-0.4000 0.6000 (  1040 PWs)   bands (ev):

     1.5305   3.1446  13.9510  14.7098  16.5097  19.2492

          k = 0.5000-0.3000 0.5000 (  1041 PWs)   bands (ev):

     0.7991   4.0233  13.2928  15.4699  17.3333  18.6448

          k = 0.4000-0.2000 0.4000 (  1040 PWs)   bands (ev):

    -1.0871   6.9379  13.0697  16.5677  18.5414  18.5925

          k = 0.3000-0.1000 0.3000 (  1041 PWs)   bands (ev):

    -2.4966  10.2251  13.2987  17.7440  19.0742  20.2096

          k = 0.2000 0.0000 0.2000 (  1023 PWs)   bands (ev):

    -3.4155  13.5590  14.2026  18.6993  18.8747  20.4710

          k = 0.0000 0.4000 0.0000 (  1026 PWs)   bands (ev):

    -2.7465  13.8482  13.8482  14.5964  15.7768  17.0747

          k =-0.1000 0.5000-0.1000 (  1036 PWs)   bands (ev):

    -1.8314  10.7970  13.1993  13.9416  14.8542  17.5291

          k =-0.2000 0.6000-0.2000 (  1036 PWs)   bands (ev):

    -0.4282   7.5524  12.2620  12.9851  14.7547  19.9213

          k = 0.7000-0.3000 0.7000 (  1043 PWs)   bands (ev):

     1.4487   4.6577  10.9754  13.2048  15.0252  22.0317

          k = 0.6000-0.2000 0.6000 (  1044 PWs)   bands (ev):

     2.1780   3.7781  10.1379  13.8547  15.7433  21.2760

          k = 0.5000-0.1000 0.5000 (  1038 PWs)   bands (ev):

     0.1459   6.5177   9.7799  14.9235  16.9023  20.9391

          k = 0.4000 0.0000 0.4000 (  1047 PWs)   bands (ev):

    -1.4175   9.2917  10.2422  16.3717  18.4574  21.3243

          k = 0.0000 0.6000 0.0000 (  1030 PWs)   bands (ev):

    -1.0868  11.6714  12.4020  12.4020  13.0100  15.3423

          k =-0.1000 0.7000-0.1000 (  1039 PWs)   bands (ev):

     0.1453   9.5754   9.7655  12.0406  13.5880  16.3912

          k = 0.8000-0.2000 0.8000 (  1039 PWs)   bands (ev):

     1.8499   6.6151   8.2962  12.1156  13.8351  19.1365

          k = 0.7000-0.1000 0.7000 (  1042 PWs)   bands (ev):

     3.9933   4.0211   7.3075  12.6257  14.4301  22.2875

          k = 0.6000-0.0000 0.6000 (  1037 PWs)   bands (ev):

     1.8549   6.1966   7.1658  13.5667  15.4614  23.8219

          k = 0.0000 0.8000 0.0000 (  1034 PWs)   bands (ev):

     1.2019   7.6724  11.5318  11.5318  12.0412  14.4490

          k = 0.9000-0.1000 0.9000 (  1039 PWs)   bands (ev):

     2.7170   6.0429   8.9617  11.4602  12.9601  15.8145

          k = 0.8000 0.0000 0.8000 (  1037 PWs)   bands (ev):

     4.3337   5.2382   6.3016  11.8254  13.5243  18.8660

          k = 0.0000-1.0000 0.0000 (  1034 PWs)   bands (ev):

     3.7123   4.5832  11.2415  11.2415  11.7164  14.1472

          k =-0.2000 0.4000 0.0000 (  1028 PWs)   bands (ev):

    -2.4132  11.4412  12.2425  16.2613  17.5524  18.8013

          k =-0.3000 0.5000-0.1000 (  1036 PWs)   bands (ev):

    -1.1695   8.3831  11.5565  14.5242  17.6861  20.2414

          k = 0.6000-0.4000 0.8000 (  1041 PWs)   bands (ev):

     0.5544   5.3661  11.6154  13.1253  17.7637  19.4000

          k = 0.5000-0.3000 0.7000 (  1040 PWs)   bands (ev):

     2.7227   2.7600  12.0782  12.2144  18.0077  18.7535

          k =-0.2000 0.6000 0.0000 (  1040 PWs)   bands (ev):

    -0.7571   9.9100  10.7671  11.9759  16.0928  17.4245

          k = 0.7000-0.3000 0.9000 (  1044 PWs)   bands (ev):

     0.7984   7.1400  10.3327  10.3974  16.5697  19.5911

          k = 0.6000-0.2000 0.8000 (  1050 PWs)   bands (ev):

     2.8169   4.4148   9.2216  10.7186  17.0021  21.2098

          k = 0.5000-0.1000 0.7000 (  1042 PWs)   bands (ev):

     2.0965   5.2602   8.5522  11.5512  17.8129  20.6672

          k = 0.4000 0.0000 0.6000 (  1040 PWs)   bands (ev):

     0.2277   7.7469   8.7219  12.8311  18.9487  19.9923

          k = 0.8000-0.2000 1.0000 (  1043 PWs)   bands (ev):

     1.5263   7.9848   8.9869   9.8660  15.1878  16.5977

          k = 0.7000-0.1000 0.9000 (  1043 PWs)   bands (ev):

     3.3564   6.5143   6.6777   9.7483  15.9859  19.0908

          k = 0.6000 0.0000 0.8000 (  1040 PWs)   bands (ev):

     4.0965   5.2656   6.2088  10.4152  16.7239  22.2386

          k =-0.2000-1.0000 0.0000 (  1050 PWs)   bands (ev):

     4.0230   4.9115   8.6787   9.5621  14.8836  16.3162

          k = 0.6000-0.2000 1.0000 (  1047 PWs)   bands (ev):

     2.4953   6.8180   7.7871   8.9134  19.1412  19.8036

          k = 0.5000-0.1000 0.9000 (  1048 PWs)   bands (ev):

     4.6253   4.6306   7.9246   7.9357  19.6874  20.4320

          k =-0.4000-1.0000 0.0000 (  1042 PWs)   bands (ev):

     4.9551   5.8862   6.5082   7.4725  18.8487  19.7365

     the Fermi energy is     6.2453 ev

!    total energy              =      -4.14649455 Ry
     estimated scf accuracy    <       0.00000034 Ry
     smearing contrib. (-TS)   =      -0.03010941 Ry
     internal energy E=F+TS    =      -4.11638515 Ry

     The total energy is F=E-TS. E is the sum of the following terms:
     one-electron contribution =       2.49029088 Ry
     hartree contribution      =       0.00635540 Ry
     xc contribution           =      -1.51290180 Ry
     ewald contribution        =      -5.10012963 Ry

     convergence has been achieved in  12 iterations
     Writing meta-gga kinetic term

     Writing all to output data dir ./input_pw/Al/10/pwscf.save/
     Writing meta-gga kinetic term
 
     init_run     :      1.21s CPU      3.84s WALL (       1 calls)
     electrons    :     30.14s CPU     53.25s WALL (       1 calls)

     Called by init_run:
     wfcinit      :      1.11s CPU      3.49s WALL (       1 calls)
     potinit      :      0.02s CPU      0.10s WALL (       1 calls)
     hinit0       :      0.07s CPU      0.21s WALL (       1 calls)

     Called by electrons:
     c_bands      :     24.74s CPU     43.70s WALL (      13 calls)
     sum_band     :      5.09s CPU      9.02s WALL (      13 calls)
     v_of_rho     :      0.21s CPU      0.46s WALL (      13 calls)
     mix_rho      :      0.10s CPU      0.15s WALL (      13 calls)

     Called by c_bands:
     init_us_2    :      0.15s CPU      0.27s WALL (    1269 calls)
     init_us_2:cp :      0.14s CPU      0.26s WALL (    1269 calls)
     cegterg      :     24.59s CPU     43.42s WALL (     611 calls)

     Called by *egterg:
     cdiaghg      :      0.13s CPU      0.19s WALL (    1799 calls)
     h_psi        :     25.19s CPU     46.05s WALL (    1893 calls)
     g_psi        :      0.02s CPU      0.03s WALL (    1235 calls)

     Called by h_psi:
     h_psi:calbec :      0.05s CPU      0.09s WALL (    1893 calls)
     vloc_psi     :      6.23s CPU     11.60s WALL (    1893 calls)
     add_vuspsi   :      0.06s CPU      0.07s WALL (    1893 calls)
     h_psi_meta   :     18.82s CPU     34.22s WALL (    1893 calls)

     General routines
     calbec       :      0.05s CPU      0.08s WALL (    1893 calls)
     fft          :      0.04s CPU      0.07s WALL (     155 calls)
     ffts         :      0.05s CPU      0.08s WALL (     167 calls)
     fftw         :     27.03s CPU     49.26s WALL (   91464 calls)
     interpolate  :      0.00s CPU      0.00s WALL (      13 calls)
 
     Parallel routines
 
     PWSCF        :     31.38s CPU     57.20s WALL

 
   This run was terminated on:  11:19: 1  21Mar2023            

=------------------------------------------------------------------------------=
   JOB DONE.
=------------------------------------------------------------------------------=
