
     Program PWSCF v.7.0 starts on  4Apr2023 at  9:49: 0 

     This program is part of the open-source Quantum ESPRESSO suite
     for quantum simulation of materials; please cite
         "P. Giannozzi et al., J. Phys.:Condens. Matter 21 395502 (2009);
         "P. Giannozzi et al., J. Phys.:Condens. Matter 29 465901 (2017);
         "P. Giannozzi et al., J. Chem. Phys. 152 154105 (2020);
          URL http://www.quantum-espresso.org", 
     in publications or presentations arising from this work. More details at
     http://www.quantum-espresso.org/quote

     Parallel version (MPI), running on     1 processors

     MPI processes distributed on     1 nodes
     19893 MiB available memory on the printing compute node when the environment starts
 
     Waiting for input...
     Reading input from standard input
Warning: card &CELL ignored
Warning: card / ignored

     Current dimensions of program PWSCF are:
     Max number of different atomic species (ntypx) = 10
     Max number of k-points (npk) =  40000
     Max angular momentum in pseudopotentials (lmaxx) =  4
     file Al.SCAN.UPF2: wavefunction(s)  0D renormalized

     WARNING: the MGGA functional with ID    5 has been 
     read together with other dft terms, but it should 
     stand alone in order to work properly. The other 
     terms will be ignored.

     Subspace diagonalization in iterative solution of the eigenvalue problem:
     a serial algorithm will be used

 
     G-vector sticks info
     --------------------
     sticks:   dense  smooth     PW     G-vecs:    dense   smooth      PW
     Sum         595     595    187                 9505     9505    1687
 
     Using Slab Decomposition
 


     bravais-lattice index     =            2
     lattice parameter (alat)  =       8.4660  a.u.
     unit-cell volume          =     151.6948 (a.u.)^3
     number of atoms/cell      =            1
     number of atomic types    =            1
     number of electrons       =         3.00
     number of Kohn-Sham states=            6
     kinetic-energy cutoff     =      60.0000  Ry
     charge density cutoff     =     240.0000  Ry
     scf convergence threshold =      1.0E-06
     mixing beta               =       0.0100
     number of iterations used =            8  local-TF  mixing
     Exchange-correlation= SLA  PW   SCAN SCAN
                           (   0   0   0   0   0 263 267)

     celldm(1)=   8.465973  celldm(2)=   0.000000  celldm(3)=   0.000000
     celldm(4)=   0.000000  celldm(5)=   0.000000  celldm(6)=   0.000000

     crystal axes: (cart. coord. in units of alat)
               a(1) = (  -0.500000   0.000000   0.500000 )  
               a(2) = (   0.000000   0.500000   0.500000 )  
               a(3) = (  -0.500000   0.500000   0.000000 )  

     reciprocal axes: (cart. coord. in units 2 pi/alat)
               b(1) = ( -1.000000 -1.000000  1.000000 )  
               b(2) = (  1.000000  1.000000  1.000000 )  
               b(3) = ( -1.000000  1.000000 -1.000000 )  


     PseudoPot. # 1 for Al read from file:
     ~/Documents/TA/PWDFT.jl/pseudopotentials/scan_upf/Al.SCAN.UPF2
     MD5 check sum: Not computed, couldn't open file
     Pseudo is Norm-conserving, Zval =  3.0
     Generated by new atomic code, or converted to UPF format
     Using radial grid of 1467 points,  2 beta functions with: 
                l(1) =   0
                l(2) =   1

     atomic species   valence    mass     pseudopotential
        Al             3.00    26.98154     Al( 1.00)

     Starting magnetic structure 
     atomic species   magnetization
        Al           1.000

     48 Sym. Ops., with inversion, found



   Cartesian axes

     site n.     atom                  positions (alat units)
         1           Al  tau(   1) = (   0.0000000   0.0000000   0.0000000  )

     number of k points=    47  Gaussian smearing, width (Ry)=  0.1000
                       cart. coord. in units 2pi/alat
        k(    1) = (   0.0000000   0.0000000   0.0000000), wk =   0.0010000
        k(    2) = (  -0.1000000   0.1000000  -0.1000000), wk =   0.0080000
        k(    3) = (  -0.2000000   0.2000000  -0.2000000), wk =   0.0080000
        k(    4) = (  -0.3000000   0.3000000  -0.3000000), wk =   0.0080000
        k(    5) = (  -0.4000000   0.4000000  -0.4000000), wk =   0.0080000
        k(    6) = (   0.5000000  -0.5000000   0.5000000), wk =   0.0040000
        k(    7) = (   0.0000000   0.2000000   0.0000000), wk =   0.0060000
        k(    8) = (  -0.1000000   0.3000000  -0.1000000), wk =   0.0240000
        k(    9) = (  -0.2000000   0.4000000  -0.2000000), wk =   0.0240000
        k(   10) = (  -0.3000000   0.5000000  -0.3000000), wk =   0.0240000
        k(   11) = (   0.6000000  -0.4000000   0.6000000), wk =   0.0240000
        k(   12) = (   0.5000000  -0.3000000   0.5000000), wk =   0.0240000
        k(   13) = (   0.4000000  -0.2000000   0.4000000), wk =   0.0240000
        k(   14) = (   0.3000000  -0.1000000   0.3000000), wk =   0.0240000
        k(   15) = (   0.2000000   0.0000000   0.2000000), wk =   0.0120000
        k(   16) = (   0.0000000   0.4000000   0.0000000), wk =   0.0060000
        k(   17) = (  -0.1000000   0.5000000  -0.1000000), wk =   0.0240000
        k(   18) = (  -0.2000000   0.6000000  -0.2000000), wk =   0.0240000
        k(   19) = (   0.7000000  -0.3000000   0.7000000), wk =   0.0240000
        k(   20) = (   0.6000000  -0.2000000   0.6000000), wk =   0.0240000
        k(   21) = (   0.5000000  -0.1000000   0.5000000), wk =   0.0240000
        k(   22) = (   0.4000000   0.0000000   0.4000000), wk =   0.0120000
        k(   23) = (   0.0000000   0.6000000   0.0000000), wk =   0.0060000
        k(   24) = (  -0.1000000   0.7000000  -0.1000000), wk =   0.0240000
        k(   25) = (   0.8000000  -0.2000000   0.8000000), wk =   0.0240000
        k(   26) = (   0.7000000  -0.1000000   0.7000000), wk =   0.0240000
        k(   27) = (   0.6000000  -0.0000000   0.6000000), wk =   0.0120000
        k(   28) = (   0.0000000   0.8000000   0.0000000), wk =   0.0060000
        k(   29) = (   0.9000000  -0.1000000   0.9000000), wk =   0.0240000
        k(   30) = (   0.8000000   0.0000000   0.8000000), wk =   0.0120000
        k(   31) = (   0.0000000  -1.0000000   0.0000000), wk =   0.0030000
        k(   32) = (  -0.2000000   0.4000000   0.0000000), wk =   0.0240000
        k(   33) = (  -0.3000000   0.5000000  -0.1000000), wk =   0.0480000
        k(   34) = (   0.6000000  -0.4000000   0.8000000), wk =   0.0480000
        k(   35) = (   0.5000000  -0.3000000   0.7000000), wk =   0.0240000
        k(   36) = (  -0.2000000   0.6000000   0.0000000), wk =   0.0240000
        k(   37) = (   0.7000000  -0.3000000   0.9000000), wk =   0.0480000
        k(   38) = (   0.6000000  -0.2000000   0.8000000), wk =   0.0480000
        k(   39) = (   0.5000000  -0.1000000   0.7000000), wk =   0.0480000
        k(   40) = (   0.4000000   0.0000000   0.6000000), wk =   0.0240000
        k(   41) = (   0.8000000  -0.2000000   1.0000000), wk =   0.0240000
        k(   42) = (   0.7000000  -0.1000000   0.9000000), wk =   0.0480000
        k(   43) = (   0.6000000   0.0000000   0.8000000), wk =   0.0240000
        k(   44) = (  -0.2000000  -1.0000000   0.0000000), wk =   0.0120000
        k(   45) = (   0.6000000  -0.2000000   1.0000000), wk =   0.0240000
        k(   46) = (   0.5000000  -0.1000000   0.9000000), wk =   0.0240000
        k(   47) = (  -0.4000000  -1.0000000   0.0000000), wk =   0.0120000

     Dense  grid:     9505 G-vectors     FFT dimensions: (  30,  30,  30)

     Estimated max dynamical RAM per process >      32.26 MB

     WARNING: libxc functional with ID  263 depends
      on external parameters: check the user_guide of
      QE if you need to modify them or to check their
      default values.
     Generating pointlists ...
     new r_m :   0.2917 (alat units)  2.4694 (a.u.) for type    1

     Initial potential from superposition of free atoms

     starting charge       2.9979, renormalised to       3.0000
     Starting wfcs are    9 randomized atomic wfcs

     total cpu time spent up to now is        5.0 secs

     Self-consistent Calculation

     iteration #  1     ecut=    60.00 Ry     beta= 0.01
     Davidson diagonalization with overlap
     c_bands:  4 eigenvalues not converged
     c_bands:  4 eigenvalues not converged
     c_bands:  4 eigenvalues not converged
     c_bands:  4 eigenvalues not converged
     c_bands:  4 eigenvalues not converged
     c_bands:  4 eigenvalues not converged
     c_bands:  4 eigenvalues not converged
     c_bands:  4 eigenvalues not converged
     c_bands:  4 eigenvalues not converged
     c_bands:  4 eigenvalues not converged
     c_bands:  4 eigenvalues not converged
     c_bands:  4 eigenvalues not converged
     c_bands:  4 eigenvalues not converged
     c_bands:  4 eigenvalues not converged
     c_bands:  4 eigenvalues not converged
     c_bands:  4 eigenvalues not converged
     c_bands:  4 eigenvalues not converged
     c_bands:  4 eigenvalues not converged
     c_bands:  4 eigenvalues not converged
     c_bands:  4 eigenvalues not converged
     c_bands:  4 eigenvalues not converged
     c_bands:  4 eigenvalues not converged
     c_bands:  4 eigenvalues not converged
     c_bands:  4 eigenvalues not converged
     c_bands:  4 eigenvalues not converged
     c_bands:  4 eigenvalues not converged
     c_bands:  4 eigenvalues not converged
     c_bands:  4 eigenvalues not converged
     c_bands:  4 eigenvalues not converged
     c_bands:  4 eigenvalues not converged
     c_bands:  4 eigenvalues not converged
     c_bands:  4 eigenvalues not converged
     c_bands:  4 eigenvalues not converged
     c_bands:  4 eigenvalues not converged
     c_bands:  4 eigenvalues not converged
     c_bands:  4 eigenvalues not converged
     c_bands:  4 eigenvalues not converged
     c_bands:  4 eigenvalues not converged
     c_bands:  4 eigenvalues not converged
     c_bands:  4 eigenvalues not converged
     c_bands:  3 eigenvalues not converged
     c_bands:  4 eigenvalues not converged
     c_bands:  4 eigenvalues not converged
     c_bands:  4 eigenvalues not converged
     c_bands:  4 eigenvalues not converged
     c_bands:  4 eigenvalues not converged
     c_bands:  4 eigenvalues not converged
     ethr =  1.00E-02,  avg # of iterations = 21.5

     negative rho (up,down):  0.000E+00 4.368E-05

     total cpu time spent up to now is       70.1 secs

     total energy              =    -393.79477603 Ry
     estimated scf accuracy    <   61311.67465526 Ry

     total magnetization       =    -3.00 Bohr mag/cell
     absolute magnetization    =     3.00 Bohr mag/cell

     iteration #  2     ecut=    60.00 Ry     beta= 0.01
     Davidson diagonalization with overlap
     ethr =  1.00E-02,  avg # of iterations =  3.7

     total cpu time spent up to now is       84.9 secs

     total energy              =      -3.91504436 Ry
     estimated scf accuracy    <      65.37729648 Ry

     total magnetization       =     1.21 Bohr mag/cell
     absolute magnetization    =     1.21 Bohr mag/cell

     iteration #  3     ecut=    60.00 Ry     beta= 0.01
     Davidson diagonalization with overlap
     ethr =  1.00E-02,  avg # of iterations =  1.0

     negative rho (up,down):  0.000E+00 2.517E-02

     total cpu time spent up to now is       92.6 secs

     total energy              =       2.42157092 Ry
     estimated scf accuracy    <      63.19338272 Ry

     total magnetization       =     1.15 Bohr mag/cell
     absolute magnetization    =     1.15 Bohr mag/cell

     iteration #  4     ecut=    60.00 Ry     beta= 0.01
     Davidson diagonalization with overlap
     ethr =  1.00E-02,  avg # of iterations =  3.9

     negative rho (up,down):  0.000E+00 1.447E-02

     total cpu time spent up to now is      104.8 secs

     total energy              =      -3.53680055 Ry
     estimated scf accuracy    <      86.76350557 Ry

     total magnetization       =     3.00 Bohr mag/cell
     absolute magnetization    =     3.00 Bohr mag/cell

     iteration #  5     ecut=    60.00 Ry     beta= 0.01
     Davidson diagonalization with overlap
     ethr =  1.00E-02,  avg # of iterations =  3.4

     total cpu time spent up to now is      115.8 secs

     total energy              =      -3.63169250 Ry
     estimated scf accuracy    <      82.89786416 Ry

     total magnetization       =     3.00 Bohr mag/cell
     absolute magnetization    =     3.00 Bohr mag/cell

     iteration #  6     ecut=    60.00 Ry     beta= 0.01
     Davidson diagonalization with overlap
     ethr =  1.00E-02,  avg # of iterations =  2.1

     total cpu time spent up to now is      125.7 secs

     total energy              =      -4.05030041 Ry
     estimated scf accuracy    <       1.05780834 Ry

     total magnetization       =     0.90 Bohr mag/cell
     absolute magnetization    =     0.90 Bohr mag/cell

     iteration #  7     ecut=    60.00 Ry     beta= 0.01
     Davidson diagonalization with overlap
     ethr =  1.00E-02,  avg # of iterations =  1.0

     total cpu time spent up to now is      133.5 secs

     total energy              =      -4.05488854 Ry
     estimated scf accuracy    <       1.72418742 Ry

     total magnetization       =     0.75 Bohr mag/cell
     absolute magnetization    =     0.75 Bohr mag/cell

     iteration #  8     ecut=    60.00 Ry     beta= 0.01
     Davidson diagonalization with overlap
     ethr =  1.00E-02,  avg # of iterations =  1.0

     total cpu time spent up to now is      141.0 secs

     total energy              =      -4.05637875 Ry
     estimated scf accuracy    <       1.41636991 Ry

     total magnetization       =     0.74 Bohr mag/cell
     absolute magnetization    =     0.74 Bohr mag/cell

     iteration #  9     ecut=    60.00 Ry     beta= 0.01
     Davidson diagonalization with overlap
     ethr =  1.00E-02,  avg # of iterations =  1.0

     total cpu time spent up to now is      148.9 secs

     total energy              =      -4.04827177 Ry
     estimated scf accuracy    <       1.57215804 Ry

     total magnetization       =     0.74 Bohr mag/cell
     absolute magnetization    =     0.74 Bohr mag/cell

     iteration # 10     ecut=    60.00 Ry     beta= 0.01
     Davidson diagonalization with overlap
     ethr =  1.00E-02,  avg # of iterations =  1.0

     total cpu time spent up to now is      155.8 secs

     total energy              =      -4.06233389 Ry
     estimated scf accuracy    <       0.94702436 Ry

     total magnetization       =     0.77 Bohr mag/cell
     absolute magnetization    =     0.77 Bohr mag/cell

     iteration # 11     ecut=    60.00 Ry     beta= 0.01
     Davidson diagonalization with overlap
     ethr =  1.00E-02,  avg # of iterations =  1.0

     total cpu time spent up to now is      162.7 secs

     total energy              =      -4.02035977 Ry
     estimated scf accuracy    <       0.70108916 Ry

     total magnetization       =     0.69 Bohr mag/cell
     absolute magnetization    =     0.69 Bohr mag/cell

     iteration # 12     ecut=    60.00 Ry     beta= 0.01
     Davidson diagonalization with overlap
     ethr =  1.00E-02,  avg # of iterations =  1.0

     total cpu time spent up to now is      170.4 secs

     total energy              =      -3.96794284 Ry
     estimated scf accuracy    <       0.98099861 Ry

     total magnetization       =     0.87 Bohr mag/cell
     absolute magnetization    =     0.87 Bohr mag/cell

     iteration # 13     ecut=    60.00 Ry     beta= 0.01
     Davidson diagonalization with overlap
     ethr =  1.00E-02,  avg # of iterations =  1.0

     total cpu time spent up to now is      177.4 secs

     total energy              =      -4.07330146 Ry
     estimated scf accuracy    <       0.76612434 Ry

     total magnetization       =     1.02 Bohr mag/cell
     absolute magnetization    =     1.02 Bohr mag/cell

     iteration # 14     ecut=    60.00 Ry     beta= 0.01
     Davidson diagonalization with overlap
     ethr =  1.00E-02,  avg # of iterations =  1.0

     total cpu time spent up to now is      183.7 secs

     total energy              =      -4.11739292 Ry
     estimated scf accuracy    <       0.53370296 Ry

     total magnetization       =     0.52 Bohr mag/cell
     absolute magnetization    =     0.52 Bohr mag/cell

     iteration # 15     ecut=    60.00 Ry     beta= 0.01
     Davidson diagonalization with overlap
     ethr =  1.00E-02,  avg # of iterations =  1.0

     total cpu time spent up to now is      189.7 secs

     total energy              =      -4.13642788 Ry
     estimated scf accuracy    <       0.12847481 Ry

     total magnetization       =     0.20 Bohr mag/cell
     absolute magnetization    =     0.20 Bohr mag/cell

     iteration # 16     ecut=    60.00 Ry     beta= 0.01
     Davidson diagonalization with overlap
     ethr =  4.28E-03,  avg # of iterations =  1.0

     total cpu time spent up to now is      195.7 secs

     total energy              =      -4.14117906 Ry
     estimated scf accuracy    <       0.04495558 Ry

     total magnetization       =     0.14 Bohr mag/cell
     absolute magnetization    =     0.15 Bohr mag/cell

     iteration # 17     ecut=    60.00 Ry     beta= 0.01
     Davidson diagonalization with overlap
     ethr =  1.50E-03,  avg # of iterations =  1.0

     total cpu time spent up to now is      201.5 secs

     total energy              =      -4.14432209 Ry
     estimated scf accuracy    <       0.04333820 Ry

     total magnetization       =     0.11 Bohr mag/cell
     absolute magnetization    =     0.14 Bohr mag/cell

     iteration # 18     ecut=    60.00 Ry     beta= 0.01
     Davidson diagonalization with overlap
     ethr =  1.44E-03,  avg # of iterations =  1.0

     total cpu time spent up to now is      207.5 secs

     total energy              =      -4.14645188 Ry
     estimated scf accuracy    <       0.03018869 Ry

     total magnetization       =     0.09 Bohr mag/cell
     absolute magnetization    =     0.13 Bohr mag/cell

     iteration # 19     ecut=    60.00 Ry     beta= 0.01
     Davidson diagonalization with overlap
     ethr =  1.01E-03,  avg # of iterations =  1.0

     total cpu time spent up to now is      213.4 secs

     total energy              =      -4.12974429 Ry
     estimated scf accuracy    <       0.00069576 Ry

     total magnetization       =     0.05 Bohr mag/cell
     absolute magnetization    =     0.12 Bohr mag/cell

     iteration # 20     ecut=    60.00 Ry     beta= 0.01
     Davidson diagonalization with overlap
     ethr =  2.32E-05,  avg # of iterations =  3.2

     total cpu time spent up to now is      222.6 secs

     total energy              =      -4.13094275 Ry
     estimated scf accuracy    <       0.00021244 Ry

     total magnetization       =     0.03 Bohr mag/cell
     absolute magnetization    =     0.10 Bohr mag/cell

     iteration # 21     ecut=    60.00 Ry     beta= 0.01
     Davidson diagonalization with overlap
     ethr =  7.08E-06,  avg # of iterations =  2.8

     total cpu time spent up to now is      231.7 secs

     total energy              =      -4.13184852 Ry
     estimated scf accuracy    <       0.00177230 Ry

     total magnetization       =     0.00 Bohr mag/cell
     absolute magnetization    =     0.09 Bohr mag/cell

     iteration # 22     ecut=    60.00 Ry     beta= 0.01
     Davidson diagonalization with overlap
     ethr =  7.08E-06,  avg # of iterations =  2.0

     total cpu time spent up to now is      238.7 secs

     total energy              =      -4.13253750 Ry
     estimated scf accuracy    <       0.00104527 Ry

     total magnetization       =     0.04 Bohr mag/cell
     absolute magnetization    =     0.08 Bohr mag/cell

     iteration # 23     ecut=    60.00 Ry     beta= 0.01
     Davidson diagonalization with overlap
     ethr =  7.08E-06,  avg # of iterations =  2.2

     total cpu time spent up to now is      246.4 secs

     total energy              =      -4.13230432 Ry
     estimated scf accuracy    <       0.00086733 Ry

     total magnetization       =     0.03 Bohr mag/cell
     absolute magnetization    =     0.07 Bohr mag/cell

     iteration # 24     ecut=    60.00 Ry     beta= 0.01
     Davidson diagonalization with overlap
     ethr =  7.08E-06,  avg # of iterations =  1.6

     total cpu time spent up to now is      254.0 secs

     total energy              =      -4.13260361 Ry
     estimated scf accuracy    <       0.00024940 Ry

     total magnetization       =     0.02 Bohr mag/cell
     absolute magnetization    =     0.08 Bohr mag/cell

     iteration # 25     ecut=    60.00 Ry     beta= 0.01
     Davidson diagonalization with overlap
     ethr =  7.08E-06,  avg # of iterations =  2.0

     total cpu time spent up to now is      260.5 secs

     total energy              =      -4.13259010 Ry
     estimated scf accuracy    <       0.00041658 Ry

     total magnetization       =     0.02 Bohr mag/cell
     absolute magnetization    =     0.07 Bohr mag/cell

     iteration # 26     ecut=    60.00 Ry     beta= 0.01
     Davidson diagonalization with overlap
     ethr =  7.08E-06,  avg # of iterations =  1.4

     total cpu time spent up to now is      266.2 secs

     total energy              =      -4.13284365 Ry
     estimated scf accuracy    <       0.00014426 Ry

     total magnetization       =     0.01 Bohr mag/cell
     absolute magnetization    =     0.07 Bohr mag/cell

     iteration # 27     ecut=    60.00 Ry     beta= 0.01
     Davidson diagonalization with overlap
     ethr =  4.81E-06,  avg # of iterations =  1.5

     total cpu time spent up to now is      273.2 secs

     total energy              =      -4.13286804 Ry
     estimated scf accuracy    <       0.00013721 Ry

     total magnetization       =     0.01 Bohr mag/cell
     absolute magnetization    =     0.06 Bohr mag/cell

     iteration # 28     ecut=    60.00 Ry     beta= 0.01
     Davidson diagonalization with overlap
     ethr =  4.57E-06,  avg # of iterations =  1.7

     total cpu time spent up to now is      280.2 secs

     total energy              =      -4.13265404 Ry
     estimated scf accuracy    <       0.00028393 Ry

     total magnetization       =     0.02 Bohr mag/cell
     absolute magnetization    =     0.07 Bohr mag/cell

     iteration # 29     ecut=    60.00 Ry     beta= 0.01
     Davidson diagonalization with overlap
     ethr =  4.57E-06,  avg # of iterations =  2.7

     total cpu time spent up to now is      288.2 secs

     total energy              =      -4.13265175 Ry
     estimated scf accuracy    <       0.00000994 Ry

     total magnetization       =     0.01 Bohr mag/cell
     absolute magnetization    =     0.05 Bohr mag/cell

     iteration # 30     ecut=    60.00 Ry     beta= 0.01
     Davidson diagonalization with overlap
     ethr =  3.31E-07,  avg # of iterations =  2.8

     total cpu time spent up to now is      296.2 secs

     total energy              =      -4.13319072 Ry
     estimated scf accuracy    <       0.00001475 Ry

     total magnetization       =     0.01 Bohr mag/cell
     absolute magnetization    =     0.06 Bohr mag/cell

     iteration # 31     ecut=    60.00 Ry     beta= 0.01
     Davidson diagonalization with overlap
     ethr =  3.31E-07,  avg # of iterations =  2.8

     total cpu time spent up to now is      303.4 secs

     total energy              =      -4.13376322 Ry
     estimated scf accuracy    <       0.00000855 Ry

     total magnetization       =     0.00 Bohr mag/cell
     absolute magnetization    =     0.04 Bohr mag/cell

     iteration # 32     ecut=    60.00 Ry     beta= 0.01
     Davidson diagonalization with overlap
     ethr =  2.85E-07,  avg # of iterations =  2.4

     total cpu time spent up to now is      310.1 secs

     total energy              =      -4.13442063 Ry
     estimated scf accuracy    <       0.00001722 Ry

     total magnetization       =     0.00 Bohr mag/cell
     absolute magnetization    =     0.04 Bohr mag/cell

     iteration # 33     ecut=    60.00 Ry     beta= 0.01
     Davidson diagonalization with overlap
     ethr =  2.85E-07,  avg # of iterations =  3.1

     total cpu time spent up to now is      318.8 secs

     total energy              =      -4.13468729 Ry
     estimated scf accuracy    <       0.00000713 Ry

     total magnetization       =     0.00 Bohr mag/cell
     absolute magnetization    =     0.03 Bohr mag/cell

     iteration # 34     ecut=    60.00 Ry     beta= 0.01
     Davidson diagonalization with overlap
     ethr =  2.38E-07,  avg # of iterations =  2.2

     total cpu time spent up to now is      326.3 secs

     total energy              =      -4.13475416 Ry
     estimated scf accuracy    <       0.00000210 Ry

     total magnetization       =     0.00 Bohr mag/cell
     absolute magnetization    =     0.03 Bohr mag/cell

     iteration # 35     ecut=    60.00 Ry     beta= 0.01
     Davidson diagonalization with overlap
     ethr =  6.99E-08,  avg # of iterations =  2.0

     total cpu time spent up to now is      332.0 secs

     total energy              =      -4.13472381 Ry
     estimated scf accuracy    <       0.00000658 Ry

     total magnetization       =     0.00 Bohr mag/cell
     absolute magnetization    =     0.03 Bohr mag/cell

     iteration # 36     ecut=    60.00 Ry     beta= 0.01
     Davidson diagonalization with overlap
     ethr =  6.99E-08,  avg # of iterations =  2.1

     total cpu time spent up to now is      338.1 secs

     total energy              =      -4.13471506 Ry
     estimated scf accuracy    <       0.00000133 Ry

     total magnetization       =     0.00 Bohr mag/cell
     absolute magnetization    =     0.03 Bohr mag/cell

     iteration # 37     ecut=    60.00 Ry     beta= 0.01
     Davidson diagonalization with overlap
     ethr =  4.44E-08,  avg # of iterations =  2.5

     total cpu time spent up to now is      345.1 secs

     total energy              =      -4.13478508 Ry
     estimated scf accuracy    <       0.00001125 Ry

     total magnetization       =     0.00 Bohr mag/cell
     absolute magnetization    =     0.03 Bohr mag/cell

     iteration # 38     ecut=    60.00 Ry     beta= 0.01
     Davidson diagonalization with overlap
     ethr =  4.44E-08,  avg # of iterations =  2.2

     total cpu time spent up to now is      351.9 secs

     total energy              =      -4.13475502 Ry
     estimated scf accuracy    <       0.00002457 Ry

     total magnetization       =     0.00 Bohr mag/cell
     absolute magnetization    =     0.03 Bohr mag/cell

     iteration # 39     ecut=    60.00 Ry     beta= 0.01
     Davidson diagonalization with overlap
     ethr =  4.44E-08,  avg # of iterations =  2.2

     total cpu time spent up to now is      358.7 secs

     total energy              =      -4.13468915 Ry
     estimated scf accuracy    <       0.00003865 Ry

     total magnetization       =     0.00 Bohr mag/cell
     absolute magnetization    =     0.03 Bohr mag/cell

     iteration # 40     ecut=    60.00 Ry     beta= 0.01
     Davidson diagonalization with overlap
     ethr =  4.44E-08,  avg # of iterations =  2.6

     total cpu time spent up to now is      366.9 secs

     total energy              =      -4.13470632 Ry
     estimated scf accuracy    <       0.00007771 Ry

     total magnetization       =     0.00 Bohr mag/cell
     absolute magnetization    =     0.03 Bohr mag/cell

     iteration # 41     ecut=    60.00 Ry     beta= 0.01
     Davidson diagonalization with overlap
     ethr =  4.44E-08,  avg # of iterations =  3.0

     total cpu time spent up to now is      376.1 secs

     total energy              =      -4.13469431 Ry
     estimated scf accuracy    <       0.00000836 Ry

     total magnetization       =     0.00 Bohr mag/cell
     absolute magnetization    =     0.03 Bohr mag/cell

     iteration # 42     ecut=    60.00 Ry     beta= 0.01
     Davidson diagonalization with overlap
     ethr =  4.44E-08,  avg # of iterations =  2.3

     total cpu time spent up to now is      382.5 secs

     total energy              =      -4.13480342 Ry
     estimated scf accuracy    <       0.00000818 Ry

     total magnetization       =     0.00 Bohr mag/cell
     absolute magnetization    =     0.03 Bohr mag/cell

     iteration # 43     ecut=    60.00 Ry     beta= 0.01
     Davidson diagonalization with overlap
     ethr =  4.44E-08,  avg # of iterations =  2.6

     total cpu time spent up to now is      389.7 secs

     total energy              =      -4.13450650 Ry
     estimated scf accuracy    <       0.00002179 Ry

     total magnetization       =     0.00 Bohr mag/cell
     absolute magnetization    =     0.02 Bohr mag/cell

     iteration # 44     ecut=    60.00 Ry     beta= 0.01
     Davidson diagonalization with overlap
     ethr =  4.44E-08,  avg # of iterations =  3.2

     total cpu time spent up to now is      397.6 secs

     total energy              =      -4.13457358 Ry
     estimated scf accuracy    <       0.00000539 Ry

     total magnetization       =     0.00 Bohr mag/cell
     absolute magnetization    =     0.02 Bohr mag/cell

     iteration # 45     ecut=    60.00 Ry     beta= 0.01
     Davidson diagonalization with overlap
     ethr =  4.44E-08,  avg # of iterations =  2.4

     total cpu time spent up to now is      404.4 secs

     total energy              =      -4.13458617 Ry
     estimated scf accuracy    <       0.00000501 Ry

     total magnetization       =     0.00 Bohr mag/cell
     absolute magnetization    =     0.02 Bohr mag/cell

     iteration # 46     ecut=    60.00 Ry     beta= 0.01
     Davidson diagonalization with overlap
     ethr =  4.44E-08,  avg # of iterations =  2.0
 
     Magnetic moment per site  (integrated on atomic sphere of radius R)
     atom   1 (R=0.292)  charge=  1.8689  magn=  0.0087

     total cpu time spent up to now is      409.7 secs

     End of self-consistent calculation

 ------ SPIN UP ------------


          k = 0.0000 0.0000 0.0000 (  1243 PWs)   bands (ev):

    -4.5086  15.8397  15.8397  15.8397  16.7878  16.7878

          k =-0.1000 0.1000-0.1000 (  1209 PWs)   bands (ev):

    -4.2766  13.0997  15.0906  15.0906  17.4530  17.8146

          k =-0.2000 0.2000-0.2000 (  1209 PWs)   bands (ev):

    -3.5824   9.6887  14.3598  14.3598  17.2796  18.4180

          k =-0.3000 0.3000-0.3000 (  1188 PWs)   bands (ev):

    -2.4324   6.5054  13.9702  13.9702  17.1214  17.2305

          k =-0.4000 0.4000-0.4000 (  1185 PWs)   bands (ev):

    -0.8391   3.6714  13.8852  13.8852  16.1647  16.1647

          k = 0.5000-0.5000 0.5000 (  1194 PWs)   bands (ev):

     0.9658   1.4503  13.9217  13.9217  15.7332  15.7332

          k = 0.0000 0.2000 0.0000 (  1211 PWs)   bands (ev):

    -4.1993  13.9009  13.9009  15.0923  15.2616  19.1173

          k =-0.1000 0.3000-0.1000 (  1196 PWs)   bands (ev):

    -3.6593  10.9707  13.0372  14.3471  15.9588  17.6961

          k =-0.2000 0.4000-0.2000 (  1198 PWs)   bands (ev):

    -2.6614   7.7165  12.5598  13.6644  15.2240  18.4858

          k =-0.3000 0.5000-0.3000 (  1191 PWs)   bands (ev):

    -1.2153   4.7666  12.4763  12.8774  14.5896  18.2130

          k = 0.6000-0.4000 0.6000 (  1193 PWs)   bands (ev):

     0.6459   2.2147  12.0451  12.7783  14.7595  17.2761

          k = 0.5000-0.3000 0.5000 (  1187 PWs)   bands (ev):

    -0.0134   3.0124  11.4840  13.4347  15.4746  16.7656

          k = 0.4000-0.2000 0.4000 (  1190 PWs)   bands (ev):

    -1.7462   5.7096  11.2984  14.3525  16.6230  16.7762

          k = 0.3000-0.1000 0.3000 (  1196 PWs)   bands (ev):

    -3.0445   8.7717  11.5155  15.3098  17.4065  18.0911

          k = 0.2000 0.0000 0.2000 (  1205 PWs)   bands (ev):

    -3.8905  11.9789  12.2484  15.9490  17.3768  18.0146

          k = 0.0000 0.4000 0.0000 (  1191 PWs)   bands (ev):

    -3.2744  12.0392  12.0392  13.2593  13.3033  15.3464

          k =-0.1000 0.5000-0.1000 (  1196 PWs)   bands (ev):

    -2.4312   9.2969  11.4308  11.9325  13.3764  15.4505

          k =-0.2000 0.6000-0.2000 (  1189 PWs)   bands (ev):

    -1.1373   6.2788  10.5069  11.2240  13.1256  17.6799

          k = 0.7000-0.3000 0.7000 (  1190 PWs)   bands (ev):

     0.5899   3.5980   9.3552  11.4197  13.3180  20.0221

          k = 0.6000-0.2000 0.6000 (  1176 PWs)   bands (ev):

     1.2471   2.8029   8.5908  12.0114  13.9606  19.1254

          k = 0.5000-0.1000 0.5000 (  1185 PWs)   bands (ev):

    -0.6091   5.3378   8.2483  12.9797  15.0279  18.8345

          k = 0.4000 0.0000 0.4000 (  1199 PWs)   bands (ev):

    -2.0501   8.0520   8.5382  14.2547  16.4727  18.8844

          k = 0.0000 0.6000 0.0000 (  1198 PWs)   bands (ev):

    -1.7439   9.9165  10.6878  10.6878  11.8290  13.2575

          k =-0.1000 0.7000-0.1000 (  1203 PWs)   bands (ev):

    -0.6057   8.0027   8.4056  10.3475  12.0719  14.3226

          k = 0.8000-0.2000 0.8000 (  1195 PWs)   bands (ev):

     0.9708   5.3927   6.9114  10.4132  12.2111  16.9585

          k = 0.7000-0.1000 0.7000 (  1180 PWs)   bands (ev):

     2.7790   3.1865   5.9711  10.8832  12.7369  19.9226

          k = 0.6000-0.0000 0.6000 (  1185 PWs)   bands (ev):

     0.9667   5.1824   5.6906  11.7490  13.6856  21.1741

          k = 0.0000 0.8000 0.0000 (  1190 PWs)   bands (ev):

     0.3748   6.2900   9.8721   9.8721  10.9317  12.3340

          k = 0.9000-0.1000 0.9000 (  1192 PWs)   bands (ev):

     1.7913   4.7688   7.6296   9.8035  11.4704  13.7696

          k = 0.8000 0.0000 0.8000 (  1182 PWs)   bands (ev):

     3.4508   3.8195   5.1886  10.1419  11.9138  16.7070

          k = 0.0000-1.0000 0.0000 (  1162 PWs)   bands (ev):

     2.8727   3.2662   9.5996   9.5996  10.6312  12.0378

          k =-0.2000 0.4000 0.0000 (  1194 PWs)   bands (ev):

    -2.9675  10.0308  10.4101  14.0947  15.8382  16.6580

          k =-0.3000 0.5000-0.1000 (  1193 PWs)   bands (ev):

    -1.8214   7.0647   9.8892  12.6435  15.7898  17.9823

          k = 0.6000-0.4000 0.8000 (  1186 PWs)   bands (ev):

    -0.2334   4.2543   9.9315  11.4066  15.7774  17.3509

          k = 0.5000-0.3000 0.7000 (  1188 PWs)   bands (ev):

     1.5741   2.0347  10.2030  10.7294  15.9337  16.8153

          k =-0.2000 0.6000 0.0000 (  1194 PWs)   bands (ev):

    -1.4401   8.6140   8.9862  10.3686  14.4516  15.2021

          k = 0.7000-0.3000 0.9000 (  1190 PWs)   bands (ev):

    -0.0041   5.9070   8.5619   9.0800  14.7147  17.3625

          k = 0.6000-0.2000 0.8000 (  1186 PWs)   bands (ev):

     1.8461   3.3865   7.7243   9.1960  15.0677  18.9777

          k = 0.5000-0.1000 0.7000 (  1184 PWs)   bands (ev):

     1.1885   4.1754   7.1064   9.9479  15.7932  18.5394

          k = 0.4000 0.0000 0.6000 (  1189 PWs)   bands (ev):

    -0.5325   6.6203   7.1211  11.1217  16.7879  18.0654

          k = 0.8000-0.2000 1.0000 (  1195 PWs)   bands (ev):

     0.6737   6.5490   7.7586   8.2939  13.6018  14.4004

          k = 0.7000-0.1000 0.9000 (  1187 PWs)   bands (ev):

     2.3783   5.1419   5.5663   8.2641  14.1671  16.8982

          k = 0.6000 0.0000 0.8000 (  1181 PWs)   bands (ev):

     3.0193   4.3172   4.8290   8.8908  14.8087  19.8703

          k =-0.2000-1.0000 0.0000 (  1182 PWs)   bands (ev):

     3.1618   3.5587   7.4728   7.9806  13.3167  14.1322

          k = 0.6000-0.2000 1.0000 (  1197 PWs)   bands (ev):

     1.5653   5.7579   6.2047   7.5607  17.2538  17.4081

          k = 0.5000-0.1000 0.9000 (  1190 PWs)   bands (ev):

     3.3756   3.7546   6.3004   6.8246  17.4642  18.3869

          k =-0.4000-1.0000 0.0000 (  1188 PWs)   bands (ev):

     4.0286   4.3833   5.4700   6.1024  16.9789  17.3416

 ------ SPIN DOWN ----------


          k = 0.0000 0.0000 0.0000 (  1243 PWs)   bands (ev):

    -4.5247  16.1826  16.1826  16.4325  16.4325  16.4325

          k =-0.1000 0.1000-0.1000 (  1209 PWs)   bands (ev):

    -4.2918  13.1224  15.1734  15.1734  17.5646  17.7122

          k =-0.2000 0.2000-0.2000 (  1209 PWs)   bands (ev):

    -3.5950   9.7002  14.4164  14.4165  17.4513  18.3393

          k =-0.3000 0.3000-0.3000 (  1188 PWs)   bands (ev):

    -2.4407   6.5123  14.0273  14.0273  17.1859  17.1859

          k =-0.4000 0.4000-0.4000 (  1185 PWs)   bands (ev):

    -0.8407   3.6718  13.9545  13.9545  16.1199  16.1199

          k = 0.5000-0.5000 0.5000 (  1194 PWs)   bands (ev):

     1.0066   1.4084  14.0033  14.0033  15.6792  15.6792

          k = 0.0000 0.2000 0.0000 (  1211 PWs)   bands (ev):

    -4.2142  13.9380  13.9380  15.0516  15.4102  19.0689

          k =-0.1000 0.3000-0.1000 (  1196 PWs)   bands (ev):

    -3.6722  10.9810  13.0651  14.4454  15.9648  17.7738

          k =-0.2000 0.4000-0.2000 (  1198 PWs)   bands (ev):

    -2.6705   7.7240  12.5871  13.7765  15.1889  18.7331

          k =-0.3000 0.5000-0.3000 (  1191 PWs)   bands (ev):

    -1.2189   4.7696  12.5070  12.9640  14.5865  18.2038

          k = 0.6000-0.4000 0.6000 (  1193 PWs)   bands (ev):

     0.6557   2.2046  12.1052  12.8156  14.7840  17.2680

          k = 0.5000-0.3000 0.5000 (  1187 PWs)   bands (ev):

    -0.0108   3.0092  11.5325  13.4845  15.5082  16.7465

          k = 0.4000-0.2000 0.4000 (  1190 PWs)   bands (ev):

    -1.7520   5.7136  11.3417  14.4296  16.6556  16.7230

          k = 0.3000-0.1000 0.3000 (  1196 PWs)   bands (ev):

    -3.0551   8.7766  11.5589  15.4440  17.2510  18.1147

          k = 0.2000 0.0000 0.2000 (  1205 PWs)   bands (ev):

    -3.9043  11.9364  12.3427  16.2309  17.0314  18.2434

          k = 0.0000 0.4000 0.0000 (  1191 PWs)   bands (ev):

    -3.2859  12.0592  12.0592  13.1452  13.4801  15.4482

          k =-0.1000 0.5000-0.1000 (  1196 PWs)   bands (ev):

    -2.4397   9.3029  11.4492  12.0219  13.3352  15.5887

          k =-0.2000 0.6000-0.2000 (  1189 PWs)   bands (ev):

    -1.1413   6.2838  10.5644  11.2437  13.1562  17.7924

          k = 0.7000-0.3000 0.7000 (  1190 PWs)   bands (ev):

     0.5934   3.5966   9.4017  11.4424  13.3684  19.8320

          k = 0.6000-0.2000 0.6000 (  1176 PWs)   bands (ev):

     1.2584   2.7924   8.6336  12.0390  14.0175  19.1421

          k = 0.5000-0.1000 0.5000 (  1185 PWs)   bands (ev):

    -0.6107   5.3326   8.2955  13.0162  15.0850  18.8502

          k = 0.4000 0.0000 0.4000 (  1199 PWs)   bands (ev):

    -2.0571   7.9831   8.6525  14.3146  16.5225  18.8132

          k = 0.0000 0.6000 0.0000 (  1198 PWs)   bands (ev):

    -1.7502   9.9912  10.7033  10.7033  11.6820  13.5024

          k =-0.1000 0.7000-0.1000 (  1203 PWs)   bands (ev):

    -0.6087   8.0588   8.3952  10.3628  12.0704  14.4654

          k = 0.8000-0.2000 0.8000 (  1195 PWs)   bands (ev):

     0.9716   5.4013   6.9439  10.4301  12.2594  17.0539

          k = 0.7000-0.1000 0.7000 (  1180 PWs)   bands (ev):

     2.8227   3.1418   6.0132  10.9032  12.7967  20.0035

          k = 0.6000-0.0000 0.6000 (  1185 PWs)   bands (ev):

     0.9713   5.0963   5.8124  11.7743  13.7478  21.4274

          k = 0.0000 0.8000 0.0000 (  1190 PWs)   bands (ev):

     0.3728   6.3371   9.8860   9.8860  10.7863  12.6033

          k = 0.9000-0.1000 0.9000 (  1192 PWs)   bands (ev):

     1.7854   4.8192   7.6189   9.8178  11.4754  13.9134

          k = 0.8000 0.0000 0.8000 (  1182 PWs)   bands (ev):

     3.3539   3.9723   5.1716  10.1581  11.9649  16.7996

          k = 0.0000-1.0000 0.0000 (  1162 PWs)   bands (ev):

     2.7721   3.4078   9.6131   9.6131  10.4857  12.3113

          k =-0.2000 0.4000 0.0000 (  1194 PWs)   bands (ev):

    -2.9779   9.9765  10.5097  14.1879  15.7405  16.8359

          k =-0.3000 0.5000-0.1000 (  1193 PWs)   bands (ev):

    -1.8276   7.0650   9.9351  12.6911  15.8108  18.0775

          k = 0.6000-0.4000 0.8000 (  1186 PWs)   bands (ev):

    -0.2334   4.2542   9.9794  11.4387  15.8266  17.3826

          k = 0.5000-0.3000 0.7000 (  1188 PWs)   bands (ev):

     1.6166   1.9933  10.2734  10.7362  15.9975  16.8366

          k =-0.2000 0.6000 0.0000 (  1194 PWs)   bands (ev):

    -1.4453   8.5532   9.0988  10.3961  14.3799  15.4034

          k = 0.7000-0.3000 0.9000 (  1190 PWs)   bands (ev):

    -0.0047   5.9061   8.6321   9.0838  14.7464  17.4666

          k = 0.6000-0.2000 0.8000 (  1186 PWs)   bands (ev):

     1.8563   3.3789   7.7704   9.2196  15.1192  19.0298

          k = 0.5000-0.1000 0.7000 (  1184 PWs)   bands (ev):

     1.1942   4.1655   7.1540   9.9776  15.8536  18.5725

          k = 0.4000 0.0000 0.6000 (  1189 PWs)   bands (ev):

    -0.5342   6.5434   7.2411  11.1565  16.8721  18.0016

          k = 0.8000-0.2000 1.0000 (  1195 PWs)   bands (ev):

     0.6729   6.6061   7.6939   8.3669  13.5364  14.6003

          k = 0.7000-0.1000 0.9000 (  1187 PWs)   bands (ev):

     2.3763   5.1963   5.5504   8.2957  14.1996  16.9974

          k = 0.6000 0.0000 0.8000 (  1181 PWs)   bands (ev):

     3.0385   4.2259   4.9424   8.9197  14.8606  19.9460

          k =-0.2000-1.0000 0.0000 (  1182 PWs)   bands (ev):

     3.0631   3.7029   7.4068   8.0635  13.2526  14.3316

          k = 0.6000-0.2000 1.0000 (  1197 PWs)   bands (ev):

     1.5689   5.6763   6.3362   7.5785  17.2089  17.5713

          k = 0.5000-0.1000 0.9000 (  1190 PWs)   bands (ev):

     3.4184   3.7065   6.3714   6.8297  17.5479  18.3934

          k =-0.4000-1.0000 0.0000 (  1188 PWs)   bands (ev):

     3.9355   4.5475   5.3868   6.1841  16.9373  17.5114

     the Fermi energy is     5.0432 ev

!    total energy              =      -4.13467978 Ry
     estimated scf accuracy    <       0.00000053 Ry
     smearing contrib. (-TS)   =      -0.03264537 Ry
     internal energy E=F+TS    =      -4.10203442 Ry

     The total energy is F=E-TS. E is the sum of the following terms:
     one-electron contribution =       2.21817066 Ry
     hartree contribution      =       0.01035086 Ry
     xc contribution           =      -1.45648435 Ry
     ewald contribution        =      -4.87407159 Ry

     total magnetization       =     0.00 Bohr mag/cell
     absolute magnetization    =     0.02 Bohr mag/cell

     convergence has been achieved in  46 iterations
     Writing meta-gga kinetic term

     Writing all to output data dir ./input_pw/Al/10/pwscf.save/
     Writing meta-gga kinetic term
 
     init_run     :      2.34s CPU      4.88s WALL (       1 calls)
     electrons    :    251.16s CPU    404.73s WALL (       1 calls)

     Called by init_run:
     wfcinit      :      2.22s CPU      4.61s WALL (       1 calls)
     potinit      :      0.04s CPU      0.08s WALL (       1 calls)
     hinit0       :      0.07s CPU      0.16s WALL (       1 calls)

     Called by electrons:
     c_bands      :    211.74s CPU    344.48s WALL (      46 calls)
     sum_band     :     37.07s CPU     56.78s WALL (      46 calls)
     v_of_rho     :      1.59s CPU      2.44s WALL (      47 calls)
     mix_rho      :      0.74s CPU      1.05s WALL (      46 calls)

     Called by c_bands:
     init_us_2    :      1.13s CPU      1.79s WALL (    8742 calls)
     init_us_2:cp :      1.11s CPU      1.74s WALL (    8742 calls)
     cegterg      :    210.58s CPU    342.35s WALL (    4371 calls)

     Called by *egterg:
     cdiaghg      :      1.03s CPU      1.77s WALL (   14864 calls)
     h_psi        :    208.28s CPU    339.43s WALL (   15005 calls)
     g_psi        :      0.19s CPU      0.36s WALL (   10540 calls)

     Called by h_psi:
     h_psi:calbec :      0.48s CPU      0.78s WALL (   15005 calls)
     vloc_psi     :     51.32s CPU     85.12s WALL (   15005 calls)
     add_vuspsi   :      0.48s CPU      0.78s WALL (   15005 calls)
     h_psi_meta   :    155.71s CPU    252.22s WALL (   15005 calls)

     General routines
     calbec       :      0.43s CPU      0.68s WALL (   15005 calls)
     fft          :      0.32s CPU      0.50s WALL (    1074 calls)
     ffts         :      0.22s CPU      0.34s WALL (     741 calls)
     fftw         :    219.35s CPU    354.19s WALL (  738216 calls)
     interpolate  :      0.00s CPU      0.00s WALL (      94 calls)
 
     Parallel routines
 
     PWSCF        :   4m13.55s CPU   6m49.72s WALL

 
   This run was terminated on:   9:55:50   4Apr2023            

=------------------------------------------------------------------------------=
   JOB DONE.
=------------------------------------------------------------------------------=
