
     Program PWSCF v.7.0 starts on  4Apr2023 at  8:56:51 

     This program is part of the open-source Quantum ESPRESSO suite
     for quantum simulation of materials; please cite
         "P. Giannozzi et al., J. Phys.:Condens. Matter 21 395502 (2009);
         "P. Giannozzi et al., J. Phys.:Condens. Matter 29 465901 (2017);
         "P. Giannozzi et al., J. Chem. Phys. 152 154105 (2020);
          URL http://www.quantum-espresso.org", 
     in publications or presentations arising from this work. More details at
     http://www.quantum-espresso.org/quote

     Parallel version (MPI), running on     1 processors

     MPI processes distributed on     1 nodes
     19678 MiB available memory on the printing compute node when the environment starts
 
     Waiting for input...
     Reading input from standard input
Warning: card &CELL ignored
Warning: card / ignored

     Current dimensions of program PWSCF are:
     Max number of different atomic species (ntypx) = 10
     Max number of k-points (npk) =  40000
     Max angular momentum in pseudopotentials (lmaxx) =  4
     file Al.SCAN.UPF2: wavefunction(s)  0D renormalized

     WARNING: the MGGA functional with ID    5 has been 
     read together with other dft terms, but it should 
     stand alone in order to work properly. The other 
     terms will be ignored.

     Subspace diagonalization in iterative solution of the eigenvalue problem:
     a serial algorithm will be used

 
     G-vector sticks info
     --------------------
     sticks:   dense  smooth     PW     G-vecs:    dense   smooth      PW
     Sum         769     769    241                14211    14211    2421
 
     Using Slab Decomposition
 


     bravais-lattice index     =            2
     lattice parameter (alat)  =       9.6754  a.u.
     unit-cell volume          =     226.4365 (a.u.)^3
     number of atoms/cell      =            1
     number of atomic types    =            1
     number of electrons       =         3.00
     number of Kohn-Sham states=            6
     kinetic-energy cutoff     =      60.0000  Ry
     charge density cutoff     =     240.0000  Ry
     scf convergence threshold =      1.0E-06
     mixing beta               =       0.0100
     number of iterations used =            8  local-TF  mixing
     Exchange-correlation= SLA  PW   SCAN SCAN
                           (   0   0   0   0   0 263 267)

     celldm(1)=   9.675398  celldm(2)=   0.000000  celldm(3)=   0.000000
     celldm(4)=   0.000000  celldm(5)=   0.000000  celldm(6)=   0.000000

     crystal axes: (cart. coord. in units of alat)
               a(1) = (  -0.500000   0.000000   0.500000 )  
               a(2) = (   0.000000   0.500000   0.500000 )  
               a(3) = (  -0.500000   0.500000   0.000000 )  

     reciprocal axes: (cart. coord. in units 2 pi/alat)
               b(1) = ( -1.000000 -1.000000  1.000000 )  
               b(2) = (  1.000000  1.000000  1.000000 )  
               b(3) = ( -1.000000  1.000000 -1.000000 )  


     PseudoPot. # 1 for Al read from file:
     ~/Documents/TA/PWDFT.jl/pseudopotentials/scan_upf/Al.SCAN.UPF2
     MD5 check sum: Not computed, couldn't open file
     Pseudo is Norm-conserving, Zval =  3.0
     Generated by new atomic code, or converted to UPF format
     Using radial grid of 1467 points,  2 beta functions with: 
                l(1) =   0
                l(2) =   1

     atomic species   valence    mass     pseudopotential
        Al             3.00    26.98154     Al( 1.00)

     48 Sym. Ops., with inversion, found



   Cartesian axes

     site n.     atom                  positions (alat units)
         1           Al  tau(   1) = (   0.0000000   0.0000000   0.0000000  )

     number of k points=    47  Gaussian smearing, width (Ry)=  0.1000
                       cart. coord. in units 2pi/alat
        k(    1) = (   0.0000000   0.0000000   0.0000000), wk =   0.0020000
        k(    2) = (  -0.1000000   0.1000000  -0.1000000), wk =   0.0160000
        k(    3) = (  -0.2000000   0.2000000  -0.2000000), wk =   0.0160000
        k(    4) = (  -0.3000000   0.3000000  -0.3000000), wk =   0.0160000
        k(    5) = (  -0.4000000   0.4000000  -0.4000000), wk =   0.0160000
        k(    6) = (   0.5000000  -0.5000000   0.5000000), wk =   0.0080000
        k(    7) = (   0.0000000   0.2000000   0.0000000), wk =   0.0120000
        k(    8) = (  -0.1000000   0.3000000  -0.1000000), wk =   0.0480000
        k(    9) = (  -0.2000000   0.4000000  -0.2000000), wk =   0.0480000
        k(   10) = (  -0.3000000   0.5000000  -0.3000000), wk =   0.0480000
        k(   11) = (   0.6000000  -0.4000000   0.6000000), wk =   0.0480000
        k(   12) = (   0.5000000  -0.3000000   0.5000000), wk =   0.0480000
        k(   13) = (   0.4000000  -0.2000000   0.4000000), wk =   0.0480000
        k(   14) = (   0.3000000  -0.1000000   0.3000000), wk =   0.0480000
        k(   15) = (   0.2000000   0.0000000   0.2000000), wk =   0.0240000
        k(   16) = (   0.0000000   0.4000000   0.0000000), wk =   0.0120000
        k(   17) = (  -0.1000000   0.5000000  -0.1000000), wk =   0.0480000
        k(   18) = (  -0.2000000   0.6000000  -0.2000000), wk =   0.0480000
        k(   19) = (   0.7000000  -0.3000000   0.7000000), wk =   0.0480000
        k(   20) = (   0.6000000  -0.2000000   0.6000000), wk =   0.0480000
        k(   21) = (   0.5000000  -0.1000000   0.5000000), wk =   0.0480000
        k(   22) = (   0.4000000   0.0000000   0.4000000), wk =   0.0240000
        k(   23) = (   0.0000000   0.6000000   0.0000000), wk =   0.0120000
        k(   24) = (  -0.1000000   0.7000000  -0.1000000), wk =   0.0480000
        k(   25) = (   0.8000000  -0.2000000   0.8000000), wk =   0.0480000
        k(   26) = (   0.7000000  -0.1000000   0.7000000), wk =   0.0480000
        k(   27) = (   0.6000000  -0.0000000   0.6000000), wk =   0.0240000
        k(   28) = (   0.0000000   0.8000000   0.0000000), wk =   0.0120000
        k(   29) = (   0.9000000  -0.1000000   0.9000000), wk =   0.0480000
        k(   30) = (   0.8000000   0.0000000   0.8000000), wk =   0.0240000
        k(   31) = (   0.0000000  -1.0000000   0.0000000), wk =   0.0060000
        k(   32) = (  -0.2000000   0.4000000   0.0000000), wk =   0.0480000
        k(   33) = (  -0.3000000   0.5000000  -0.1000000), wk =   0.0960000
        k(   34) = (   0.6000000  -0.4000000   0.8000000), wk =   0.0960000
        k(   35) = (   0.5000000  -0.3000000   0.7000000), wk =   0.0480000
        k(   36) = (  -0.2000000   0.6000000   0.0000000), wk =   0.0480000
        k(   37) = (   0.7000000  -0.3000000   0.9000000), wk =   0.0960000
        k(   38) = (   0.6000000  -0.2000000   0.8000000), wk =   0.0960000
        k(   39) = (   0.5000000  -0.1000000   0.7000000), wk =   0.0960000
        k(   40) = (   0.4000000   0.0000000   0.6000000), wk =   0.0480000
        k(   41) = (   0.8000000  -0.2000000   1.0000000), wk =   0.0480000
        k(   42) = (   0.7000000  -0.1000000   0.9000000), wk =   0.0960000
        k(   43) = (   0.6000000   0.0000000   0.8000000), wk =   0.0480000
        k(   44) = (  -0.2000000  -1.0000000   0.0000000), wk =   0.0240000
        k(   45) = (   0.6000000  -0.2000000   1.0000000), wk =   0.0480000
        k(   46) = (   0.5000000  -0.1000000   0.9000000), wk =   0.0480000
        k(   47) = (  -0.4000000  -1.0000000   0.0000000), wk =   0.0240000

     Dense  grid:    14211 G-vectors     FFT dimensions: (  36,  36,  36)

     Estimated max dynamical RAM per process >      29.46 MB

     WARNING: libxc functional with ID  263 depends
      on external parameters: check the user_guide of
      QE if you need to modify them or to check their
      default values.

     Initial potential from superposition of free atoms

     starting charge       2.9979, renormalised to       3.0000
     Starting wfcs are    9 randomized atomic wfcs

     total cpu time spent up to now is        4.1 secs

     Self-consistent Calculation

     iteration #  1     ecut=    60.00 Ry     beta= 0.01
     Davidson diagonalization with overlap
     ethr =  1.00E-02,  avg # of iterations =  2.9

     Threshold (ethr) on eigenvalues was too large:
     Diagonalizing with lowered threshold

     Davidson diagonalization with overlap
     ethr =  1.50E-04,  avg # of iterations =  2.1

     total cpu time spent up to now is       19.8 secs

     total energy              =      -4.07353442 Ry
     estimated scf accuracy    <       0.00441796 Ry

     iteration #  2     ecut=    60.00 Ry     beta= 0.01
     Davidson diagonalization with overlap
     ethr =  1.47E-04,  avg # of iterations =  1.0

     total cpu time spent up to now is       26.4 secs

     total energy              =      -4.07977869 Ry
     estimated scf accuracy    <       0.00432552 Ry

     iteration #  3     ecut=    60.00 Ry     beta= 0.01
     Davidson diagonalization with overlap
     ethr =  1.44E-04,  avg # of iterations =  2.0

     total cpu time spent up to now is       36.4 secs

     total energy              =      -4.08083811 Ry
     estimated scf accuracy    <       0.00043671 Ry

     iteration #  4     ecut=    60.00 Ry     beta= 0.01
     Davidson diagonalization with overlap
     ethr =  1.46E-05,  avg # of iterations =  2.4

     total cpu time spent up to now is       46.2 secs

     total energy              =      -4.08097512 Ry
     estimated scf accuracy    <       0.00016005 Ry

     iteration #  5     ecut=    60.00 Ry     beta= 0.01
     Davidson diagonalization with overlap
     ethr =  5.33E-06,  avg # of iterations =  1.4

     total cpu time spent up to now is       52.1 secs

     total energy              =      -4.08143863 Ry
     estimated scf accuracy    <       0.00020618 Ry

     iteration #  6     ecut=    60.00 Ry     beta= 0.01
     Davidson diagonalization with overlap
     ethr =  5.33E-06,  avg # of iterations =  2.0

     total cpu time spent up to now is       61.7 secs

     total energy              =      -4.08168528 Ry
     estimated scf accuracy    <       0.00002455 Ry

     iteration #  7     ecut=    60.00 Ry     beta= 0.01
     Davidson diagonalization with overlap
     ethr =  8.18E-07,  avg # of iterations =  2.5

     total cpu time spent up to now is       71.4 secs

     total energy              =      -4.08175075 Ry
     estimated scf accuracy    <       0.00000748 Ry

     iteration #  8     ecut=    60.00 Ry     beta= 0.01
     Davidson diagonalization with overlap
     ethr =  2.49E-07,  avg # of iterations =  1.0

     total cpu time spent up to now is       77.6 secs

     total energy              =      -4.08174359 Ry
     estimated scf accuracy    <       0.00000983 Ry

     iteration #  9     ecut=    60.00 Ry     beta= 0.01
     Davidson diagonalization with overlap
     ethr =  2.49E-07,  avg # of iterations =  1.0

     total cpu time spent up to now is       83.9 secs

     total energy              =      -4.08168585 Ry
     estimated scf accuracy    <       0.00000817 Ry

     iteration # 10     ecut=    60.00 Ry     beta= 0.01
     Davidson diagonalization with overlap
     ethr =  2.49E-07,  avg # of iterations =  2.1

     total cpu time spent up to now is       92.7 secs

     total energy              =      -4.08172751 Ry
     estimated scf accuracy    <       0.00000189 Ry

     iteration # 11     ecut=    60.00 Ry     beta= 0.01
     Davidson diagonalization with overlap
     ethr =  6.30E-08,  avg # of iterations =  1.9

     total cpu time spent up to now is       98.1 secs

     total energy              =      -4.08170310 Ry
     estimated scf accuracy    <       0.00000151 Ry

     iteration # 12     ecut=    60.00 Ry     beta= 0.01
     Davidson diagonalization with overlap
     ethr =  5.03E-08,  avg # of iterations =  2.2

     total cpu time spent up to now is      103.0 secs

     End of self-consistent calculation

          k = 0.0000 0.0000 0.0000 (  1807 PWs)   bands (ev):

    -5.3984   9.9540   9.9540   9.9540  12.4196  12.4196

          k =-0.1000 0.1000-0.1000 (  1795 PWs)   bands (ev):

    -5.2197   8.3909   9.6607   9.6607  12.3891  12.8927

          k =-0.2000 0.2000-0.2000 (  1781 PWs)   bands (ev):

    -4.6862   5.8490   9.1828   9.1828  12.0341  13.3084

          k =-0.3000 0.3000-0.3000 (  1796 PWs)   bands (ev):

    -3.8089   3.3915   8.8322   8.8322  11.7278  12.6180

          k =-0.4000 0.4000-0.4000 (  1784 PWs)   bands (ev):

    -2.6316   1.2365   8.6515   8.6515  11.5751  11.9469

          k = 0.5000-0.5000 0.5000 (  1772 PWs)   bands (ev):

    -1.6505  -0.0740   8.6011   8.6011  11.5369  11.6975

          k = 0.0000 0.2000 0.0000 (  1788 PWs)   bands (ev):

    -5.1600   8.9648   8.9648   9.2264  11.2760  13.7009

          k =-0.1000 0.3000-0.1000 (  1797 PWs)   bands (ev):

    -4.7445   6.8040   8.3468   8.9816  11.3224  13.1803

          k =-0.2000 0.4000-0.2000 (  1787 PWs)   bands (ev):

    -3.9806   4.3172   7.9680   8.4121  11.1926  13.0039

          k =-0.3000 0.5000-0.3000 (  1782 PWs)   bands (ev):

    -2.8942   2.0543   7.8427   7.8639  10.7652  12.9444

          k = 0.6000-0.4000 0.6000 (  1770 PWs)   bands (ev):

    -1.6742   0.2901   7.3581   8.0285  10.7531  12.8078

          k = 0.5000-0.3000 0.5000 (  1779 PWs)   bands (ev):

    -2.0529   0.7788   7.0473   8.4249  11.1835  12.2995

          k = 0.4000-0.2000 0.4000 (  1793 PWs)   bands (ev):

    -3.2892   2.7759   6.9817   8.9778  11.9699  12.7342

          k = 0.3000-0.1000 0.3000 (  1790 PWs)   bands (ev):

    -4.2735   5.1367   7.1991   9.5625  12.7000  12.9722

          k = 0.2000 0.0000 0.2000 (  1783 PWs)   bands (ev):

    -4.9226   7.5236   7.8344   9.9358  12.6484  12.8883

          k = 0.0000 0.4000 0.0000 (  1792 PWs)   bands (ev):

    -4.4477   7.5894   7.6192   7.6192   9.7360  11.4678

          k =-0.1000 0.5000-0.1000 (  1782 PWs)   bands (ev):

    -3.8005   5.4338   7.1198   7.1499   9.7544  11.0346

          k =-0.2000 0.6000-0.2000 (  1773 PWs)   bands (ev):

    -2.8196   3.1665   6.2087   6.9766   9.4823  12.5330

          k = 0.7000-0.3000 0.7000 (  1781 PWs)   bands (ev):

    -1.5897   1.2078   5.4293   7.1056   9.5097  14.1512

          k = 0.6000-0.2000 0.6000 (  1781 PWs)   bands (ev):

    -1.2230   0.7422   4.8995   7.5258   9.9385  13.9421

          k = 0.5000-0.1000 0.5000 (  1785 PWs)   bands (ev):

    -2.4351   2.4958   4.6692   8.1993  10.7343  13.7503

          k = 0.4000 0.0000 0.4000 (  1769 PWs)   bands (ev):

    -3.5144   4.6154   4.8767   9.0124  11.8375  13.8953

          k = 0.0000 0.6000 0.0000 (  1772 PWs)   bands (ev):

    -3.2709   5.3571   6.5824   6.5824   8.5622   9.3993

          k =-0.1000 0.7000-0.1000 (  1763 PWs)   bands (ev):

    -2.4033   3.9432   5.2087   6.3137   8.5650   9.9221

          k = 0.8000-0.2000 0.8000 (  1771 PWs)   bands (ev):

    -1.2452   2.3162   3.8271   6.3560   8.5777  11.9521

          k = 0.7000-0.1000 0.7000 (  1776 PWs)   bands (ev):

    -0.3291   1.2325   2.9929   6.7063   8.9456  14.2739

          k = 0.6000-0.0000 0.6000 (  1784 PWs)   bands (ev):

    -1.2954   2.5230   2.6127   7.3440   9.6753  15.3365

          k = 0.0000 0.8000 0.0000 (  1756 PWs)   bands (ev):

    -1.6525   2.8386   5.9448   5.9448   7.8450   8.3529

          k = 0.9000-0.1000 0.9000 (  1758 PWs)   bands (ev):

    -0.6062   1.7111   4.5028   5.8884   8.0026   9.4221

          k = 0.8000 0.0000 0.8000 (  1764 PWs)   bands (ev):

     0.2584   1.2287   2.8179   6.1462   8.2976  11.7466

          k = 0.0000-1.0000 0.0000 (  1772 PWs)   bands (ev):

     0.0796   0.7646   5.7304   5.7304   7.6045   8.0370

          k =-0.2000 0.4000 0.0000 (  1786 PWs)   bands (ev):

    -4.2132   6.0477   6.3837   8.7935  11.3792  12.1867

          k =-0.3000 0.5000-0.1000 (  1781 PWs)   bands (ev):

    -3.3398   3.8004   5.9054   8.0280  11.3278  12.7342

          k = 0.6000-0.4000 0.8000 (  1782 PWs)   bands (ev):

    -2.1684   1.6748   5.8314   7.2931  11.1755  12.4007

          k = 0.5000-0.3000 0.7000 (  1770 PWs)   bands (ev):

    -1.1934   0.3762   5.8692   6.9712  11.1966  12.0827

          k =-0.2000 0.6000 0.0000 (  1775 PWs)   bands (ev):

    -3.0430   4.7063   5.2853   6.5832  10.2900  10.5959

          k = 0.7000-0.3000 0.9000 (  1775 PWs)   bands (ev):

    -1.9678   2.8338   4.6536   5.8294  10.3227  12.2678

          k = 0.6000-0.2000 0.8000 (  1768 PWs)   bands (ev):

    -0.7696   1.1572   4.1427   5.7635  10.5374  13.5795

          k = 0.5000-0.1000 0.7000 (  1774 PWs)   bands (ev):

    -1.1534   1.6616   3.7492   6.2390  11.0562  13.3574

          k = 0.4000 0.0000 0.6000 (  1777 PWs)   bands (ev):

    -2.3690   3.4919   3.7509   7.0633  11.7522  13.0922

          k = 0.8000-0.2000 1.0000 (  1766 PWs)   bands (ev):

    -1.4405   2.8872   4.6140   5.0776   9.6160   9.7868

          k = 0.7000-0.1000 0.9000 (  1775 PWs)   bands (ev):

    -0.2618   1.8687   3.1098   4.9795   9.8465  11.8913

          k = 0.6000 0.0000 0.8000 (  1777 PWs)   bands (ev):

    -0.0490   1.9221   2.1601   5.4348  10.3168  14.2145

          k =-0.2000-1.0000 0.0000 (  1762 PWs)   bands (ev):

     0.2205   0.9967   4.3888   4.7019   9.3889   9.5323

          k = 0.6000-0.2000 1.0000 (  1787 PWs)   bands (ev):

    -0.8370   2.6133   3.0662   4.6796  12.0284  12.4686

          k = 0.5000-0.1000 0.9000 (  1778 PWs)   bands (ev):

     0.0728   1.6545   2.9200   4.2377  12.1796  13.3278

          k =-0.4000-1.0000 0.0000 (  1770 PWs)   bands (ev):

     0.5077   1.6910   2.8369   3.6433  11.9683  12.2555

     the Fermi energy is     2.2072 ev

!    total energy              =      -4.08170681 Ry
     estimated scf accuracy    <       0.00000025 Ry
     smearing contrib. (-TS)   =      -0.04128958 Ry
     internal energy E=F+TS    =      -4.04041722 Ry

     The total energy is F=E-TS. E is the sum of the following terms:
     one-electron contribution =       1.49291851 Ry
     hartree contribution      =       0.05124340 Ry
     xc contribution           =      -1.31976649 Ry
     ewald contribution        =      -4.26481264 Ry

     convergence has been achieved in  12 iterations
     Writing meta-gga kinetic term

     Writing all to output data dir ./input_pw/Al/2/pwscf.save/
     Writing meta-gga kinetic term
 
     init_run     :      2.23s CPU      4.05s WALL (       1 calls)
     electrons    :     57.56s CPU     98.89s WALL (       1 calls)

     Called by init_run:
     wfcinit      :      2.10s CPU      3.87s WALL (       1 calls)
     potinit      :      0.04s CPU      0.07s WALL (       1 calls)
     hinit0       :      0.07s CPU      0.10s WALL (       1 calls)

     Called by electrons:
     c_bands      :     46.76s CPU     80.79s WALL (      13 calls)
     sum_band     :     10.13s CPU     16.95s WALL (      13 calls)
     v_of_rho     :      0.42s CPU      0.72s WALL (      13 calls)
     mix_rho      :      0.26s CPU      0.44s WALL (      13 calls)

     Called by c_bands:
     init_us_2    :      0.27s CPU      0.46s WALL (    1269 calls)
     init_us_2:cp :      0.27s CPU      0.45s WALL (    1269 calls)
     cegterg      :     46.45s CPU     80.19s WALL (     611 calls)

     Called by *egterg:
     cdiaghg      :      0.18s CPU      0.20s WALL (    1720 calls)
     h_psi        :     47.57s CPU     82.54s WALL (    1814 calls)
     g_psi        :      0.03s CPU      0.08s WALL (    1156 calls)

     Called by h_psi:
     h_psi:calbec :      0.15s CPU      0.36s WALL (    1814 calls)
     vloc_psi     :     11.87s CPU     20.51s WALL (    1814 calls)
     add_vuspsi   :      0.11s CPU      0.15s WALL (    1814 calls)
     h_psi_meta   :     35.36s CPU     61.41s WALL (    1814 calls)

     General routines
     calbec       :      0.15s CPU      0.33s WALL (    1814 calls)
     fft          :      0.08s CPU      0.16s WALL (     155 calls)
     ffts         :      0.09s CPU      0.19s WALL (     169 calls)
     fftw         :     47.58s CPU     82.58s WALL (   92304 calls)
     interpolate  :      0.00s CPU      0.00s WALL (      13 calls)
 
     Parallel routines
 
     PWSCF        :     59.83s CPU   1m43.02s WALL

 
   This run was terminated on:   8:58:34   4Apr2023            

=------------------------------------------------------------------------------=
   JOB DONE.
=------------------------------------------------------------------------------=
