
     Program PWSCF v.7.0 starts on 21Mar2023 at 13:11:36 

     This program is part of the open-source Quantum ESPRESSO suite
     for quantum simulation of materials; please cite
         "P. Giannozzi et al., J. Phys.:Condens. Matter 21 395502 (2009);
         "P. Giannozzi et al., J. Phys.:Condens. Matter 29 465901 (2017);
         "P. Giannozzi et al., J. Chem. Phys. 152 154105 (2020);
          URL http://www.quantum-espresso.org", 
     in publications or presentations arising from this work. More details at
     http://www.quantum-espresso.org/quote

     Parallel version (MPI), running on     1 processors

     MPI processes distributed on     1 nodes
     24111 MiB available memory on the printing compute node when the environment starts
 
     Waiting for input...
     Reading input from standard input
Warning: card &CELL ignored
Warning: card / ignored

     Current dimensions of program PWSCF are:
     Max number of different atomic species (ntypx) = 10
     Max number of k-points (npk) =  40000
     Max angular momentum in pseudopotentials (lmaxx) =  4
     file Al.SCAN.UPF2: wavefunction(s)  0D renormalized

     WARNING: the MGGA functional with ID    5 has been 
     read together with other dft terms, but it should 
     stand alone in order to work properly. The other 
     terms will be ignored.

     Subspace diagonalization in iterative solution of the eigenvalue problem:
     a serial algorithm will be used

 
     G-vector sticks info
     --------------------
     sticks:   dense  smooth     PW     G-vecs:    dense   smooth      PW
     Sum        1261    1261    367                29627    29627    4693
 
     Using Slab Decomposition
 


     bravais-lattice index     =            2
     lattice parameter (alat)  =      12.3588  a.u.
     unit-cell volume          =     471.9216 (a.u.)^3
     number of atoms/cell      =            1
     number of atomic types    =            1
     number of electrons       =         3.00
     number of Kohn-Sham states=            6
     kinetic-energy cutoff     =      60.0000  Ry
     charge density cutoff     =     240.0000  Ry
     scf convergence threshold =      1.0E-06
     mixing beta               =       0.0100
     number of iterations used =            8  local-TF  mixing
     Exchange-correlation= SLA  PW   SCAN SCAN
                           (   0   0   0   0   0 263 267)

     celldm(1)=  12.358809  celldm(2)=   0.000000  celldm(3)=   0.000000
     celldm(4)=   0.000000  celldm(5)=   0.000000  celldm(6)=   0.000000

     crystal axes: (cart. coord. in units of alat)
               a(1) = (  -0.500000   0.000000   0.500000 )  
               a(2) = (   0.000000   0.500000   0.500000 )  
               a(3) = (  -0.500000   0.500000   0.000000 )  

     reciprocal axes: (cart. coord. in units 2 pi/alat)
               b(1) = ( -1.000000 -1.000000  1.000000 )  
               b(2) = (  1.000000  1.000000  1.000000 )  
               b(3) = ( -1.000000  1.000000 -1.000000 )  


     PseudoPot. # 1 for Al read from file:
     ~/Documents/TA/PWDFT.jl/pseudopotentials/scan_upf/Al.SCAN.UPF2
     MD5 check sum: Not computed, couldn't open file
     Pseudo is Norm-conserving, Zval =  3.0
     Generated by new atomic code, or converted to UPF format
     Using radial grid of 1467 points,  2 beta functions with: 
                l(1) =   0
                l(2) =   1

     atomic species   valence    mass     pseudopotential
        Al             3.00    26.98154     Al( 1.00)

     48 Sym. Ops., with inversion, found



   Cartesian axes

     site n.     atom                  positions (alat units)
         1           Al  tau(   1) = (   0.0000000   0.0000000   0.0000000  )

     number of k points=    47  Gaussian smearing, width (Ry)=  0.1000
                       cart. coord. in units 2pi/alat
        k(    1) = (   0.0000000   0.0000000   0.0000000), wk =   0.0020000
        k(    2) = (  -0.1000000   0.1000000  -0.1000000), wk =   0.0160000
        k(    3) = (  -0.2000000   0.2000000  -0.2000000), wk =   0.0160000
        k(    4) = (  -0.3000000   0.3000000  -0.3000000), wk =   0.0160000
        k(    5) = (  -0.4000000   0.4000000  -0.4000000), wk =   0.0160000
        k(    6) = (   0.5000000  -0.5000000   0.5000000), wk =   0.0080000
        k(    7) = (   0.0000000   0.2000000   0.0000000), wk =   0.0120000
        k(    8) = (  -0.1000000   0.3000000  -0.1000000), wk =   0.0480000
        k(    9) = (  -0.2000000   0.4000000  -0.2000000), wk =   0.0480000
        k(   10) = (  -0.3000000   0.5000000  -0.3000000), wk =   0.0480000
        k(   11) = (   0.6000000  -0.4000000   0.6000000), wk =   0.0480000
        k(   12) = (   0.5000000  -0.3000000   0.5000000), wk =   0.0480000
        k(   13) = (   0.4000000  -0.2000000   0.4000000), wk =   0.0480000
        k(   14) = (   0.3000000  -0.1000000   0.3000000), wk =   0.0480000
        k(   15) = (   0.2000000   0.0000000   0.2000000), wk =   0.0240000
        k(   16) = (   0.0000000   0.4000000   0.0000000), wk =   0.0120000
        k(   17) = (  -0.1000000   0.5000000  -0.1000000), wk =   0.0480000
        k(   18) = (  -0.2000000   0.6000000  -0.2000000), wk =   0.0480000
        k(   19) = (   0.7000000  -0.3000000   0.7000000), wk =   0.0480000
        k(   20) = (   0.6000000  -0.2000000   0.6000000), wk =   0.0480000
        k(   21) = (   0.5000000  -0.1000000   0.5000000), wk =   0.0480000
        k(   22) = (   0.4000000   0.0000000   0.4000000), wk =   0.0240000
        k(   23) = (   0.0000000   0.6000000   0.0000000), wk =   0.0120000
        k(   24) = (  -0.1000000   0.7000000  -0.1000000), wk =   0.0480000
        k(   25) = (   0.8000000  -0.2000000   0.8000000), wk =   0.0480000
        k(   26) = (   0.7000000  -0.1000000   0.7000000), wk =   0.0480000
        k(   27) = (   0.6000000  -0.0000000   0.6000000), wk =   0.0240000
        k(   28) = (   0.0000000   0.8000000   0.0000000), wk =   0.0120000
        k(   29) = (   0.9000000  -0.1000000   0.9000000), wk =   0.0480000
        k(   30) = (   0.8000000   0.0000000   0.8000000), wk =   0.0240000
        k(   31) = (   0.0000000  -1.0000000   0.0000000), wk =   0.0060000
        k(   32) = (  -0.2000000   0.4000000   0.0000000), wk =   0.0480000
        k(   33) = (  -0.3000000   0.5000000  -0.1000000), wk =   0.0960000
        k(   34) = (   0.6000000  -0.4000000   0.8000000), wk =   0.0960000
        k(   35) = (   0.5000000  -0.3000000   0.7000000), wk =   0.0480000
        k(   36) = (  -0.2000000   0.6000000   0.0000000), wk =   0.0480000
        k(   37) = (   0.7000000  -0.3000000   0.9000000), wk =   0.0960000
        k(   38) = (   0.6000000  -0.2000000   0.8000000), wk =   0.0960000
        k(   39) = (   0.5000000  -0.1000000   0.7000000), wk =   0.0960000
        k(   40) = (   0.4000000   0.0000000   0.6000000), wk =   0.0480000
        k(   41) = (   0.8000000  -0.2000000   1.0000000), wk =   0.0480000
        k(   42) = (   0.7000000  -0.1000000   0.9000000), wk =   0.0960000
        k(   43) = (   0.6000000   0.0000000   0.8000000), wk =   0.0480000
        k(   44) = (  -0.2000000  -1.0000000   0.0000000), wk =   0.0240000
        k(   45) = (   0.6000000  -0.2000000   1.0000000), wk =   0.0480000
        k(   46) = (   0.5000000  -0.1000000   0.9000000), wk =   0.0480000
        k(   47) = (  -0.4000000  -1.0000000   0.0000000), wk =   0.0240000

     Dense  grid:    29627 G-vectors     FFT dimensions: (  45,  45,  45)

     Estimated max dynamical RAM per process >      60.60 MB

     WARNING: libxc functional with ID  263 depends
      on external parameters: check the user_guide of
      QE if you need to modify them or to check their
      default values.

     Initial potential from superposition of free atoms

     starting charge       2.9979, renormalised to       3.0000
     Starting wfcs are    9 randomized atomic wfcs

     total cpu time spent up to now is       15.3 secs

     Self-consistent Calculation

     iteration #  1     ecut=    60.00 Ry     beta= 0.01
     Davidson diagonalization with overlap
     ethr =  1.00E-02,  avg # of iterations =  2.8

     Threshold (ethr) on eigenvalues was too large:
     Diagonalizing with lowered threshold

     Davidson diagonalization with overlap
     ethr =  1.21E-04,  avg # of iterations =  2.7

     total cpu time spent up to now is       78.2 secs

     total energy              =      -3.99345905 Ry
     estimated scf accuracy    <       0.00352786 Ry

     iteration #  2     ecut=    60.00 Ry     beta= 0.01
     Davidson diagonalization with overlap
     ethr =  1.18E-04,  avg # of iterations =  1.0

     total cpu time spent up to now is      101.6 secs

     total energy              =      -4.00021344 Ry
     estimated scf accuracy    <       0.00345447 Ry

     iteration #  3     ecut=    60.00 Ry     beta= 0.01
     Davidson diagonalization with overlap
     ethr =  1.15E-04,  avg # of iterations =  2.0

     total cpu time spent up to now is      129.6 secs

     total energy              =      -4.00146365 Ry
     estimated scf accuracy    <       0.00012663 Ry

     iteration #  4     ecut=    60.00 Ry     beta= 0.01
     Davidson diagonalization with overlap
     ethr =  4.22E-06,  avg # of iterations =  3.1

     total cpu time spent up to now is      162.8 secs

     total energy              =      -4.00151567 Ry
     estimated scf accuracy    <       0.00004483 Ry

     iteration #  5     ecut=    60.00 Ry     beta= 0.01
     Davidson diagonalization with overlap
     ethr =  1.49E-06,  avg # of iterations =  1.3

     total cpu time spent up to now is      189.9 secs

     total energy              =      -4.00144663 Ry
     estimated scf accuracy    <       0.00004406 Ry

     iteration #  6     ecut=    60.00 Ry     beta= 0.01
     Davidson diagonalization with overlap
     ethr =  1.47E-06,  avg # of iterations =  2.0

     total cpu time spent up to now is      222.9 secs

     total energy              =      -4.00147817 Ry
     estimated scf accuracy    <       0.00006986 Ry

     iteration #  7     ecut=    60.00 Ry     beta= 0.01
     Davidson diagonalization with overlap
     ethr =  1.47E-06,  avg # of iterations =  2.0

     total cpu time spent up to now is      252.0 secs

     total energy              =      -4.00147808 Ry
     estimated scf accuracy    <       0.00001556 Ry

     iteration #  8     ecut=    60.00 Ry     beta= 0.01
     Davidson diagonalization with overlap
     ethr =  5.19E-07,  avg # of iterations =  2.0

     total cpu time spent up to now is      280.5 secs

     total energy              =      -4.00148156 Ry
     estimated scf accuracy    <       0.00000577 Ry

     iteration #  9     ecut=    60.00 Ry     beta= 0.01
     Davidson diagonalization with overlap
     ethr =  1.92E-07,  avg # of iterations =  1.0

     total cpu time spent up to now is      300.7 secs

     total energy              =      -4.00147619 Ry
     estimated scf accuracy    <       0.00000508 Ry

     iteration # 10     ecut=    60.00 Ry     beta= 0.01
     Davidson diagonalization with overlap
     ethr =  1.69E-07,  avg # of iterations =  1.9

     total cpu time spent up to now is      323.0 secs

     End of self-consistent calculation

          k = 0.0000 0.0000 0.0000 (  3719 PWs)   bands (ev):

    -5.9598   2.7414   2.7414   2.7414   5.6597   6.9219

          k =-0.1000 0.1000-0.1000 (  3722 PWs)   bands (ev):

    -5.8764   2.1529   2.6792   2.6792   5.9606   6.8125

          k =-0.2000 0.2000-0.2000 (  3701 PWs)   bands (ev):

    -5.6355   1.0188   2.5350   2.5350   5.7383   7.2277

          k =-0.3000 0.3000-0.3000 (  3705 PWs)   bands (ev):

    -5.2731  -0.1158   2.3848   2.3848   5.3770   6.9496

          k =-0.4000 0.4000-0.4000 (  3714 PWs)   bands (ev):

    -4.8878  -0.9984   2.2801   2.2801   5.1527   6.6424

          k = 0.5000-0.5000 0.5000 (  3708 PWs)   bands (ev):

    -4.7007  -1.3558   2.2434   2.2434   5.0787   6.5276

          k = 0.0000 0.2000 0.0000 (  3719 PWs)   bands (ev):

    -5.8486   2.2325   2.5172   2.5172   6.1926   6.3479

          k =-0.1000 0.3000-0.1000 (  3697 PWs)   bands (ev):

    -5.6598   1.3636   2.3111   2.4105   5.9885   6.6194

          k =-0.2000 0.4000-0.2000 (  3711 PWs)   bands (ev):

    -5.3354   0.2680   2.1477   2.2124   5.6898   6.6817

          k =-0.3000 0.5000-0.3000 (  3707 PWs)   bands (ev):

    -4.9469  -0.6870   1.9828   2.0735   5.4874   6.3078

          k = 0.6000-0.4000 0.6000 (  3711 PWs)   bands (ev):

    -4.6700  -1.2341   1.8019   2.1015   5.4332   6.1452

          k = 0.5000-0.3000 0.5000 (  3709 PWs)   bands (ev):

    -4.7345  -1.1136   1.7139   2.2211   5.5215   6.2160

          k = 0.4000-0.2000 0.4000 (  3705 PWs)   bands (ev):

    -5.0770  -0.3961   1.7444   2.4017   5.7209   6.5328

          k = 0.3000-0.1000 0.3000 (  3709 PWs)   bands (ev):

    -5.4567   0.6208   1.9110   2.5897   6.0286   6.9464

          k = 0.2000 0.0000 0.2000 (  3703 PWs)   bands (ev):

    -5.7403   1.6074   2.2555   2.7064   6.3428   6.4936

          k = 0.0000 0.4000 0.0000 (  3683 PWs)   bands (ev):

    -5.5263   1.2684   2.0467   2.0467   5.4964   5.9919

          k =-0.1000 0.5000-0.1000 (  3689 PWs)   bands (ev):

    -5.2528   0.5326   1.7731   1.8435   5.2882   5.6755

          k =-0.2000 0.6000-0.2000 (  3702 PWs)   bands (ev):

    -4.8930  -0.3053   1.3792   1.7522   5.0356   6.1928

          k = 0.7000-0.3000 0.7000 (  3696 PWs)   bands (ev):

    -4.5791  -0.9101   1.0202   1.7889   4.9844   6.6734

          k = 0.6000-0.2000 0.6000 (  3690 PWs)   bands (ev):

    -4.5277  -0.9916   0.7977   1.9452   5.1792   6.7845

          k = 0.5000-0.1000 0.5000 (  3715 PWs)   bands (ev):

    -4.7857  -0.5126   0.7792   2.1865   5.6057   6.8360

          k = 0.4000 0.0000 0.4000 (  3705 PWs)   bands (ev):

    -5.1496   0.1527   1.1196   2.4403   6.2101   6.7821

          k = 0.0000 0.6000 0.0000 (  3679 PWs)   bands (ev):

    -5.0371   0.2690   1.5964   1.5964   4.7735   4.8273

          k =-0.1000 0.7000-0.1000 (  3712 PWs)   bands (ev):

    -4.7322  -0.2460   1.1846   1.4670   4.4462   4.9942

          k = 0.8000-0.2000 0.8000 (  3704 PWs)   bands (ev):

    -4.4408  -0.6312   0.5458   1.4775   4.3892   5.8720

          k = 0.7000-0.1000 0.7000 (  3708 PWs)   bands (ev):

    -4.3311  -0.6706   0.0365   1.6256   4.5749   6.9720

          k = 0.6000-0.0000 0.6000 (  3707 PWs)   bands (ev):

    -4.4862  -0.4956   0.0148   1.8844   4.9932   7.7696

          k = 0.0000 0.8000 0.0000 (  3696 PWs)   bands (ev):

    -4.5047  -0.5859   1.2942   1.2942   3.9547   4.4146

          k = 0.9000-0.1000 0.9000 (  3704 PWs)   bands (ev):

    -4.2998  -0.8153   0.8567   1.2640   3.9515   4.7117

          k = 0.8000 0.0000 0.8000 (  3712 PWs)   bands (ev):

    -4.2311  -0.7155   0.1643   1.3806   4.1665   5.7577

          k = 0.0000-1.0000 0.0000 (  3692 PWs)   bands (ev):

    -4.2364  -0.9667   1.1893   1.1893   3.6783   4.2758

          k =-0.2000 0.4000 0.0000 (  3685 PWs)   bands (ev):

    -5.4280   0.7989   1.7266   2.3536   5.9850   6.3667

          k =-0.3000 0.5000-0.1000 (  3707 PWs)   bands (ev):

    -5.0824  -0.0346   1.3421   2.1623   5.8627   6.3427

          k = 0.6000-0.4000 0.8000 (  3706 PWs)   bands (ev):

    -4.7214  -0.7956   1.1876   1.9528   5.7128   6.0887

          k = 0.5000-0.3000 0.7000 (  3694 PWs)   bands (ev):

    -4.5497  -1.1132   1.1499   1.8641   5.6936   5.9387

          k =-0.2000 0.6000 0.0000 (  3681 PWs)   bands (ev):

    -4.9598   0.0568   1.2359   1.6981   5.2118   5.4121

          k = 0.7000-0.3000 0.9000 (  3695 PWs)   bands (ev):

    -4.6242  -0.4685   0.7817   1.4759   5.0964   6.0798

          k = 0.6000-0.2000 0.8000 (  3706 PWs)   bands (ev):

    -4.4027  -0.7912   0.4540   1.4396   5.1595   6.6722

          k = 0.5000-0.1000 0.7000 (  3702 PWs)   bands (ev):

    -4.4628  -0.6769   0.3210   1.6072   5.4102   6.7176

          k = 0.4000 0.0000 0.6000 (  3708 PWs)   bands (ev):

    -4.7513  -0.3137   0.5809   1.8977   5.7867   6.6933

          k = 0.8000-0.2000 1.0000 (  3709 PWs)   bands (ev):

    -4.4634  -0.5607   0.9118   1.1402   4.4901   5.0400

          k = 0.7000-0.1000 0.9000 (  3716 PWs)   bands (ev):

    -4.2717  -0.6409   0.2832   1.0811   4.6917   5.8798

          k = 0.6000 0.0000 0.8000 (  3702 PWs)   bands (ev):

    -4.2750  -0.3470  -0.3036   1.2735   4.9771   6.9664

          k =-0.2000-1.0000 0.0000 (  3716 PWs)   bands (ev):

    -4.2220  -0.8408   0.7999   0.9313   4.2559   4.9129

          k = 0.6000-0.2000 1.0000 (  3727 PWs)   bands (ev):

    -4.3661  -0.4959   0.2324   1.0631   5.5025   6.4318

          k = 0.5000-0.1000 0.9000 (  3710 PWs)   bands (ev):

    -4.2539  -0.4539  -0.0243   0.8838   5.5909   6.8602

          k =-0.4000-1.0000 0.0000 (  3704 PWs)   bands (ev):

    -4.1983  -0.4704   0.1130   0.6171   5.3831   6.3314

     the Fermi energy is    -0.6495 ev

!    total energy              =      -4.00147948 Ry
     estimated scf accuracy    <       0.00000068 Ry
     smearing contrib. (-TS)   =      -0.06870380 Ry
     internal energy E=F+TS    =      -3.93277568 Ry

     The total energy is F=E-TS. E is the sum of the following terms:
     one-electron contribution =       0.33986496 Ry
     hartree contribution      =       0.26159261 Ry
     xc contribution           =      -1.19541969 Ry
     ewald contribution        =      -3.33881357 Ry

     convergence has been achieved in  10 iterations
     Writing meta-gga kinetic term

     Writing all to output data dir ./input_pw/Al/2/pwscf.save/
     Writing meta-gga kinetic term
 
     init_run     :      7.37s CPU     15.24s WALL (       1 calls)
     electrons    :    171.66s CPU    307.71s WALL (       1 calls)

     Called by init_run:
     wfcinit      :      7.18s CPU     14.82s WALL (       1 calls)
     potinit      :      0.07s CPU      0.22s WALL (       1 calls)
     hinit0       :      0.08s CPU      0.13s WALL (       1 calls)

     Called by electrons:
     c_bands      :    137.96s CPU    246.49s WALL (      11 calls)
     sum_band     :     31.91s CPU     57.72s WALL (      11 calls)
     v_of_rho     :      0.88s CPU      1.81s WALL (      11 calls)
     mix_rho      :      0.92s CPU      1.79s WALL (      11 calls)

     Called by c_bands:
     init_us_2    :      0.54s CPU      0.93s WALL (    1081 calls)
     init_us_2:cp :      0.53s CPU      0.92s WALL (    1081 calls)
     cegterg      :    137.33s CPU    245.21s WALL (     517 calls)

     Called by *egterg:
     cdiaghg      :      0.21s CPU      0.35s WALL (    1496 calls)
     h_psi        :    142.26s CPU    255.90s WALL (    1590 calls)
     g_psi        :      0.08s CPU      0.17s WALL (    1026 calls)

     Called by h_psi:
     h_psi:calbec :      0.44s CPU      0.77s WALL (    1590 calls)
     vloc_psi     :     35.05s CPU     62.63s WALL (    1590 calls)
     add_vuspsi   :      0.25s CPU      0.44s WALL (    1590 calls)
     h_psi_meta   :    106.36s CPU    191.71s WALL (    1590 calls)

     General routines
     calbec       :      0.43s CPU      0.76s WALL (    1590 calls)
     fft          :      0.21s CPU      0.46s WALL (     131 calls)
     ffts         :      0.30s CPU      0.63s WALL (     175 calls)
     fftw         :    133.03s CPU    240.76s WALL (   78944 calls)
     interpolate  :      0.00s CPU      0.00s WALL (      11 calls)
 
     Parallel routines
 
     PWSCF        :   2m59.07s CPU   5m23.12s WALL

 
   This run was terminated on:  13:16:59  21Mar2023            

=------------------------------------------------------------------------------=
   JOB DONE.
=------------------------------------------------------------------------------=
