
     Program PWSCF v.7.0 starts on 21Mar2023 at 11:18: 4 

     This program is part of the open-source Quantum ESPRESSO suite
     for quantum simulation of materials; please cite
         "P. Giannozzi et al., J. Phys.:Condens. Matter 21 395502 (2009);
         "P. Giannozzi et al., J. Phys.:Condens. Matter 29 465901 (2017);
         "P. Giannozzi et al., J. Chem. Phys. 152 154105 (2020);
          URL http://www.quantum-espresso.org", 
     in publications or presentations arising from this work. More details at
     http://www.quantum-espresso.org/quote

     Parallel version (MPI), running on     1 processors

     MPI processes distributed on     1 nodes
     24350 MiB available memory on the printing compute node when the environment starts
 
     Waiting for input...
     Reading input from standard input
Warning: card &CELL ignored
Warning: card / ignored

     Current dimensions of program PWSCF are:
     Max number of different atomic species (ntypx) = 10
     Max number of k-points (npk) =  40000
     Max angular momentum in pseudopotentials (lmaxx) =  4
     file Al.SCAN.UPF2: wavefunction(s)  0D renormalized

     WARNING: the MGGA functional with ID    5 has been 
     read together with other dft terms, but it should 
     stand alone in order to work properly. The other 
     terms will be ignored.

     Subspace diagonalization in iterative solution of the eigenvalue problem:
     a serial algorithm will be used

 
     G-vector sticks info
     --------------------
     sticks:   dense  smooth     PW     G-vecs:    dense   smooth      PW
     Sum         691     691    211                12051    12051    2085
 
     Using Slab Decomposition
 


     bravais-lattice index     =            2
     lattice parameter (alat)  =       9.1841  a.u.
     unit-cell volume          =     193.6624 (a.u.)^3
     number of atoms/cell      =            1
     number of atomic types    =            1
     number of electrons       =         3.00
     number of Kohn-Sham states=            6
     kinetic-energy cutoff     =      60.0000  Ry
     charge density cutoff     =     240.0000  Ry
     scf convergence threshold =      1.0E-06
     mixing beta               =       0.0100
     number of iterations used =            8  local-TF  mixing
     Exchange-correlation= SLA  PW   SCAN SCAN
                           (   0   0   0   0   0 263 267)

     celldm(1)=   9.184069  celldm(2)=   0.000000  celldm(3)=   0.000000
     celldm(4)=   0.000000  celldm(5)=   0.000000  celldm(6)=   0.000000

     crystal axes: (cart. coord. in units of alat)
               a(1) = (  -0.500000   0.000000   0.500000 )  
               a(2) = (   0.000000   0.500000   0.500000 )  
               a(3) = (  -0.500000   0.500000   0.000000 )  

     reciprocal axes: (cart. coord. in units 2 pi/alat)
               b(1) = ( -1.000000 -1.000000  1.000000 )  
               b(2) = (  1.000000  1.000000  1.000000 )  
               b(3) = ( -1.000000  1.000000 -1.000000 )  


     PseudoPot. # 1 for Al read from file:
     ~/Documents/TA/PWDFT.jl/pseudopotentials/scan_upf/Al.SCAN.UPF2
     MD5 check sum: Not computed, couldn't open file
     Pseudo is Norm-conserving, Zval =  3.0
     Generated by new atomic code, or converted to UPF format
     Using radial grid of 1467 points,  2 beta functions with: 
                l(1) =   0
                l(2) =   1

     atomic species   valence    mass     pseudopotential
        Al             3.00    26.98154     Al( 1.00)

     48 Sym. Ops., with inversion, found



   Cartesian axes

     site n.     atom                  positions (alat units)
         1           Al  tau(   1) = (   0.0000000   0.0000000   0.0000000  )

     number of k points=    47  Gaussian smearing, width (Ry)=  0.1000
                       cart. coord. in units 2pi/alat
        k(    1) = (   0.0000000   0.0000000   0.0000000), wk =   0.0020000
        k(    2) = (  -0.1000000   0.1000000  -0.1000000), wk =   0.0160000
        k(    3) = (  -0.2000000   0.2000000  -0.2000000), wk =   0.0160000
        k(    4) = (  -0.3000000   0.3000000  -0.3000000), wk =   0.0160000
        k(    5) = (  -0.4000000   0.4000000  -0.4000000), wk =   0.0160000
        k(    6) = (   0.5000000  -0.5000000   0.5000000), wk =   0.0080000
        k(    7) = (   0.0000000   0.2000000   0.0000000), wk =   0.0120000
        k(    8) = (  -0.1000000   0.3000000  -0.1000000), wk =   0.0480000
        k(    9) = (  -0.2000000   0.4000000  -0.2000000), wk =   0.0480000
        k(   10) = (  -0.3000000   0.5000000  -0.3000000), wk =   0.0480000
        k(   11) = (   0.6000000  -0.4000000   0.6000000), wk =   0.0480000
        k(   12) = (   0.5000000  -0.3000000   0.5000000), wk =   0.0480000
        k(   13) = (   0.4000000  -0.2000000   0.4000000), wk =   0.0480000
        k(   14) = (   0.3000000  -0.1000000   0.3000000), wk =   0.0480000
        k(   15) = (   0.2000000   0.0000000   0.2000000), wk =   0.0240000
        k(   16) = (   0.0000000   0.4000000   0.0000000), wk =   0.0120000
        k(   17) = (  -0.1000000   0.5000000  -0.1000000), wk =   0.0480000
        k(   18) = (  -0.2000000   0.6000000  -0.2000000), wk =   0.0480000
        k(   19) = (   0.7000000  -0.3000000   0.7000000), wk =   0.0480000
        k(   20) = (   0.6000000  -0.2000000   0.6000000), wk =   0.0480000
        k(   21) = (   0.5000000  -0.1000000   0.5000000), wk =   0.0480000
        k(   22) = (   0.4000000   0.0000000   0.4000000), wk =   0.0240000
        k(   23) = (   0.0000000   0.6000000   0.0000000), wk =   0.0120000
        k(   24) = (  -0.1000000   0.7000000  -0.1000000), wk =   0.0480000
        k(   25) = (   0.8000000  -0.2000000   0.8000000), wk =   0.0480000
        k(   26) = (   0.7000000  -0.1000000   0.7000000), wk =   0.0480000
        k(   27) = (   0.6000000  -0.0000000   0.6000000), wk =   0.0240000
        k(   28) = (   0.0000000   0.8000000   0.0000000), wk =   0.0120000
        k(   29) = (   0.9000000  -0.1000000   0.9000000), wk =   0.0480000
        k(   30) = (   0.8000000   0.0000000   0.8000000), wk =   0.0240000
        k(   31) = (   0.0000000  -1.0000000   0.0000000), wk =   0.0060000
        k(   32) = (  -0.2000000   0.4000000   0.0000000), wk =   0.0480000
        k(   33) = (  -0.3000000   0.5000000  -0.1000000), wk =   0.0960000
        k(   34) = (   0.6000000  -0.4000000   0.8000000), wk =   0.0960000
        k(   35) = (   0.5000000  -0.3000000   0.7000000), wk =   0.0480000
        k(   36) = (  -0.2000000   0.6000000   0.0000000), wk =   0.0480000
        k(   37) = (   0.7000000  -0.3000000   0.9000000), wk =   0.0960000
        k(   38) = (   0.6000000  -0.2000000   0.8000000), wk =   0.0960000
        k(   39) = (   0.5000000  -0.1000000   0.7000000), wk =   0.0960000
        k(   40) = (   0.4000000   0.0000000   0.6000000), wk =   0.0480000
        k(   41) = (   0.8000000  -0.2000000   1.0000000), wk =   0.0480000
        k(   42) = (   0.7000000  -0.1000000   0.9000000), wk =   0.0960000
        k(   43) = (   0.6000000   0.0000000   0.8000000), wk =   0.0480000
        k(   44) = (  -0.2000000  -1.0000000   0.0000000), wk =   0.0240000
        k(   45) = (   0.6000000  -0.2000000   1.0000000), wk =   0.0480000
        k(   46) = (   0.5000000  -0.1000000   0.9000000), wk =   0.0480000
        k(   47) = (  -0.4000000  -1.0000000   0.0000000), wk =   0.0240000

     Dense  grid:    12051 G-vectors     FFT dimensions: (  36,  36,  36)

     Estimated max dynamical RAM per process >      25.87 MB

     WARNING: libxc functional with ID  263 depends
      on external parameters: check the user_guide of
      QE if you need to modify them or to check their
      default values.

     Initial potential from superposition of free atoms

     starting charge       2.9979, renormalised to       3.0000
     Starting wfcs are    9 randomized atomic wfcs

     total cpu time spent up to now is        6.4 secs

     Self-consistent Calculation

     iteration #  1     ecut=    60.00 Ry     beta= 0.01
     Davidson diagonalization with overlap
     ethr =  1.00E-02,  avg # of iterations =  2.9

     Threshold (ethr) on eigenvalues was too large:
     Diagonalizing with lowered threshold

     Davidson diagonalization with overlap
     ethr =  1.63E-04,  avg # of iterations =  2.6

     total cpu time spent up to now is       31.1 secs

     total energy              =      -4.09586483 Ry
     estimated scf accuracy    <       0.00484062 Ry

     iteration #  2     ecut=    60.00 Ry     beta= 0.01
     Davidson diagonalization with overlap
     ethr =  1.61E-04,  avg # of iterations =  1.0

     total cpu time spent up to now is       39.1 secs

     total energy              =      -4.10123384 Ry
     estimated scf accuracy    <       0.00474977 Ry

     iteration #  3     ecut=    60.00 Ry     beta= 0.01
     Davidson diagonalization with overlap
     ethr =  1.58E-04,  avg # of iterations =  2.2

     total cpu time spent up to now is       45.4 secs

     total energy              =      -4.10294843 Ry
     estimated scf accuracy    <       0.00047716 Ry

     iteration #  4     ecut=    60.00 Ry     beta= 0.01
     Davidson diagonalization with overlap
     ethr =  1.59E-05,  avg # of iterations =  2.3

     total cpu time spent up to now is       49.8 secs

     total energy              =      -4.10307443 Ry
     estimated scf accuracy    <       0.00017097 Ry

     iteration #  5     ecut=    60.00 Ry     beta= 0.01
     Davidson diagonalization with overlap
     ethr =  5.70E-06,  avg # of iterations =  1.3

     total cpu time spent up to now is       53.2 secs

     total energy              =      -4.10346822 Ry
     estimated scf accuracy    <       0.00019023 Ry

     iteration #  6     ecut=    60.00 Ry     beta= 0.01
     Davidson diagonalization with overlap
     ethr =  5.70E-06,  avg # of iterations =  2.4

     total cpu time spent up to now is       56.2 secs

     total energy              =      -4.10390648 Ry
     estimated scf accuracy    <       0.00000879 Ry

     iteration #  7     ecut=    60.00 Ry     beta= 0.01
     Davidson diagonalization with overlap
     ethr =  2.93E-07,  avg # of iterations =  2.9

     total cpu time spent up to now is       58.7 secs

     total energy              =      -4.10394879 Ry
     estimated scf accuracy    <       0.00000708 Ry

     iteration #  8     ecut=    60.00 Ry     beta= 0.01
     Davidson diagonalization with overlap
     ethr =  2.36E-07,  avg # of iterations =  1.0

     total cpu time spent up to now is       60.4 secs

     total energy              =      -4.10391696 Ry
     estimated scf accuracy    <       0.00000648 Ry

     iteration #  9     ecut=    60.00 Ry     beta= 0.01
     Davidson diagonalization with overlap
     ethr =  2.16E-07,  avg # of iterations =  2.0

     total cpu time spent up to now is       62.2 secs

     total energy              =      -4.10376613 Ry
     estimated scf accuracy    <       0.00001099 Ry

     iteration # 10     ecut=    60.00 Ry     beta= 0.01
     Davidson diagonalization with overlap
     ethr =  2.16E-07,  avg # of iterations =  3.0

     total cpu time spent up to now is       64.7 secs

     total energy              =      -4.10387865 Ry
     estimated scf accuracy    <       0.00000408 Ry

     iteration # 11     ecut=    60.00 Ry     beta= 0.01
     Davidson diagonalization with overlap
     ethr =  1.36E-07,  avg # of iterations =  2.9

     total cpu time spent up to now is       67.2 secs

     total energy              =      -4.10385830 Ry
     estimated scf accuracy    <       0.00000842 Ry

     iteration # 12     ecut=    60.00 Ry     beta= 0.01
     Davidson diagonalization with overlap
     ethr =  1.36E-07,  avg # of iterations =  2.5

     total cpu time spent up to now is       69.6 secs

     End of self-consistent calculation

          k = 0.0000 0.0000 0.0000 (  1471 PWs)   bands (ev):

    -5.1405  12.0800  12.0800  12.0800  14.0548  14.0548

          k =-0.1000 0.1000-0.1000 (  1489 PWs)   bands (ev):

    -4.9408  10.1422  11.6724  11.6725  14.1735  14.6763

          k =-0.2000 0.2000-0.2000 (  1519 PWs)   bands (ev):

    -4.3440   7.2477  11.1006  11.1006  13.8905  15.1598

          k =-0.3000 0.3000-0.3000 (  1513 PWs)   bands (ev):

    -3.3577   4.4953  10.7281  10.7281  13.6427  14.2893

          k =-0.4000 0.4000-0.4000 (  1504 PWs)   bands (ev):

    -2.0083   2.0608  10.5678  10.5678  13.4794  13.5547

          k = 0.5000-0.5000 0.5000 (  1502 PWs)   bands (ev):

    -0.7299   0.4176  10.5353  10.5353  13.1742  13.1742

          k = 0.0000 0.2000 0.0000 (  1491 PWs)   bands (ev):

    -4.8743  10.7923  10.7923  11.3446  12.7111  15.6685

          k =-0.1000 0.3000-0.1000 (  1506 PWs)   bands (ev):

    -4.4097   8.3420  10.0757  10.9537  12.9353  14.8322

          k =-0.2000 0.4000-0.2000 (  1513 PWs)   bands (ev):

    -3.5527   5.5392   9.6572  10.3060  12.6666  14.9439

          k =-0.3000 0.5000-0.3000 (  1512 PWs)   bands (ev):

    -2.3194   2.9942   9.5612   9.6573  12.1490  15.0423

          k = 0.6000-0.4000 0.6000 (  1521 PWs)   bands (ev):

    -0.8299   0.9002   9.0648   9.7787  12.1782  14.2798

          k = 0.5000-0.3000 0.5000 (  1515 PWs)   bands (ev):

    -1.3246   1.5165   8.6658  10.2707  12.7115  13.9108

          k = 0.4000-0.2000 0.4000 (  1517 PWs)   bands (ev):

    -2.7705   3.8071   8.5538  10.9481  13.6465  14.0192

          k = 0.3000-0.1000 0.3000 (  1516 PWs)   bands (ev):

    -3.8816   6.4572   8.7671  11.6560  14.6112  14.6569

          k = 0.2000 0.0000 0.2000 (  1512 PWs)   bands (ev):

    -4.6087   9.2636   9.3577  12.1049  14.5318  14.5692

          k = 0.0000 0.4000 0.0000 (  1507 PWs)   bands (ev):

    -4.0782   9.2390   9.2390   9.6189  10.9823  12.8899

          k =-0.1000 0.5000-0.1000 (  1510 PWs)   bands (ev):

    -3.3529   6.8639   8.7138   8.8314  11.0435  12.5890

          k =-0.2000 0.6000-0.2000 (  1514 PWs)   bands (ev):

    -2.2449   4.2766   7.7555   8.5274  10.7511  14.3807

          k = 0.7000-0.3000 0.7000 (  1515 PWs)   bands (ev):

    -0.8026   2.0092   6.8422   8.6837  10.8320  16.2818

          k = 0.6000-0.2000 0.6000 (  1521 PWs)   bands (ev):

    -0.3144   1.4051   6.2212   9.1730  11.3436  15.8236

          k = 0.5000-0.1000 0.5000 (  1523 PWs)   bands (ev):

    -1.7999   3.4920   5.9409   9.9632  12.2484  15.5887

          k = 0.4000 0.0000 0.4000 (  1532 PWs)   bands (ev):

    -3.0282   5.9916   6.0440  10.9499  13.4908  15.5912

          k = 0.0000 0.6000 0.0000 (  1511 PWs)   bands (ev):

    -2.7603   7.0359   8.0753   8.0753   9.6798  10.7267

          k =-0.1000 0.7000-0.1000 (  1527 PWs)   bands (ev):

    -1.7824   5.4067   6.3633   7.7780   9.7667  11.4657

          k = 0.8000-0.2000 0.8000 (  1520 PWs)   bands (ev):

    -0.4450   3.4133   4.8897   7.8301   9.8263  13.7487

          k = 0.7000-0.1000 0.7000 (  1526 PWs)   bands (ev):

     0.8095   1.8886   4.0206   8.2290  10.2563  16.3324

          k = 0.6000-0.0000 0.6000 (  1520 PWs)   bands (ev):

    -0.4736   3.4763   3.6423   8.9589  11.0736  17.4316

          k = 0.0000 0.8000 0.0000 (  1524 PWs)   bands (ev):

    -0.9360   4.0887   7.3660   7.3660   8.8868   9.7136

          k = 0.9000-0.1000 0.9000 (  1530 PWs)   bands (ev):

     0.2779   2.7830   5.5979   7.3048   9.1880  10.9448

          k = 0.8000 0.0000 0.8000 (  1522 PWs)   bands (ev):

     1.5995   1.9489   3.6272   7.5954   9.5393  13.5259

          k = 0.0000-1.0000 0.0000 (  1524 PWs)   bands (ev):

     1.2985   1.4378   7.1282   7.1282   8.6212   9.4081

          k =-0.2000 0.4000 0.0000 (  1509 PWs)   bands (ev):

    -3.8148   7.6502   7.6977  10.7289  12.9806  13.7801

          k =-0.3000 0.5000-0.1000 (  1523 PWs)   bands (ev):

    -2.8318   4.9735   7.3373   9.7261  12.9137  14.6166

          k = 0.6000-0.4000 0.8000 (  1517 PWs)   bands (ev):

    -1.4866   2.5586   7.3103   8.8007  12.8091  14.1935

          k = 0.5000-0.3000 0.7000 (  1518 PWs)   bands (ev):

    -0.2087   0.9199   7.4070   8.3727  12.8752  13.7978

          k =-0.2000 0.6000 0.0000 (  1519 PWs)   bands (ev):

    -2.5013   6.2656   6.4673   7.9647  11.7654  12.2116

          k = 0.7000-0.3000 0.9000 (  1522 PWs)   bands (ev):

    -1.2762   3.9358   5.9967   7.0271  11.8820  14.0952

          k = 0.6000-0.2000 0.8000 (  1522 PWs)   bands (ev):

     0.2050   1.8860   5.4083   6.9908  12.1505  15.5432

          k = 0.5000-0.1000 0.7000 (  1525 PWs)   bands (ev):

    -0.2963   2.5133   4.9303   7.5704  12.7502  15.2371

          k = 0.4000 0.0000 0.6000 (  1515 PWs)   bands (ev):

    -1.7302   4.7389   4.8046   8.5376  13.5547  14.9023

          k = 0.8000-0.2000 1.0000 (  1533 PWs)   bands (ev):

    -0.6861   4.2054   5.7202   6.2136  11.0187  11.4141

          k = 0.7000-0.1000 0.9000 (  1527 PWs)   bands (ev):

     0.7380   2.9622   3.9731   6.1360  11.3818  13.6857

          k = 0.6000 0.0000 0.8000 (  1524 PWs)   bands (ev):

     1.1256   2.7137   3.0534   6.6606  11.9166  16.2760

          k =-0.2000-1.0000 0.0000 (  1528 PWs)   bands (ev):

     1.4992   1.6934   5.4701   5.8490  10.7677  11.1578

          k = 0.6000-0.2000 1.0000 (  1531 PWs)   bands (ev):

     0.0464   3.8706   3.9809   5.6980  13.9655  14.1993

          k = 0.5000-0.1000 0.9000 (  1518 PWs)   bands (ev):

     1.3050   2.3649   4.0366   5.1719  14.0980  15.1628

          k =-0.4000-1.0000 0.0000 (  1524 PWs)   bands (ev):

     1.9594   2.4589   3.7274   4.5003  13.9072  13.9607

     the Fermi energy is     3.1844 ev

!    total energy              =      -4.10390049 Ry
     estimated scf accuracy    <       0.00000068 Ry
     smearing contrib. (-TS)   =      -0.03738489 Ry
     internal energy E=F+TS    =      -4.06651560 Ry

     The total energy is F=E-TS. E is the sum of the following terms:
     one-electron contribution =       1.76438238 Ry
     hartree contribution      =       0.02943931 Ry
     xc contribution           =      -1.36736595 Ry
     ewald contribution        =      -4.49297134 Ry

     convergence has been achieved in  12 iterations
     Writing meta-gga kinetic term

     Writing all to output data dir ./input_pw/Al/15/pwscf.save/
     Writing meta-gga kinetic term
 
     init_run     :      2.10s CPU      6.36s WALL (       1 calls)
     electrons    :     40.74s CPU     63.17s WALL (       1 calls)

     Called by init_run:
     wfcinit      :      1.99s CPU      5.96s WALL (       1 calls)
     potinit      :      0.04s CPU      0.11s WALL (       1 calls)
     hinit0       :      0.07s CPU      0.24s WALL (       1 calls)

     Called by electrons:
     c_bands      :     33.82s CPU     52.94s WALL (      13 calls)
     sum_band     :      6.52s CPU      9.73s WALL (      13 calls)
     v_of_rho     :      0.31s CPU      0.46s WALL (      13 calls)
     mix_rho      :      0.11s CPU      0.14s WALL (      13 calls)

     Called by c_bands:
     init_us_2    :      0.16s CPU      0.27s WALL (    1269 calls)
     init_us_2:cp :      0.15s CPU      0.27s WALL (    1269 calls)
     cegterg      :     33.67s CPU     52.71s WALL (     611 calls)

     Called by *egterg:
     cdiaghg      :      0.10s CPU      0.16s WALL (    1931 calls)
     h_psi        :     35.11s CPU     57.74s WALL (    2025 calls)
     g_psi        :      0.02s CPU      0.05s WALL (    1367 calls)

     Called by h_psi:
     h_psi:calbec :      0.06s CPU      0.12s WALL (    2025 calls)
     vloc_psi     :      8.71s CPU     14.32s WALL (    2025 calls)
     add_vuspsi   :      0.06s CPU      0.10s WALL (    2025 calls)
     h_psi_meta   :     26.24s CPU     43.13s WALL (    2025 calls)

     General routines
     calbec       :      0.05s CPU      0.12s WALL (    2025 calls)
     fft          :      0.06s CPU      0.11s WALL (     155 calls)
     ffts         :      0.06s CPU      0.08s WALL (     169 calls)
     fftw         :     37.13s CPU     60.37s WALL (   98464 calls)
     interpolate  :      0.00s CPU      0.00s WALL (      13 calls)
 
     Parallel routines
 
     PWSCF        :     42.87s CPU   1m 9.63s WALL

 
   This run was terminated on:  11:19:13  21Mar2023            

=------------------------------------------------------------------------------=
   JOB DONE.
=------------------------------------------------------------------------------=
