
     Program PWSCF v.7.0 starts on  7Jul2023 at 14:25:23 

     This program is part of the open-source Quantum ESPRESSO suite
     for quantum simulation of materials; please cite
         "P. Giannozzi et al., J. Phys.:Condens. Matter 21 395502 (2009);
         "P. Giannozzi et al., J. Phys.:Condens. Matter 29 465901 (2017);
         "P. Giannozzi et al., J. Chem. Phys. 152 154105 (2020);
          URL http://www.quantum-espresso.org", 
     in publications or presentations arising from this work. More details at
     http://www.quantum-espresso.org/quote

     Parallel version (MPI), running on     1 processors

     MPI processes distributed on     1 nodes
     26873 MiB available memory on the printing compute node when the environment starts
 
     Waiting for input...
     Reading input from standard input
Warning: card &CELL ignored
Warning: card / ignored

     Current dimensions of program PWSCF are:
     Max number of different atomic species (ntypx) = 10
     Max number of k-points (npk) =  40000
     Max angular momentum in pseudopotentials (lmaxx) =  4

     WARNING: the MGGA functional with ID    5 has been 
     read together with other dft terms, but it should 
     stand alone in order to work properly. The other 
     terms will be ignored.

     Subspace diagonalization in iterative solution of the eigenvalue problem:
     a serial algorithm will be used

 
     G-vector sticks info
     --------------------
     sticks:   dense  smooth     PW     G-vecs:    dense   smooth      PW
     Sum         511     511    163                 7631     7631    1363
 
     Using Slab Decomposition
 


     bravais-lattice index     =            2
     lattice parameter (alat)  =       8.5752  a.u.
     unit-cell volume          =     157.6423 (a.u.)^3
     number of atoms/cell      =            2
     number of atomic types    =            1
     number of electrons       =         8.00
     number of Kohn-Sham states=            4
     kinetic-energy cutoff     =      50.0000  Ry
     charge density cutoff     =     200.0000  Ry
     scf convergence threshold =      2.0E-05
     mixing beta               =       0.2000
     number of iterations used =            8  local-TF  mixing
     Exchange-correlation= SLA  PW   SCAN SCAN
                           (   0   0   0   0   0 263 267)

     celldm(1)=   8.575199  celldm(2)=   0.000000  celldm(3)=   0.000000
     celldm(4)=   0.000000  celldm(5)=   0.000000  celldm(6)=   0.000000

     crystal axes: (cart. coord. in units of alat)
               a(1) = (  -0.500000   0.000000   0.500000 )  
               a(2) = (   0.000000   0.500000   0.500000 )  
               a(3) = (  -0.500000   0.500000   0.000000 )  

     reciprocal axes: (cart. coord. in units 2 pi/alat)
               b(1) = ( -1.000000 -1.000000  1.000000 )  
               b(2) = (  1.000000  1.000000  1.000000 )  
               b(3) = ( -1.000000  1.000000 -1.000000 )  


     PseudoPot. # 1 for C  read from file:
     ~/Documents/TA/PWDFT.jl/pseudopotentials/scan_upf/C.SCAN.UPF2
     MD5 check sum: Not computed, couldn't open file
     Pseudo is Norm-conserving, Zval =  4.0
     Generated by new atomic code, or converted to UPF format
     Using radial grid of 1389 points,  1 beta functions with: 
                l(1) =   0

     atomic species   valence    mass     pseudopotential
        C              4.00    12.01100     C ( 1.00)

     48 Sym. Ops., with inversion, found (24 have fractional translation)



   Cartesian axes

     site n.     atom                  positions (alat units)
         1           C   tau(   1) = (   0.0000000   0.0000000   0.0000000  )
         2           C   tau(   2) = (   0.2500000   0.2500000   0.2500000  )

     number of k points=    47
                       cart. coord. in units 2pi/alat
        k(    1) = (   0.0000000   0.0000000   0.0000000), wk =   0.0020000
        k(    2) = (  -0.1000000   0.1000000  -0.1000000), wk =   0.0160000
        k(    3) = (  -0.2000000   0.2000000  -0.2000000), wk =   0.0160000
        k(    4) = (  -0.3000000   0.3000000  -0.3000000), wk =   0.0160000
        k(    5) = (  -0.4000000   0.4000000  -0.4000000), wk =   0.0160000
        k(    6) = (   0.5000000  -0.5000000   0.5000000), wk =   0.0080000
        k(    7) = (   0.0000000   0.2000000   0.0000000), wk =   0.0120000
        k(    8) = (  -0.1000000   0.3000000  -0.1000000), wk =   0.0480000
        k(    9) = (  -0.2000000   0.4000000  -0.2000000), wk =   0.0480000
        k(   10) = (  -0.3000000   0.5000000  -0.3000000), wk =   0.0480000
        k(   11) = (   0.6000000  -0.4000000   0.6000000), wk =   0.0480000
        k(   12) = (   0.5000000  -0.3000000   0.5000000), wk =   0.0480000
        k(   13) = (   0.4000000  -0.2000000   0.4000000), wk =   0.0480000
        k(   14) = (   0.3000000  -0.1000000   0.3000000), wk =   0.0480000
        k(   15) = (   0.2000000   0.0000000   0.2000000), wk =   0.0240000
        k(   16) = (   0.0000000   0.4000000   0.0000000), wk =   0.0120000
        k(   17) = (  -0.1000000   0.5000000  -0.1000000), wk =   0.0480000
        k(   18) = (  -0.2000000   0.6000000  -0.2000000), wk =   0.0480000
        k(   19) = (   0.7000000  -0.3000000   0.7000000), wk =   0.0480000
        k(   20) = (   0.6000000  -0.2000000   0.6000000), wk =   0.0480000
        k(   21) = (   0.5000000  -0.1000000   0.5000000), wk =   0.0480000
        k(   22) = (   0.4000000   0.0000000   0.4000000), wk =   0.0240000
        k(   23) = (   0.0000000   0.6000000   0.0000000), wk =   0.0120000
        k(   24) = (  -0.1000000   0.7000000  -0.1000000), wk =   0.0480000
        k(   25) = (   0.8000000  -0.2000000   0.8000000), wk =   0.0480000
        k(   26) = (   0.7000000  -0.1000000   0.7000000), wk =   0.0480000
        k(   27) = (   0.6000000  -0.0000000   0.6000000), wk =   0.0240000
        k(   28) = (   0.0000000   0.8000000   0.0000000), wk =   0.0120000
        k(   29) = (   0.9000000  -0.1000000   0.9000000), wk =   0.0480000
        k(   30) = (   0.8000000   0.0000000   0.8000000), wk =   0.0240000
        k(   31) = (   0.0000000  -1.0000000   0.0000000), wk =   0.0060000
        k(   32) = (  -0.2000000   0.4000000   0.0000000), wk =   0.0480000
        k(   33) = (  -0.3000000   0.5000000  -0.1000000), wk =   0.0960000
        k(   34) = (   0.6000000  -0.4000000   0.8000000), wk =   0.0960000
        k(   35) = (   0.5000000  -0.3000000   0.7000000), wk =   0.0480000
        k(   36) = (  -0.2000000   0.6000000   0.0000000), wk =   0.0480000
        k(   37) = (   0.7000000  -0.3000000   0.9000000), wk =   0.0960000
        k(   38) = (   0.6000000  -0.2000000   0.8000000), wk =   0.0960000
        k(   39) = (   0.5000000  -0.1000000   0.7000000), wk =   0.0960000
        k(   40) = (   0.4000000   0.0000000   0.6000000), wk =   0.0480000
        k(   41) = (   0.8000000  -0.2000000   1.0000000), wk =   0.0480000
        k(   42) = (   0.7000000  -0.1000000   0.9000000), wk =   0.0960000
        k(   43) = (   0.6000000   0.0000000   0.8000000), wk =   0.0480000
        k(   44) = (  -0.2000000  -1.0000000   0.0000000), wk =   0.0240000
        k(   45) = (   0.6000000  -0.2000000   1.0000000), wk =   0.0480000
        k(   46) = (   0.5000000  -0.1000000   0.9000000), wk =   0.0480000
        k(   47) = (  -0.4000000  -1.0000000   0.0000000), wk =   0.0240000

     Dense  grid:     7631 G-vectors     FFT dimensions: (  32,  32,  32)

     Estimated max dynamical RAM per process >      15.19 MB

     WARNING: libxc functional with ID  263 depends
      on external parameters: check the user_guide of
      QE if you need to modify them or to check their
      default values.

     Initial potential from superposition of free atoms

     starting charge       7.9999, renormalised to       8.0000
     Starting wfcs are    8 randomized atomic wfcs

     total cpu time spent up to now is        1.7 secs

     Self-consistent Calculation

     iteration #  1     ecut=    50.00 Ry     beta= 0.20
     Davidson diagonalization with overlap
     ethr =  1.00E-02,  avg # of iterations =  1.5

     total cpu time spent up to now is        3.8 secs

     total energy              =     -22.29999695 Ry
     estimated scf accuracy    <       0.82458406 Ry

     iteration #  2     ecut=    50.00 Ry     beta= 0.20
     Davidson diagonalization with overlap
     ethr =  1.00E-02,  avg # of iterations =  1.0

     total cpu time spent up to now is        5.7 secs

     total energy              =     -22.34567459 Ry
     estimated scf accuracy    <       0.56322136 Ry

     iteration #  3     ecut=    50.00 Ry     beta= 0.20
     Davidson diagonalization with overlap
     ethr =  7.04E-03,  avg # of iterations =  1.0

     total cpu time spent up to now is        7.6 secs

     total energy              =     -22.34798174 Ry
     estimated scf accuracy    <       0.00593104 Ry

     iteration #  4     ecut=    50.00 Ry     beta= 0.20
     Davidson diagonalization with overlap
     ethr =  7.41E-05,  avg # of iterations =  1.0

     total cpu time spent up to now is        9.5 secs

     total energy              =     -22.34807482 Ry
     estimated scf accuracy    <       0.00160861 Ry

     iteration #  5     ecut=    50.00 Ry     beta= 0.20
     Davidson diagonalization with overlap
     ethr =  2.01E-05,  avg # of iterations =  1.4

     total cpu time spent up to now is       11.1 secs

     total energy              =     -22.34818129 Ry
     estimated scf accuracy    <       0.00019408 Ry

     iteration #  6     ecut=    50.00 Ry     beta= 0.20
     Davidson diagonalization with overlap
     ethr =  2.43E-06,  avg # of iterations =  2.3

     total cpu time spent up to now is       12.0 secs

     total energy              =     -22.34821929 Ry
     estimated scf accuracy    <       0.00002286 Ry

     iteration #  7     ecut=    50.00 Ry     beta= 0.20
     Davidson diagonalization with overlap
     ethr =  2.86E-07,  avg # of iterations =  3.1

     total cpu time spent up to now is       12.8 secs

     End of self-consistent calculation

          k = 0.0000 0.0000 0.0000 (   941 PWs)   bands (ev):

   -11.5209   3.4774   3.4774   3.4774

          k =-0.1000 0.1000-0.1000 (   932 PWs)   bands (ev):

   -11.3562   1.8268   3.2751   3.2751

          k =-0.2000 0.2000-0.2000 (   938 PWs)   bands (ev):

   -10.8725  -0.3309   2.8391   2.8391

          k =-0.3000 0.3000-0.3000 (   941 PWs)   bands (ev):

   -10.1125  -2.4059   2.4119   2.4119

          k =-0.4000 0.4000-0.4000 (   941 PWs)   bands (ev):

    -9.2180  -4.1294   2.1213   2.1213

          k = 0.5000-0.5000 0.5000 (   960 PWs)   bands (ev):

    -8.7092  -4.9243   2.0223   2.0223

          k = 0.0000 0.2000 0.0000 (   937 PWs)   bands (ev):

   -11.3010   1.7818   2.9383   2.9383

          k =-0.1000 0.3000-0.1000 (   935 PWs)   bands (ev):

   -10.9220   0.1568   2.4567   2.5482

          k =-0.2000 0.4000-0.2000 (   944 PWs)   bands (ev):

   -10.2476  -1.8140   2.0375   2.0481

          k =-0.3000 0.5000-0.3000 (   931 PWs)   bands (ev):

    -9.3698  -3.6211   1.5596   1.8190

          k = 0.6000-0.4000 0.6000 (   940 PWs)   bands (ev):

    -8.6335  -4.7996   1.2359   1.8032

          k = 0.5000-0.3000 0.5000 (   942 PWs)   bands (ev):

    -8.8203  -4.5216   1.1278   1.9975

          k = 0.4000-0.2000 0.4000 (   936 PWs)   bands (ev):

    -9.6765  -3.0517   1.2652   2.3687

          k = 0.3000-0.1000 0.3000 (   940 PWs)   bands (ev):

   -10.5041  -1.1733   1.6694   2.8344

          k = 0.2000 0.0000 0.2000 (   931 PWs)   bands (ev):

   -11.0846   0.6511   2.3968   3.2218

          k = 0.0000 0.4000 0.0000 (   942 PWs)   bands (ev):

   -10.6491  -0.3210   1.9454   1.9454

          k =-0.1000 0.5000-0.1000 (   944 PWs)   bands (ev):

   -10.0706  -1.6944   1.3721   1.5213

          k =-0.2000 0.6000-0.2000 (   933 PWs)   bands (ev):

    -9.2463  -3.2768   0.6751   1.2971

          k = 0.7000-0.3000 0.7000 (   942 PWs)   bands (ev):

    -8.3908  -4.5898   0.0968   1.3030

          k = 0.6000-0.2000 0.6000 (   941 PWs)   bands (ev):

    -8.2247  -4.8097  -0.2130   1.5404

          k = 0.5000-0.1000 0.5000 (   939 PWs)   bands (ev):

    -8.9775  -3.7235  -0.1518   1.9589

          k = 0.4000 0.0000 0.4000 (   945 PWs)   bands (ev):

    -9.8442  -2.3161   0.4388   2.4578

          k = 0.0000 0.6000 0.0000 (   938 PWs)   bands (ev):

    -9.5885  -2.4360   1.0649   1.0649

          k =-0.1000 0.7000-0.1000 (   943 PWs)   bands (ev):

    -8.8388  -3.6028   0.4594   0.8041

          k = 0.8000-0.2000 0.8000 (   945 PWs)   bands (ev):

    -7.9485  -4.7553  -0.3611   0.7845

          k = 0.7000-0.1000 0.7000 (   953 PWs)   bands (ev):

    -7.4916  -5.2652  -0.9368   1.0090

          k = 0.6000-0.0000 0.6000 (   945 PWs)   bands (ev):

    -8.1147  -4.5758  -0.9464   1.4376

          k = 0.0000 0.8000 0.0000 (   942 PWs)   bands (ev):

    -8.1633  -4.5015   0.4932   0.4932

          k = 0.9000-0.1000 0.9000 (   950 PWs)   bands (ev):

    -7.2905  -5.5002  -0.0203   0.4219

          k = 0.8000 0.0000 0.8000 (   951 PWs)   bands (ev):

    -6.7792  -5.9706  -0.7351   0.6052

          k = 0.0000-1.0000 0.0000 (   950 PWs)   bands (ev):

    -6.4400  -6.4400   0.2938   0.2938

          k =-0.2000 0.4000 0.0000 (   934 PWs)   bands (ev):

   -10.4442  -1.0379   1.4100   2.3765

          k =-0.3000 0.5000-0.1000 (   937 PWs)   bands (ev):

    -9.6921  -2.6239   0.6888   1.9793

          k = 0.6000-0.4000 0.8000 (   936 PWs)   bands (ev):

    -8.8009  -4.1460   0.3342   1.6131

          k = 0.5000-0.3000 0.7000 (   942 PWs)   bands (ev):

    -8.2842  -4.8919   0.2305   1.4706

          k =-0.2000 0.6000 0.0000 (   937 PWs)   bands (ev):

    -9.4086  -2.8045   0.5615   1.2498

          k = 0.7000-0.3000 0.9000 (   941 PWs)   bands (ev):

    -8.5415  -4.0663  -0.1167   0.9260

          k = 0.6000-0.2000 0.8000 (   948 PWs)   bands (ev):

    -7.7985  -5.0097  -0.5763   0.8616

          k = 0.5000-0.1000 0.7000 (   939 PWs)   bands (ev):

    -8.0295  -4.7228  -0.7059   1.1069

          k = 0.4000 0.0000 0.6000 (   937 PWs)   bands (ev):

    -8.8920  -3.6386  -0.3277   1.5525

          k = 0.8000-0.2000 1.0000 (   944 PWs)   bands (ev):

    -8.0308  -4.6143   0.0636   0.4057

          k = 0.7000-0.1000 0.9000 (   943 PWs)   bands (ev):

    -7.1714  -5.5282  -0.5886   0.3154

          k = 0.6000 0.0000 0.8000 (   938 PWs)   bands (ev):

    -7.2109  -5.4640  -1.0041   0.6039

          k =-0.2000-1.0000 0.0000 (   956 PWs)   bands (ev):

    -6.3954  -6.3954   0.0002   0.0002

          k = 0.6000-0.2000 1.0000 (   940 PWs)   bands (ev):

    -7.6734  -4.9606  -0.6537   0.3967

          k = 0.5000-0.1000 0.9000 (   938 PWs)   bands (ev):

    -7.0885  -5.5566  -0.8077   0.1427

          k =-0.4000-1.0000 0.0000 (   940 PWs)   bands (ev):

    -6.3188  -6.3188  -0.4148  -0.4148

     highest occupied level (ev):     3.4774

!    total energy              =     -22.34822652 Ry
     estimated scf accuracy    <       0.00000445 Ry

     The total energy is the sum of the following terms:
     one-electron contribution =       1.02943023 Ry
     hartree contribution      =       2.83757343 Ry
     xc contribution           =      -6.11336042 Ry
     ewald contribution        =     -20.10186976 Ry

     convergence has been achieved in   7 iterations
     Writing meta-gga kinetic term

     Writing all to output data dir ./input_pw/C/15/pwscf.save/
     Writing meta-gga kinetic term
 
     init_run     :      0.77s CPU      1.70s WALL (       1 calls)
     electrons    :      6.55s CPU     11.10s WALL (       1 calls)

     Called by init_run:
     wfcinit      :      0.72s CPU      1.50s WALL (       1 calls)
     potinit      :      0.02s CPU      0.08s WALL (       1 calls)
     hinit0       :      0.02s CPU      0.10s WALL (       1 calls)

     Called by electrons:
     c_bands      :      5.16s CPU      8.89s WALL (       7 calls)
     sum_band     :      1.22s CPU      1.94s WALL (       7 calls)
     v_of_rho     :      0.13s CPU      0.28s WALL (       8 calls)
     mix_rho      :      0.05s CPU      0.07s WALL (       7 calls)

     Called by c_bands:
     init_us_2    :      0.02s CPU      0.03s WALL (     705 calls)
     init_us_2:cp :      0.02s CPU      0.03s WALL (     705 calls)
     cegterg      :      5.14s CPU      8.84s WALL (     329 calls)

     Called by *egterg:
     cdiaghg      :      0.03s CPU      0.06s WALL (     857 calls)
     h_psi        :      5.72s CPU     10.13s WALL (     904 calls)
     g_psi        :      0.00s CPU      0.00s WALL (     528 calls)

     Called by h_psi:
     h_psi:calbec :      0.01s CPU      0.03s WALL (     904 calls)
     vloc_psi     :      1.41s CPU      2.41s WALL (     904 calls)
     add_vuspsi   :      0.02s CPU      0.06s WALL (     904 calls)
     h_psi_meta   :      4.27s CPU      7.62s WALL (     904 calls)

     General routines
     calbec       :      0.01s CPU      0.02s WALL (     904 calls)
     fft          :      0.01s CPU      0.07s WALL (      93 calls)
     ffts         :      0.02s CPU      0.02s WALL (     128 calls)
     fftw         :      5.85s CPU     10.14s WALL (   32488 calls)
     interpolate  :      0.00s CPU      0.00s WALL (       8 calls)
 
     Parallel routines
 
     PWSCF        :      7.36s CPU     12.85s WALL

 
   This run was terminated on:  14:25:36   7Jul2023            

=------------------------------------------------------------------------------=
   JOB DONE.
=------------------------------------------------------------------------------=
