
     Program PWSCF v.7.0 starts on 10Apr2023 at  9:43:44 

     This program is part of the open-source Quantum ESPRESSO suite
     for quantum simulation of materials; please cite
         "P. Giannozzi et al., J. Phys.:Condens. Matter 21 395502 (2009);
         "P. Giannozzi et al., J. Phys.:Condens. Matter 29 465901 (2017);
         "P. Giannozzi et al., J. Chem. Phys. 152 154105 (2020);
          URL http://www.quantum-espresso.org", 
     in publications or presentations arising from this work. More details at
     http://www.quantum-espresso.org/quote

     Parallel version (MPI), running on     1 processors

     MPI processes distributed on     1 nodes
     19393 MiB available memory on the printing compute node when the environment starts
 
     Waiting for input...
     Reading input from standard input
Warning: card &CELL ignored
Warning: card / ignored

     Current dimensions of program PWSCF are:
     Max number of different atomic species (ntypx) = 10
     Max number of k-points (npk) =  40000
     Max angular momentum in pseudopotentials (lmaxx) =  4

     WARNING: the MGGA functional with ID    5 has been 
     read together with other dft terms, but it should 
     stand alone in order to work properly. The other 
     terms will be ignored.

     WARNING: the MGGA functional with ID    5 has been 
     read together with other dft terms, but it should 
     stand alone in order to work properly. The other 
     terms will be ignored.

     Subspace diagonalization in iterative solution of the eigenvalue problem:
     a serial algorithm will be used

 
     G-vector sticks info
     --------------------
     sticks:   dense  smooth     PW     G-vecs:    dense   smooth      PW
     Sum         349     349    121                 4279     4279     869
 
     Using Slab Decomposition
 


     bravais-lattice index     =            2
     lattice parameter (alat)  =       7.0751  a.u.
     unit-cell volume          =      88.5409 (a.u.)^3
     number of atoms/cell      =            2
     number of atomic types    =            2
     number of electrons       =         8.00
     number of Kohn-Sham states=            4
     kinetic-energy cutoff     =      50.0000  Ry
     charge density cutoff     =     200.0000  Ry
     scf convergence threshold =      1.0E-06
     mixing beta               =       0.0100
     number of iterations used =            8  local-TF  mixing
     Exchange-correlation= SLA  PW   SCAN SCAN
                           (   0   0   0   0   0 263 267)

     celldm(1)=   7.075135  celldm(2)=   0.000000  celldm(3)=   0.000000
     celldm(4)=   0.000000  celldm(5)=   0.000000  celldm(6)=   0.000000

     crystal axes: (cart. coord. in units of alat)
               a(1) = (  -0.500000   0.000000   0.500000 )  
               a(2) = (   0.000000   0.500000   0.500000 )  
               a(3) = (  -0.500000   0.500000   0.000000 )  

     reciprocal axes: (cart. coord. in units 2 pi/alat)
               b(1) = ( -1.000000 -1.000000  1.000000 )  
               b(2) = (  1.000000  1.000000  1.000000 )  
               b(3) = ( -1.000000  1.000000 -1.000000 )  


     PseudoPot. # 1 for Li read from file:
     ~/Documents/TA/PWDFT.jl/pseudopotentials/scan_upf/Li.SCAN.UPF2
     MD5 check sum: Not computed, couldn't open file
     Pseudo is Norm-conserving, Zval =  1.0
     Generated by new atomic code, or converted to UPF format
     Using radial grid of 1321 points,  1 beta functions with: 
                l(1) =   0

     PseudoPot. # 2 for F  read from file:
     ~/Documents/TA/PWDFT.jl/pseudopotentials/scan_upf/F.SCAN.UPF2
     MD5 check sum: Not computed, couldn't open file
     Pseudo is Norm-conserving, Zval =  7.0
     Generated by new atomic code, or converted to UPF format
     Using radial grid of 1431 points,  1 beta functions with: 
                l(1) =   0

     atomic species   valence    mass     pseudopotential
        Li             1.00     6.94100     Li( 1.00)
        F              7.00    18.99800     F ( 1.00)

     48 Sym. Ops., with inversion, found



   Cartesian axes

     site n.     atom                  positions (alat units)
         1           Li  tau(   1) = (   0.0000000   0.0000000   0.0000000  )
         2           F   tau(   2) = (   0.5000000   0.5000000   0.5000000  )

     number of k points=    47
                       cart. coord. in units 2pi/alat
        k(    1) = (   0.0000000   0.0000000   0.0000000), wk =   0.0020000
        k(    2) = (  -0.1000000   0.1000000  -0.1000000), wk =   0.0160000
        k(    3) = (  -0.2000000   0.2000000  -0.2000000), wk =   0.0160000
        k(    4) = (  -0.3000000   0.3000000  -0.3000000), wk =   0.0160000
        k(    5) = (  -0.4000000   0.4000000  -0.4000000), wk =   0.0160000
        k(    6) = (   0.5000000  -0.5000000   0.5000000), wk =   0.0080000
        k(    7) = (   0.0000000   0.2000000   0.0000000), wk =   0.0120000
        k(    8) = (  -0.1000000   0.3000000  -0.1000000), wk =   0.0480000
        k(    9) = (  -0.2000000   0.4000000  -0.2000000), wk =   0.0480000
        k(   10) = (  -0.3000000   0.5000000  -0.3000000), wk =   0.0480000
        k(   11) = (   0.6000000  -0.4000000   0.6000000), wk =   0.0480000
        k(   12) = (   0.5000000  -0.3000000   0.5000000), wk =   0.0480000
        k(   13) = (   0.4000000  -0.2000000   0.4000000), wk =   0.0480000
        k(   14) = (   0.3000000  -0.1000000   0.3000000), wk =   0.0480000
        k(   15) = (   0.2000000   0.0000000   0.2000000), wk =   0.0240000
        k(   16) = (   0.0000000   0.4000000   0.0000000), wk =   0.0120000
        k(   17) = (  -0.1000000   0.5000000  -0.1000000), wk =   0.0480000
        k(   18) = (  -0.2000000   0.6000000  -0.2000000), wk =   0.0480000
        k(   19) = (   0.7000000  -0.3000000   0.7000000), wk =   0.0480000
        k(   20) = (   0.6000000  -0.2000000   0.6000000), wk =   0.0480000
        k(   21) = (   0.5000000  -0.1000000   0.5000000), wk =   0.0480000
        k(   22) = (   0.4000000   0.0000000   0.4000000), wk =   0.0240000
        k(   23) = (   0.0000000   0.6000000   0.0000000), wk =   0.0120000
        k(   24) = (  -0.1000000   0.7000000  -0.1000000), wk =   0.0480000
        k(   25) = (   0.8000000  -0.2000000   0.8000000), wk =   0.0480000
        k(   26) = (   0.7000000  -0.1000000   0.7000000), wk =   0.0480000
        k(   27) = (   0.6000000  -0.0000000   0.6000000), wk =   0.0240000
        k(   28) = (   0.0000000   0.8000000   0.0000000), wk =   0.0120000
        k(   29) = (   0.9000000  -0.1000000   0.9000000), wk =   0.0480000
        k(   30) = (   0.8000000   0.0000000   0.8000000), wk =   0.0240000
        k(   31) = (   0.0000000  -1.0000000   0.0000000), wk =   0.0060000
        k(   32) = (  -0.2000000   0.4000000   0.0000000), wk =   0.0480000
        k(   33) = (  -0.3000000   0.5000000  -0.1000000), wk =   0.0960000
        k(   34) = (   0.6000000  -0.4000000   0.8000000), wk =   0.0960000
        k(   35) = (   0.5000000  -0.3000000   0.7000000), wk =   0.0480000
        k(   36) = (  -0.2000000   0.6000000   0.0000000), wk =   0.0480000
        k(   37) = (   0.7000000  -0.3000000   0.9000000), wk =   0.0960000
        k(   38) = (   0.6000000  -0.2000000   0.8000000), wk =   0.0960000
        k(   39) = (   0.5000000  -0.1000000   0.7000000), wk =   0.0960000
        k(   40) = (   0.4000000   0.0000000   0.6000000), wk =   0.0480000
        k(   41) = (   0.8000000  -0.2000000   1.0000000), wk =   0.0480000
        k(   42) = (   0.7000000  -0.1000000   0.9000000), wk =   0.0960000
        k(   43) = (   0.6000000   0.0000000   0.8000000), wk =   0.0480000
        k(   44) = (  -0.2000000  -1.0000000   0.0000000), wk =   0.0240000
        k(   45) = (   0.6000000  -0.2000000   1.0000000), wk =   0.0480000
        k(   46) = (   0.5000000  -0.1000000   0.9000000), wk =   0.0480000
        k(   47) = (  -0.4000000  -1.0000000   0.0000000), wk =   0.0240000

     Dense  grid:     4279 G-vectors     FFT dimensions: (  24,  24,  24)

     Estimated max dynamical RAM per process >       8.15 MB

     WARNING: libxc functional with ID  263 depends
      on external parameters: check the user_guide of
      QE if you need to modify them or to check their
      default values.

     Initial potential from superposition of free atoms

     starting charge       7.9953, renormalised to       8.0000
     Starting wfcs are    8 randomized atomic wfcs

     total cpu time spent up to now is        1.6 secs

     Self-consistent Calculation

     iteration #  1     ecut=    50.00 Ry     beta= 0.01
     Davidson diagonalization with overlap
     ethr =  1.00E-02,  avg # of iterations =  2.0

     total cpu time spent up to now is        3.2 secs

     total energy              =     -48.46666326 Ry
     estimated scf accuracy    <      17.84041691 Ry

     iteration #  2     ecut=    50.00 Ry     beta= 0.01
     Davidson diagonalization with overlap
     ethr =  1.00E-02,  avg # of iterations =  1.0

     total cpu time spent up to now is        4.7 secs

     total energy              =     -48.53831339 Ry
     estimated scf accuracy    <      17.34806386 Ry

     iteration #  3     ecut=    50.00 Ry     beta= 0.01
     Davidson diagonalization with overlap
     ethr =  1.00E-02,  avg # of iterations =  1.0

     total cpu time spent up to now is        6.0 secs

     total energy              =     -48.53812219 Ry
     estimated scf accuracy    <       3.35061747 Ry

     iteration #  4     ecut=    50.00 Ry     beta= 0.01
     Davidson diagonalization with overlap
     ethr =  1.00E-02,  avg # of iterations =  1.0

     total cpu time spent up to now is        7.4 secs

     total energy              =     -48.53851256 Ry
     estimated scf accuracy    <       0.00645192 Ry

     iteration #  5     ecut=    50.00 Ry     beta= 0.01
     Davidson diagonalization with overlap
     ethr =  8.06E-05,  avg # of iterations =  1.0

     total cpu time spent up to now is        8.9 secs

     total energy              =     -48.53845205 Ry
     estimated scf accuracy    <       0.00579848 Ry

     iteration #  6     ecut=    50.00 Ry     beta= 0.01
     Davidson diagonalization with overlap
     ethr =  7.25E-05,  avg # of iterations =  1.0

     total cpu time spent up to now is       10.3 secs

     total energy              =     -48.53763074 Ry
     estimated scf accuracy    <       0.00490820 Ry

     iteration #  7     ecut=    50.00 Ry     beta= 0.01
     Davidson diagonalization with overlap
     ethr =  6.14E-05,  avg # of iterations =  2.0

     total cpu time spent up to now is       12.3 secs

     total energy              =     -48.53865456 Ry
     estimated scf accuracy    <       0.00951522 Ry

     iteration #  8     ecut=    50.00 Ry     beta= 0.01
     Davidson diagonalization with overlap
     ethr =  6.14E-05,  avg # of iterations =  1.0

     total cpu time spent up to now is       13.7 secs

     total energy              =     -48.53836242 Ry
     estimated scf accuracy    <       0.01335089 Ry

     iteration #  9     ecut=    50.00 Ry     beta= 0.01
     Davidson diagonalization with overlap
     ethr =  6.14E-05,  avg # of iterations =  1.0

     total cpu time spent up to now is       15.0 secs

     total energy              =     -48.53848609 Ry
     estimated scf accuracy    <       0.00002835 Ry

     iteration # 10     ecut=    50.00 Ry     beta= 0.01
     Davidson diagonalization with overlap
     ethr =  3.54E-07,  avg # of iterations =  2.0

     total cpu time spent up to now is       16.7 secs

     total energy              =     -48.53849377 Ry
     estimated scf accuracy    <       0.00001500 Ry

     iteration # 11     ecut=    50.00 Ry     beta= 0.01
     Davidson diagonalization with overlap
     ethr =  1.88E-07,  avg # of iterations =  1.0

     total cpu time spent up to now is       17.9 secs

     total energy              =     -48.53849968 Ry
     estimated scf accuracy    <       0.00002665 Ry

     iteration # 12     ecut=    50.00 Ry     beta= 0.01
     Davidson diagonalization with overlap
     ethr =  1.88E-07,  avg # of iterations =  1.0

     total cpu time spent up to now is       19.2 secs

     total energy              =     -48.53849838 Ry
     estimated scf accuracy    <       0.00004184 Ry

     iteration # 13     ecut=    50.00 Ry     beta= 0.01
     Davidson diagonalization with overlap
     ethr =  1.88E-07,  avg # of iterations =  1.7

     total cpu time spent up to now is       20.4 secs

     total energy              =     -48.53849951 Ry
     estimated scf accuracy    <       0.00000513 Ry

     iteration # 14     ecut=    50.00 Ry     beta= 0.01
     Davidson diagonalization with overlap
     ethr =  6.42E-08,  avg # of iterations =  1.0

     total cpu time spent up to now is       21.4 secs

     total energy              =     -48.53849950 Ry
     estimated scf accuracy    <       0.00000673 Ry

     iteration # 15     ecut=    50.00 Ry     beta= 0.01
     Davidson diagonalization with overlap
     ethr =  6.42E-08,  avg # of iterations =  1.0

     total cpu time spent up to now is       22.7 secs

     total energy              =     -48.53849937 Ry
     estimated scf accuracy    <       0.00000667 Ry

     iteration # 16     ecut=    50.00 Ry     beta= 0.01
     Davidson diagonalization with overlap
     ethr =  6.42E-08,  avg # of iterations =  1.0

     total cpu time spent up to now is       23.6 secs

     End of self-consistent calculation

          k = 0.0000 0.0000 0.0000 (   531 PWs)   bands (ev):

   -20.9161   1.8042   1.8042   1.8042

          k =-0.1000 0.1000-0.1000 (   534 PWs)   bands (ev):

   -20.8469   1.4226   1.7559   1.7559

          k =-0.2000 0.2000-0.2000 (   531 PWs)   bands (ev):

   -20.6598   0.5587   1.6952   1.6952

          k =-0.3000 0.3000-0.3000 (   528 PWs)   bands (ev):

   -20.4177  -0.3986   1.5852   1.5852

          k =-0.4000 0.4000-0.4000 (   528 PWs)   bands (ev):

   -20.2113  -1.2200   1.5387   1.5387

          k = 0.5000-0.5000 0.5000 (   544 PWs)   bands (ev):

   -20.1314  -1.5877   1.4252   1.4252

          k = 0.0000 0.2000 0.0000 (   532 PWs)   bands (ev):

   -20.8223   1.4792   1.6648   1.6648

          k =-0.1000 0.3000-0.1000 (   536 PWs)   bands (ev):

   -20.6718   0.7770   1.4989   1.5792

          k =-0.2000 0.4000-0.2000 (   529 PWs)   bands (ev):

   -20.4423  -0.1402   1.4108   1.4691

          k =-0.3000 0.5000-0.3000 (   530 PWs)   bands (ev):

   -20.2183  -0.9812   1.2981   1.3126

          k = 0.6000-0.4000 0.6000 (   537 PWs)   bands (ev):

   -20.0921  -1.4995   1.1172   1.3591

          k = 0.5000-0.3000 0.5000 (   533 PWs)   bands (ev):

   -20.1204  -1.3638   1.0648   1.4649

          k = 0.4000-0.2000 0.4000 (   525 PWs)   bands (ev):

   -20.2903  -0.6684   1.1391   1.6005

          k = 0.3000-0.1000 0.3000 (   538 PWs)   bands (ev):

   -20.5281   0.1331   1.2085   1.7227

          k = 0.2000 0.0000 0.2000 (   537 PWs)   bands (ev):

   -20.7371   0.9598   1.4963   1.7837

          k = 0.0000 0.4000 0.0000 (   536 PWs)   bands (ev):

   -20.5586   0.5306   1.2883   1.2883

          k =-0.1000 0.5000-0.1000 (   528 PWs)   bands (ev):

   -20.3562  -0.1542   1.0718   1.1502

          k =-0.2000 0.6000-0.2000 (   533 PWs)   bands (ev):

   -20.1376  -0.9295   0.7568   1.0042

          k = 0.7000-0.3000 0.7000 (   524 PWs)   bands (ev):

   -19.9871  -1.3113   0.4289   1.1316

          k = 0.6000-0.2000 0.6000 (   531 PWs)   bands (ev):

   -19.9748  -1.3089   0.1612   1.2566

          k = 0.5000-0.1000 0.5000 (   531 PWs)   bands (ev):

   -20.1039  -0.8298   0.1789   1.4376

          k = 0.4000 0.0000 0.4000 (   530 PWs)   bands (ev):

   -20.3169  -0.2423   0.5457   1.6693

          k = 0.0000 0.6000 0.0000 (   524 PWs)   bands (ev):

   -20.1869  -0.7075   0.9091   0.9091

          k =-0.1000 0.7000-0.1000 (   529 PWs)   bands (ev):

   -19.9952  -1.3238   0.5815   0.7152

          k = 0.8000-0.2000 0.8000 (   526 PWs)   bands (ev):

   -19.8546  -1.5868   0.1433   0.7328

          k = 0.7000-0.1000 0.7000 (   527 PWs)   bands (ev):

   -19.8273  -1.3824  -0.3710   0.9069

          k = 0.6000-0.0000 0.6000 (   526 PWs)   bands (ev):

   -19.9248  -0.7241  -0.6952   1.1653

          k = 0.0000 0.8000 0.0000 (   532 PWs)   bands (ev):

   -19.8438  -1.8951   0.5078   0.5078

          k = 0.9000-0.1000 0.9000 (   523 PWs)   bands (ev):

   -19.7427  -2.0827   0.3242   0.4813

          k = 0.8000 0.0000 0.8000 (   514 PWs)   bands (ev):

   -19.7357  -1.8134  -0.0846   0.6996

          k = 0.0000-1.0000 0.0000 (   524 PWs)   bands (ev):

   -19.6993  -2.3066   0.3980   0.3980

          k =-0.2000 0.4000 0.0000 (   531 PWs)   bands (ev):

   -20.4955   0.2452   1.1057   1.5492

          k =-0.3000 0.5000-0.1000 (   529 PWs)   bands (ev):

   -20.2679  -0.4959   0.7369   1.4437

          k = 0.6000-0.4000 0.8000 (   528 PWs)   bands (ev):

   -20.0745  -1.1225   0.5501   1.2950

          k = 0.5000-0.3000 0.7000 (   534 PWs)   bands (ev):

   -19.9990  -1.4098   0.4570   1.2265

          k =-0.2000 0.6000 0.0000 (   527 PWs)   bands (ev):

   -20.1566  -0.7532   0.6195   1.0737

          k = 0.7000-0.3000 0.9000 (   531 PWs)   bands (ev):

   -19.9702  -1.2289   0.1425   0.9657

          k = 0.6000-0.2000 0.8000 (   529 PWs)   bands (ev):

   -19.8737  -1.3182  -0.2186   0.9490

          k = 0.5000-0.1000 0.7000 (   529 PWs)   bands (ev):

   -19.9109  -1.0811  -0.3892   1.0999

          k = 0.4000 0.0000 0.6000 (   529 PWs)   bands (ev):

   -20.0643  -0.7803  -0.0322   1.3098

          k = 0.8000-0.2000 1.0000 (   524 PWs)   bands (ev):

   -19.8426  -1.7188   0.2683   0.6790

          k = 0.7000-0.1000 0.9000 (   523 PWs)   bands (ev):

   -19.7627  -1.6830  -0.2160   0.6979

          k = 0.6000 0.0000 0.8000 (   520 PWs)   bands (ev):

   -19.7891  -1.2455  -0.6362   0.8770

          k =-0.2000-1.0000 0.0000 (   520 PWs)   bands (ev):

   -19.7114  -2.0651   0.1063   0.5467

          k = 0.6000-0.2000 1.0000 (   523 PWs)   bands (ev):

   -19.8297  -1.2515  -0.4450   0.8689

          k = 0.5000-0.1000 0.9000 (   520 PWs)   bands (ev):

   -19.7748  -1.1110  -0.8327   0.8342

          k =-0.4000-1.0000 0.0000 (   520 PWs)   bands (ev):

   -19.7318  -1.4705  -0.6114   0.7105

     highest occupied level (ev):     1.8042

!    total energy              =     -48.53849942 Ry
     estimated scf accuracy    <       0.00000025 Ry

     The total energy is the sum of the following terms:
     one-electron contribution =     -18.77144899 Ry
     hartree contribution      =      14.75174278 Ry
     xc contribution           =      -9.96123666 Ry
     ewald contribution        =     -34.55755655 Ry

     convergence has been achieved in  16 iterations
     Writing meta-gga kinetic term

     Writing all to output data dir ./input_pw/LiF/6/pwscf.save/
     Writing meta-gga kinetic term
 
     init_run     :      0.56s CPU      1.49s WALL (       1 calls)
     electrons    :     10.81s CPU     22.06s WALL (       1 calls)

     Called by init_run:
     wfcinit      :      0.49s CPU      1.30s WALL (       1 calls)
     potinit      :      0.01s CPU      0.03s WALL (       1 calls)
     hinit0       :      0.06s CPU      0.14s WALL (       1 calls)

     Called by electrons:
     c_bands      :      8.51s CPU     17.49s WALL (      16 calls)
     sum_band     :      2.05s CPU      4.04s WALL (      16 calls)
     v_of_rho     :      0.14s CPU      0.25s WALL (      17 calls)
     mix_rho      :      0.11s CPU      0.28s WALL (      16 calls)

     Called by c_bands:
     init_us_2    :      0.04s CPU      0.11s WALL (    1551 calls)
     init_us_2:cp :      0.04s CPU      0.11s WALL (    1551 calls)
     cegterg      :      8.47s CPU     17.39s WALL (     752 calls)

     Called by *egterg:
     cdiaghg      :      0.06s CPU      0.08s WALL (    1677 calls)
     h_psi        :      8.74s CPU     18.37s WALL (    1724 calls)
     g_psi        :      0.01s CPU      0.01s WALL (     925 calls)

     Called by h_psi:
     h_psi:calbec :      0.02s CPU      0.03s WALL (    1724 calls)
     vloc_psi     :      2.16s CPU      4.62s WALL (    1724 calls)
     add_vuspsi   :      0.02s CPU      0.02s WALL (    1724 calls)
     h_psi_meta   :      6.52s CPU     13.66s WALL (    1724 calls)

     General routines
     calbec       :      0.01s CPU      0.02s WALL (    1724 calls)
     fft          :      0.03s CPU      0.04s WALL (     201 calls)
     ffts         :      0.06s CPU      0.19s WALL (     411 calls)
     fftw         :      9.64s CPU     20.10s WALL (   67320 calls)
     interpolate  :      0.00s CPU      0.00s WALL (      17 calls)
 
     Parallel routines
 
     PWSCF        :     11.42s CPU     23.68s WALL

 
   This run was terminated on:   9:44: 8  10Apr2023            

=------------------------------------------------------------------------------=
   JOB DONE.
=------------------------------------------------------------------------------=
