
     Program PWSCF v.7.0 starts on  7Jul2023 at 14:23:45 

     This program is part of the open-source Quantum ESPRESSO suite
     for quantum simulation of materials; please cite
         "P. Giannozzi et al., J. Phys.:Condens. Matter 21 395502 (2009);
         "P. Giannozzi et al., J. Phys.:Condens. Matter 29 465901 (2017);
         "P. Giannozzi et al., J. Chem. Phys. 152 154105 (2020);
          URL http://www.quantum-espresso.org", 
     in publications or presentations arising from this work. More details at
     http://www.quantum-espresso.org/quote

     Parallel version (MPI), running on     1 processors

     MPI processes distributed on     1 nodes
     27136 MiB available memory on the printing compute node when the environment starts
 
     Waiting for input...
     Reading input from standard input
Warning: card &CELL ignored
Warning: card / ignored

     Current dimensions of program PWSCF are:
     Max number of different atomic species (ntypx) = 10
     Max number of k-points (npk) =  40000
     Max angular momentum in pseudopotentials (lmaxx) =  4

     WARNING: the MGGA functional with ID    5 has been 
     read together with other dft terms, but it should 
     stand alone in order to work properly. The other 
     terms will be ignored.

     WARNING: the MGGA functional with ID    5 has been 
     read together with other dft terms, but it should 
     stand alone in order to work properly. The other 
     terms will be ignored.

     Subspace diagonalization in iterative solution of the eigenvalue problem:
     a serial algorithm will be used

 
     G-vector sticks info
     --------------------
     sticks:   dense  smooth     PW     G-vecs:    dense   smooth      PW
     Sum         421     421    139                 5769     5769    1067
 
     Using Slab Decomposition
 


     bravais-lattice index     =            2
     lattice parameter (alat)  =       7.8008  a.u.
     unit-cell volume          =     118.6740 (a.u.)^3
     number of atoms/cell      =            2
     number of atomic types    =            2
     number of electrons       =         8.00
     number of Kohn-Sham states=            4
     kinetic-energy cutoff     =      50.0000  Ry
     charge density cutoff     =     200.0000  Ry
     scf convergence threshold =      2.0E-05
     mixing beta               =       0.2000
     number of iterations used =            8  local-TF  mixing
     Exchange-correlation= SLA  PW   SCAN SCAN
                           (   0   0   0   0   0 263 267)

     celldm(1)=   7.800789  celldm(2)=   0.000000  celldm(3)=   0.000000
     celldm(4)=   0.000000  celldm(5)=   0.000000  celldm(6)=   0.000000

     crystal axes: (cart. coord. in units of alat)
               a(1) = (  -0.500000   0.000000   0.500000 )  
               a(2) = (   0.000000   0.500000   0.500000 )  
               a(3) = (  -0.500000   0.500000   0.000000 )  

     reciprocal axes: (cart. coord. in units 2 pi/alat)
               b(1) = ( -1.000000 -1.000000  1.000000 )  
               b(2) = (  1.000000  1.000000  1.000000 )  
               b(3) = ( -1.000000  1.000000 -1.000000 )  


     PseudoPot. # 1 for Li read from file:
     ~/Documents/TA/PWDFT.jl/pseudopotentials/scan_upf/Li.SCAN.UPF2
     MD5 check sum: Not computed, couldn't open file
     Pseudo is Norm-conserving, Zval =  1.0
     Generated by new atomic code, or converted to UPF format
     Using radial grid of 1321 points,  1 beta functions with: 
                l(1) =   0

     PseudoPot. # 2 for F  read from file:
     ~/Documents/TA/PWDFT.jl/pseudopotentials/scan_upf/F.SCAN.UPF2
     MD5 check sum: Not computed, couldn't open file
     Pseudo is Norm-conserving, Zval =  7.0
     Generated by new atomic code, or converted to UPF format
     Using radial grid of 1431 points,  1 beta functions with: 
                l(1) =   0

     atomic species   valence    mass     pseudopotential
        Li             1.00     6.94100     Li( 1.00)
        F              7.00    18.99800     F ( 1.00)

     48 Sym. Ops., with inversion, found



   Cartesian axes

     site n.     atom                  positions (alat units)
         1           Li  tau(   1) = (   0.0000000   0.0000000   0.0000000  )
         2           F   tau(   2) = (   0.5000000   0.5000000   0.5000000  )

     number of k points=    47
                       cart. coord. in units 2pi/alat
        k(    1) = (   0.0000000   0.0000000   0.0000000), wk =   0.0020000
        k(    2) = (  -0.1000000   0.1000000  -0.1000000), wk =   0.0160000
        k(    3) = (  -0.2000000   0.2000000  -0.2000000), wk =   0.0160000
        k(    4) = (  -0.3000000   0.3000000  -0.3000000), wk =   0.0160000
        k(    5) = (  -0.4000000   0.4000000  -0.4000000), wk =   0.0160000
        k(    6) = (   0.5000000  -0.5000000   0.5000000), wk =   0.0080000
        k(    7) = (   0.0000000   0.2000000   0.0000000), wk =   0.0120000
        k(    8) = (  -0.1000000   0.3000000  -0.1000000), wk =   0.0480000
        k(    9) = (  -0.2000000   0.4000000  -0.2000000), wk =   0.0480000
        k(   10) = (  -0.3000000   0.5000000  -0.3000000), wk =   0.0480000
        k(   11) = (   0.6000000  -0.4000000   0.6000000), wk =   0.0480000
        k(   12) = (   0.5000000  -0.3000000   0.5000000), wk =   0.0480000
        k(   13) = (   0.4000000  -0.2000000   0.4000000), wk =   0.0480000
        k(   14) = (   0.3000000  -0.1000000   0.3000000), wk =   0.0480000
        k(   15) = (   0.2000000   0.0000000   0.2000000), wk =   0.0240000
        k(   16) = (   0.0000000   0.4000000   0.0000000), wk =   0.0120000
        k(   17) = (  -0.1000000   0.5000000  -0.1000000), wk =   0.0480000
        k(   18) = (  -0.2000000   0.6000000  -0.2000000), wk =   0.0480000
        k(   19) = (   0.7000000  -0.3000000   0.7000000), wk =   0.0480000
        k(   20) = (   0.6000000  -0.2000000   0.6000000), wk =   0.0480000
        k(   21) = (   0.5000000  -0.1000000   0.5000000), wk =   0.0480000
        k(   22) = (   0.4000000   0.0000000   0.4000000), wk =   0.0240000
        k(   23) = (   0.0000000   0.6000000   0.0000000), wk =   0.0120000
        k(   24) = (  -0.1000000   0.7000000  -0.1000000), wk =   0.0480000
        k(   25) = (   0.8000000  -0.2000000   0.8000000), wk =   0.0480000
        k(   26) = (   0.7000000  -0.1000000   0.7000000), wk =   0.0480000
        k(   27) = (   0.6000000  -0.0000000   0.6000000), wk =   0.0240000
        k(   28) = (   0.0000000   0.8000000   0.0000000), wk =   0.0120000
        k(   29) = (   0.9000000  -0.1000000   0.9000000), wk =   0.0480000
        k(   30) = (   0.8000000   0.0000000   0.8000000), wk =   0.0240000
        k(   31) = (   0.0000000  -1.0000000   0.0000000), wk =   0.0060000
        k(   32) = (  -0.2000000   0.4000000   0.0000000), wk =   0.0480000
        k(   33) = (  -0.3000000   0.5000000  -0.1000000), wk =   0.0960000
        k(   34) = (   0.6000000  -0.4000000   0.8000000), wk =   0.0960000
        k(   35) = (   0.5000000  -0.3000000   0.7000000), wk =   0.0480000
        k(   36) = (  -0.2000000   0.6000000   0.0000000), wk =   0.0480000
        k(   37) = (   0.7000000  -0.3000000   0.9000000), wk =   0.0960000
        k(   38) = (   0.6000000  -0.2000000   0.8000000), wk =   0.0960000
        k(   39) = (   0.5000000  -0.1000000   0.7000000), wk =   0.0960000
        k(   40) = (   0.4000000   0.0000000   0.6000000), wk =   0.0480000
        k(   41) = (   0.8000000  -0.2000000   1.0000000), wk =   0.0480000
        k(   42) = (   0.7000000  -0.1000000   0.9000000), wk =   0.0960000
        k(   43) = (   0.6000000   0.0000000   0.8000000), wk =   0.0480000
        k(   44) = (  -0.2000000  -1.0000000   0.0000000), wk =   0.0240000
        k(   45) = (   0.6000000  -0.2000000   1.0000000), wk =   0.0480000
        k(   46) = (   0.5000000  -0.1000000   0.9000000), wk =   0.0480000
        k(   47) = (  -0.4000000  -1.0000000   0.0000000), wk =   0.0240000

     Dense  grid:     5769 G-vectors     FFT dimensions: (  25,  25,  25)

     Estimated max dynamical RAM per process >      10.62 MB

     WARNING: libxc functional with ID  263 depends
      on external parameters: check the user_guide of
      QE if you need to modify them or to check their
      default values.

     Initial potential from superposition of free atoms

     starting charge       7.9953, renormalised to       8.0000
     Starting wfcs are    8 randomized atomic wfcs

     total cpu time spent up to now is        1.4 secs

     Self-consistent Calculation

     iteration #  1     ecut=    50.00 Ry     beta= 0.20
     Davidson diagonalization with overlap
     ethr =  1.00E-02,  avg # of iterations =  2.0

     total cpu time spent up to now is        3.2 secs

     total energy              =     -48.59494073 Ry
     estimated scf accuracy    <      17.65192288 Ry

     iteration #  2     ecut=    50.00 Ry     beta= 0.20
     Davidson diagonalization with overlap
     ethr =  1.00E-02,  avg # of iterations =  1.0

     total cpu time spent up to now is        4.6 secs

     total energy              =     -48.60018285 Ry
     estimated scf accuracy    <      11.29791754 Ry

     iteration #  3     ecut=    50.00 Ry     beta= 0.20
     Davidson diagonalization with overlap
     ethr =  1.00E-02,  avg # of iterations =  1.0

     total cpu time spent up to now is        6.1 secs

     total energy              =     -48.60244024 Ry
     estimated scf accuracy    <       0.00547525 Ry

     iteration #  4     ecut=    50.00 Ry     beta= 0.20
     Davidson diagonalization with overlap
     ethr =  6.84E-05,  avg # of iterations =  1.0

     total cpu time spent up to now is        7.5 secs

     total energy              =     -48.60254955 Ry
     estimated scf accuracy    <       0.00776841 Ry

     iteration #  5     ecut=    50.00 Ry     beta= 0.20
     Davidson diagonalization with overlap
     ethr =  6.84E-05,  avg # of iterations =  1.0

     total cpu time spent up to now is        9.0 secs

     total energy              =     -48.60330195 Ry
     estimated scf accuracy    <       0.01031664 Ry

     iteration #  6     ecut=    50.00 Ry     beta= 0.20
     Davidson diagonalization with overlap
     ethr =  6.84E-05,  avg # of iterations =  2.0

     total cpu time spent up to now is       10.5 secs

     total energy              =     -48.59891651 Ry
     estimated scf accuracy    <       0.30437226 Ry

     iteration #  7     ecut=    50.00 Ry     beta= 0.20
     Davidson diagonalization with overlap
     ethr =  6.84E-05,  avg # of iterations =  2.2

     total cpu time spent up to now is       11.8 secs

     total energy              =     -48.60171167 Ry
     estimated scf accuracy    <       0.17914042 Ry

     iteration #  8     ecut=    50.00 Ry     beta= 0.20
     Davidson diagonalization with overlap
     ethr =  6.84E-05,  avg # of iterations =  2.0

     total cpu time spent up to now is       13.3 secs

     total energy              =     -48.60356350 Ry
     estimated scf accuracy    <       0.00016689 Ry

     iteration #  9     ecut=    50.00 Ry     beta= 0.20
     Davidson diagonalization with overlap
     ethr =  2.09E-06,  avg # of iterations =  1.0

     total cpu time spent up to now is       14.1 secs

     total energy              =     -48.60357128 Ry
     estimated scf accuracy    <       0.00010613 Ry

     iteration # 10     ecut=    50.00 Ry     beta= 0.20
     Davidson diagonalization with overlap
     ethr =  1.33E-06,  avg # of iterations =  1.0

     total cpu time spent up to now is       14.8 secs

     total energy              =     -48.60357332 Ry
     estimated scf accuracy    <       0.00012880 Ry

     iteration # 11     ecut=    50.00 Ry     beta= 0.20
     Davidson diagonalization with overlap
     ethr =  1.33E-06,  avg # of iterations =  1.0

     total cpu time spent up to now is       15.6 secs

     total energy              =     -48.60357296 Ry
     estimated scf accuracy    <       0.00005510 Ry

     iteration # 12     ecut=    50.00 Ry     beta= 0.20
     Davidson diagonalization with overlap
     ethr =  6.89E-07,  avg # of iterations =  1.0

     total cpu time spent up to now is       16.5 secs

     End of self-consistent calculation

          k = 0.0000 0.0000 0.0000 (   725 PWs)   bands (ev):

   -22.3833  -0.6122  -0.6122  -0.6122

          k =-0.1000 0.1000-0.1000 (   706 PWs)   bands (ev):

   -22.3432  -0.7252  -0.5897  -0.5897

          k =-0.2000 0.2000-0.2000 (   709 PWs)   bands (ev):

   -22.2400  -1.4339  -0.6400  -0.6400

          k =-0.3000 0.3000-0.3000 (   712 PWs)   bands (ev):

   -22.1091  -2.2453  -0.6743  -0.6743

          k =-0.4000 0.4000-0.4000 (   715 PWs)   bands (ev):

   -22.0003  -2.7932  -0.7420  -0.7420

          k = 0.5000-0.5000 0.5000 (   718 PWs)   bands (ev):

   -21.9581  -2.9691  -0.7999  -0.7999

          k = 0.0000 0.2000 0.0000 (   713 PWs)   bands (ev):

   -22.3303  -0.7811  -0.6627  -0.6627

          k =-0.1000 0.3000-0.1000 (   701 PWs)   bands (ev):

   -22.2466  -1.2431  -0.7114  -0.6541

          k =-0.2000 0.4000-0.2000 (   713 PWs)   bands (ev):

   -22.1241  -2.0387  -0.8049  -0.7645

          k =-0.3000 0.5000-0.3000 (   711 PWs)   bands (ev):

   -22.0058  -2.6127  -0.8716  -0.8444

          k = 0.6000-0.4000 0.6000 (   713 PWs)   bands (ev):

   -21.9402  -2.9026  -0.9916  -0.8474

          k = 0.5000-0.3000 0.5000 (   713 PWs)   bands (ev):

   -21.9548  -2.8267  -1.0459  -0.7802

          k = 0.4000-0.2000 0.4000 (   706 PWs)   bands (ev):

   -22.0428  -2.4104  -0.9811  -0.6286

          k = 0.3000-0.1000 0.3000 (   710 PWs)   bands (ev):

   -22.1689  -1.7739  -0.8756  -0.6014

          k = 0.2000 0.0000 0.2000 (   703 PWs)   bands (ev):

   -22.2822  -1.0894  -0.6926  -0.5629

          k = 0.0000 0.4000 0.0000 (   701 PWs)   bands (ev):

   -22.1870  -1.4216  -0.8508  -0.8508

          k =-0.1000 0.5000-0.1000 (   710 PWs)   bands (ev):

   -22.0821  -2.0322  -0.9920  -0.9859

          k =-0.2000 0.6000-0.2000 (   698 PWs)   bands (ev):

   -21.9685  -2.4699  -1.1546  -1.0160

          k = 0.7000-0.3000 0.7000 (   708 PWs)   bands (ev):

   -21.8932  -2.7891  -1.4419  -1.0046

          k = 0.6000-0.2000 0.6000 (   705 PWs)   bands (ev):

   -21.8854  -2.7506  -1.5940  -0.8872

          k = 0.5000-0.1000 0.5000 (   707 PWs)   bands (ev):

   -21.9495  -2.4484  -1.5979  -0.7646

          k = 0.4000 0.0000 0.4000 (   714 PWs)   bands (ev):

   -22.0587  -2.1349  -1.3143  -0.6651

          k = 0.0000 0.6000 0.0000 (   709 PWs)   bands (ev):

   -21.9984  -2.3431  -1.1652  -1.1652

          k =-0.1000 0.7000-0.1000 (   708 PWs)   bands (ev):

   -21.9034  -2.7080  -1.3770  -1.2455

          k = 0.8000-0.2000 0.8000 (   707 PWs)   bands (ev):

   -21.8342  -2.8864  -1.6813  -1.2178

          k = 0.7000-0.1000 0.7000 (   708 PWs)   bands (ev):

   -21.8188  -2.7328  -2.0531  -1.0969

          k = 0.6000-0.0000 0.6000 (   704 PWs)   bands (ev):

   -21.8631  -2.3237  -2.2321  -0.9257

          k = 0.0000 0.8000 0.0000 (   700 PWs)   bands (ev):

   -21.8324  -3.0166  -1.3687  -1.3687

          k = 0.9000-0.1000 0.9000 (   712 PWs)   bands (ev):

   -21.7858  -3.2212  -1.5893  -1.3973

          k = 0.8000 0.0000 0.8000 (   710 PWs)   bands (ev):

   -21.7803  -3.0537  -1.8779  -1.2945

          k = 0.0000-1.0000 0.0000 (   724 PWs)   bands (ev):

   -21.7678  -3.3943  -1.5297  -1.5297

          k =-0.2000 0.4000 0.0000 (   709 PWs)   bands (ev):

   -22.1532  -1.7410  -0.9884  -0.6866

          k =-0.3000 0.5000-0.1000 (   708 PWs)   bands (ev):

   -22.0338  -2.2595  -1.2099  -0.7738

          k = 0.6000-0.4000 0.8000 (   706 PWs)   bands (ev):

   -21.9347  -2.6668  -1.3394  -0.8672

          k = 0.5000-0.3000 0.7000 (   710 PWs)   bands (ev):

   -21.8965  -2.8382  -1.3864  -0.9368

          k =-0.2000 0.6000 0.0000 (   710 PWs)   bands (ev):

   -21.9811  -2.3828  -1.3397  -1.0364

          k = 0.7000-0.3000 0.9000 (   711 PWs)   bands (ev):

   -21.8881  -2.6631  -1.6338  -1.1240

          k = 0.6000-0.2000 0.8000 (   710 PWs)   bands (ev):

   -21.8401  -2.7325  -1.8834  -1.1174

          k = 0.5000-0.1000 0.7000 (   707 PWs)   bands (ev):

   -21.8569  -2.5781  -1.9885  -0.9981

          k = 0.4000 0.0000 0.6000 (   705 PWs)   bands (ev):

   -21.9315  -2.3956  -1.7294  -0.8607

          k = 0.8000-0.2000 1.0000 (   711 PWs)   bands (ev):

   -21.8309  -2.9565  -1.6098  -1.3129

          k = 0.7000-0.1000 0.9000 (   712 PWs)   bands (ev):

   -21.7918  -2.9360  -1.9253  -1.3131

          k = 0.6000 0.0000 0.8000 (   715 PWs)   bands (ev):

   -21.8023  -2.6490  -2.2677  -1.2046

          k =-0.2000-1.0000 0.0000 (   716 PWs)   bands (ev):

   -21.7711  -3.2129  -1.7089  -1.4469

          k = 0.6000-0.2000 1.0000 (   708 PWs)   bands (ev):

   -21.8210  -2.6629  -2.0573  -1.1865

          k = 0.5000-0.1000 0.9000 (   712 PWs)   bands (ev):

   -21.7955  -2.5555  -2.3490  -1.2474

          k =-0.4000-1.0000 0.0000 (   712 PWs)   bands (ev):

   -21.7769  -2.7806  -2.1946  -1.3327

     highest occupied level (ev):    -0.5629

!    total energy              =     -48.60357280 Ry
     estimated scf accuracy    <       0.00000909 Ry

     The total energy is the sum of the following terms:
     one-electron contribution =     -24.31604266 Ry
     hartree contribution      =      16.89369002 Ry
     xc contribution           =      -9.83832003 Ry
     ewald contribution        =     -31.34290013 Ry

     convergence has been achieved in  12 iterations
     Writing meta-gga kinetic term

     Writing all to output data dir ./input_pw/LiF/6/pwscf.save/
     Writing meta-gga kinetic term
 
     init_run     :      0.62s CPU      1.33s WALL (       1 calls)
     electrons    :      9.49s CPU     15.11s WALL (       1 calls)

     Called by init_run:
     wfcinit      :      0.54s CPU      1.18s WALL (       1 calls)
     potinit      :      0.01s CPU      0.03s WALL (       1 calls)
     hinit0       :      0.06s CPU      0.11s WALL (       1 calls)

     Called by electrons:
     c_bands      :      7.56s CPU     12.05s WALL (      12 calls)
     sum_band     :      1.71s CPU      2.68s WALL (      12 calls)
     v_of_rho     :      0.12s CPU      0.19s WALL (      13 calls)
     mix_rho      :      0.11s CPU      0.22s WALL (      12 calls)

     Called by c_bands:
     init_us_2    :      0.04s CPU      0.04s WALL (    1175 calls)
     init_us_2:cp :      0.04s CPU      0.04s WALL (    1175 calls)
     cegterg      :      7.51s CPU     11.97s WALL (     564 calls)

     Called by *egterg:
     cdiaghg      :      0.06s CPU      0.09s WALL (    1326 calls)
     h_psi        :      7.85s CPU     12.85s WALL (    1373 calls)
     g_psi        :      0.01s CPU      0.01s WALL (     762 calls)

     Called by h_psi:
     h_psi:calbec :      0.02s CPU      0.02s WALL (    1373 calls)
     vloc_psi     :      1.94s CPU      3.47s WALL (    1373 calls)
     add_vuspsi   :      0.02s CPU      0.04s WALL (    1373 calls)
     h_psi_meta   :      5.85s CPU      9.29s WALL (    1373 calls)

     General routines
     calbec       :      0.01s CPU      0.01s WALL (    1373 calls)
     fft          :      0.02s CPU      0.07s WALL (     153 calls)
     ffts         :      0.05s CPU      0.11s WALL (     339 calls)
     fftw         :      8.48s CPU     13.83s WALL (   53720 calls)
     interpolate  :      0.00s CPU      0.00s WALL (      13 calls)
 
     Parallel routines
 
     PWSCF        :     10.15s CPU     16.54s WALL

 
   This run was terminated on:  14:24: 2   7Jul2023            

=------------------------------------------------------------------------------=
   JOB DONE.
=------------------------------------------------------------------------------=
