
     Program PWSCF v.7.0 starts on 14Mar2023 at 14:28:42 

     This program is part of the open-source Quantum ESPRESSO suite
     for quantum simulation of materials; please cite
         "P. Giannozzi et al., J. Phys.:Condens. Matter 21 395502 (2009);
         "P. Giannozzi et al., J. Phys.:Condens. Matter 29 465901 (2017);
         "P. Giannozzi et al., J. Chem. Phys. 152 154105 (2020);
          URL http://www.quantum-espresso.org", 
     in publications or presentations arising from this work. More details at
     http://www.quantum-espresso.org/quote

     Parallel version (MPI), running on     1 processors

     MPI processes distributed on     1 nodes
     27124 MiB available memory on the printing compute node when the environment starts
 
     Waiting for input...
     Reading input from standard input
Warning: card &CELL ignored
Warning: card / ignored

     Current dimensions of program PWSCF are:
     Max number of different atomic species (ntypx) = 10
     Max number of k-points (npk) =  40000
     Max angular momentum in pseudopotentials (lmaxx) =  4
     file Cl.SCAN.UPF2: wavefunction(s)  0D renormalized

     WARNING: the MGGA functional with ID    5 has been 
     read together with other dft terms, but it should 
     stand alone in order to work properly. The other 
     terms will be ignored.

     WARNING: the MGGA functional with ID    5 has been 
     read together with other dft terms, but it should 
     stand alone in order to work properly. The other 
     terms will be ignored.

     Subspace diagonalization in iterative solution of the eigenvalue problem:
     a serial algorithm will be used

 
     G-vector sticks info
     --------------------
     sticks:   dense  smooth     PW     G-vecs:    dense   smooth      PW
     Sum         475     475    151                 6855     6855    1243
 
     Using Slab Decomposition
 


     bravais-lattice index     =            2
     lattice parameter (alat)  =       8.3110  a.u.
     unit-cell volume          =     143.5158 (a.u.)^3
     number of atoms/cell      =            2
     number of atomic types    =            2
     number of electrons       =         8.00
     number of Kohn-Sham states=            4
     kinetic-energy cutoff     =      50.0000  Ry
     charge density cutoff     =     200.0000  Ry
     scf convergence threshold =      1.0E-06
     mixing beta               =       0.0100
     number of iterations used =            8  local-TF  mixing
     Exchange-correlation= SLA  PW   SCAN SCAN
                           (   0   0   0   0   0 263 267)

     celldm(1)=   8.311000  celldm(2)=   0.000000  celldm(3)=   0.000000
     celldm(4)=   0.000000  celldm(5)=   0.000000  celldm(6)=   0.000000

     crystal axes: (cart. coord. in units of alat)
               a(1) = (  -0.500000   0.000000   0.500000 )  
               a(2) = (   0.000000   0.500000   0.500000 )  
               a(3) = (  -0.500000   0.500000   0.000000 )  

     reciprocal axes: (cart. coord. in units 2 pi/alat)
               b(1) = ( -1.000000 -1.000000  1.000000 )  
               b(2) = (  1.000000  1.000000  1.000000 )  
               b(3) = ( -1.000000  1.000000 -1.000000 )  


     PseudoPot. # 1 for Li read from file:
     ~/Documents/TA/PWDFT.jl/pseudopotentials/scan_upf/Li.SCAN.UPF2
     MD5 check sum: Not computed, couldn't open file
     Pseudo is Norm-conserving, Zval =  1.0
     Generated by new atomic code, or converted to UPF format
     Using radial grid of 1321 points,  1 beta functions with: 
                l(1) =   0

     PseudoPot. # 2 for Cl read from file:
     ~/Documents/TA/PWDFT.jl/pseudopotentials/scan_upf/Cl.SCAN.UPF2
     MD5 check sum: Not computed, couldn't open file
     Pseudo is Norm-conserving, Zval =  7.0
     Generated by new atomic code, or converted to UPF format
     Using radial grid of 1493 points,  2 beta functions with: 
                l(1) =   0
                l(2) =   1

     atomic species   valence    mass     pseudopotential
        Li             1.00     6.94100     Li( 1.00)
        Cl             7.00    35.45300     Cl( 1.00)

     48 Sym. Ops., with inversion, found



   Cartesian axes

     site n.     atom                  positions (alat units)
         1           Li  tau(   1) = (   0.0000000   0.0000000   0.0000000  )
         2           Cl  tau(   2) = (   0.5000000   0.5000000   0.5000000  )

     number of k points=    47
                       cart. coord. in units 2pi/alat
        k(    1) = (   0.0000000   0.0000000   0.0000000), wk =   0.0020000
        k(    2) = (  -0.1000000   0.1000000  -0.1000000), wk =   0.0160000
        k(    3) = (  -0.2000000   0.2000000  -0.2000000), wk =   0.0160000
        k(    4) = (  -0.3000000   0.3000000  -0.3000000), wk =   0.0160000
        k(    5) = (  -0.4000000   0.4000000  -0.4000000), wk =   0.0160000
        k(    6) = (   0.5000000  -0.5000000   0.5000000), wk =   0.0080000
        k(    7) = (   0.0000000   0.2000000   0.0000000), wk =   0.0120000
        k(    8) = (  -0.1000000   0.3000000  -0.1000000), wk =   0.0480000
        k(    9) = (  -0.2000000   0.4000000  -0.2000000), wk =   0.0480000
        k(   10) = (  -0.3000000   0.5000000  -0.3000000), wk =   0.0480000
        k(   11) = (   0.6000000  -0.4000000   0.6000000), wk =   0.0480000
        k(   12) = (   0.5000000  -0.3000000   0.5000000), wk =   0.0480000
        k(   13) = (   0.4000000  -0.2000000   0.4000000), wk =   0.0480000
        k(   14) = (   0.3000000  -0.1000000   0.3000000), wk =   0.0480000
        k(   15) = (   0.2000000   0.0000000   0.2000000), wk =   0.0240000
        k(   16) = (   0.0000000   0.4000000   0.0000000), wk =   0.0120000
        k(   17) = (  -0.1000000   0.5000000  -0.1000000), wk =   0.0480000
        k(   18) = (  -0.2000000   0.6000000  -0.2000000), wk =   0.0480000
        k(   19) = (   0.7000000  -0.3000000   0.7000000), wk =   0.0480000
        k(   20) = (   0.6000000  -0.2000000   0.6000000), wk =   0.0480000
        k(   21) = (   0.5000000  -0.1000000   0.5000000), wk =   0.0480000
        k(   22) = (   0.4000000   0.0000000   0.4000000), wk =   0.0240000
        k(   23) = (   0.0000000   0.6000000   0.0000000), wk =   0.0120000
        k(   24) = (  -0.1000000   0.7000000  -0.1000000), wk =   0.0480000
        k(   25) = (   0.8000000  -0.2000000   0.8000000), wk =   0.0480000
        k(   26) = (   0.7000000  -0.1000000   0.7000000), wk =   0.0480000
        k(   27) = (   0.6000000  -0.0000000   0.6000000), wk =   0.0240000
        k(   28) = (   0.0000000   0.8000000   0.0000000), wk =   0.0120000
        k(   29) = (   0.9000000  -0.1000000   0.9000000), wk =   0.0480000
        k(   30) = (   0.8000000   0.0000000   0.8000000), wk =   0.0240000
        k(   31) = (   0.0000000  -1.0000000   0.0000000), wk =   0.0060000
        k(   32) = (  -0.2000000   0.4000000   0.0000000), wk =   0.0480000
        k(   33) = (  -0.3000000   0.5000000  -0.1000000), wk =   0.0960000
        k(   34) = (   0.6000000  -0.4000000   0.8000000), wk =   0.0960000
        k(   35) = (   0.5000000  -0.3000000   0.7000000), wk =   0.0480000
        k(   36) = (  -0.2000000   0.6000000   0.0000000), wk =   0.0480000
        k(   37) = (   0.7000000  -0.3000000   0.9000000), wk =   0.0960000
        k(   38) = (   0.6000000  -0.2000000   0.8000000), wk =   0.0960000
        k(   39) = (   0.5000000  -0.1000000   0.7000000), wk =   0.0960000
        k(   40) = (   0.4000000   0.0000000   0.6000000), wk =   0.0480000
        k(   41) = (   0.8000000  -0.2000000   1.0000000), wk =   0.0480000
        k(   42) = (   0.7000000  -0.1000000   0.9000000), wk =   0.0960000
        k(   43) = (   0.6000000   0.0000000   0.8000000), wk =   0.0480000
        k(   44) = (  -0.2000000  -1.0000000   0.0000000), wk =   0.0240000
        k(   45) = (   0.6000000  -0.2000000   1.0000000), wk =   0.0480000
        k(   46) = (   0.5000000  -0.1000000   0.9000000), wk =   0.0480000
        k(   47) = (  -0.4000000  -1.0000000   0.0000000), wk =   0.0240000

     Dense  grid:     6855 G-vectors     FFT dimensions: (  27,  27,  27)

     Estimated max dynamical RAM per process >      13.00 MB

     WARNING: libxc functional with ID  263 depends
      on external parameters: check the user_guide of
      QE if you need to modify them or to check their
      default values.

     Initial potential from superposition of free atoms

     starting charge       7.9953, renormalised to       8.0000
     Starting wfcs are   13 randomized atomic wfcs

     total cpu time spent up to now is        3.6 secs

     Self-consistent Calculation

     iteration #  1     ecut=    50.00 Ry     beta= 0.01
     Davidson diagonalization with overlap
     ethr =  1.00E-02,  avg # of iterations =  1.0

     total cpu time spent up to now is        5.9 secs

     total energy              =     -30.54838664 Ry
     estimated scf accuracy    <       0.36728654 Ry

     iteration #  2     ecut=    50.00 Ry     beta= 0.01
     Davidson diagonalization with overlap
     ethr =  4.59E-03,  avg # of iterations =  1.0

     total cpu time spent up to now is        8.4 secs

     total energy              =     -30.57383568 Ry
     estimated scf accuracy    <       0.34813845 Ry

     iteration #  3     ecut=    50.00 Ry     beta= 0.01
     Davidson diagonalization with overlap
     ethr =  4.35E-03,  avg # of iterations =  1.0

     total cpu time spent up to now is       10.9 secs

     total energy              =     -30.64175150 Ry
     estimated scf accuracy    <       0.27677221 Ry

     iteration #  4     ecut=    50.00 Ry     beta= 0.01
     Davidson diagonalization with overlap
     ethr =  3.46E-03,  avg # of iterations =  1.0

     total cpu time spent up to now is       13.2 secs

     total energy              =     -30.64381908 Ry
     estimated scf accuracy    <       0.00329368 Ry

     iteration #  5     ecut=    50.00 Ry     beta= 0.01
     Davidson diagonalization with overlap
     ethr =  4.12E-05,  avg # of iterations =  1.0

     total cpu time spent up to now is       15.7 secs

     total energy              =     -30.64393555 Ry
     estimated scf accuracy    <       0.00348436 Ry

     iteration #  6     ecut=    50.00 Ry     beta= 0.01
     Davidson diagonalization with overlap
     ethr =  4.12E-05,  avg # of iterations =  1.0

     total cpu time spent up to now is       18.2 secs

     total energy              =     -30.64355706 Ry
     estimated scf accuracy    <       0.00335801 Ry

     iteration #  7     ecut=    50.00 Ry     beta= 0.01
     Davidson diagonalization with overlap
     ethr =  4.12E-05,  avg # of iterations =  1.0

     total cpu time spent up to now is       20.7 secs

     total energy              =     -30.64313910 Ry
     estimated scf accuracy    <       0.00131227 Ry

     iteration #  8     ecut=    50.00 Ry     beta= 0.01
     Davidson diagonalization with overlap
     ethr =  1.64E-05,  avg # of iterations =  2.0

     total cpu time spent up to now is       23.9 secs

     total energy              =     -30.64357162 Ry
     estimated scf accuracy    <       0.00133016 Ry

     iteration #  9     ecut=    50.00 Ry     beta= 0.01
     Davidson diagonalization with overlap
     ethr =  1.64E-05,  avg # of iterations =  1.0

     total cpu time spent up to now is       26.1 secs

     total energy              =     -30.64347913 Ry
     estimated scf accuracy    <       0.00121922 Ry

     iteration # 10     ecut=    50.00 Ry     beta= 0.01
     Davidson diagonalization with overlap
     ethr =  1.52E-05,  avg # of iterations =  1.0

     total cpu time spent up to now is       28.4 secs

     total energy              =     -30.64346810 Ry
     estimated scf accuracy    <       0.00041824 Ry

     iteration # 11     ecut=    50.00 Ry     beta= 0.01
     Davidson diagonalization with overlap
     ethr =  5.23E-06,  avg # of iterations =  1.0

     total cpu time spent up to now is       30.4 secs

     total energy              =     -30.64347926 Ry
     estimated scf accuracy    <       0.00000404 Ry

     iteration # 12     ecut=    50.00 Ry     beta= 0.01
     Davidson diagonalization with overlap
     ethr =  5.05E-08,  avg # of iterations =  2.0

     total cpu time spent up to now is       32.9 secs

     total energy              =     -30.64348000 Ry
     estimated scf accuracy    <       0.00000306 Ry

     iteration # 13     ecut=    50.00 Ry     beta= 0.01
     Davidson diagonalization with overlap
     ethr =  3.82E-08,  avg # of iterations =  1.0

     total cpu time spent up to now is       34.6 secs

     total energy              =     -30.64348231 Ry
     estimated scf accuracy    <       0.00000164 Ry

     iteration # 14     ecut=    50.00 Ry     beta= 0.01
     Davidson diagonalization with overlap
     ethr =  2.06E-08,  avg # of iterations =  2.0

     total cpu time spent up to now is       37.4 secs

     total energy              =     -30.64348239 Ry
     estimated scf accuracy    <       0.00000160 Ry

     iteration # 15     ecut=    50.00 Ry     beta= 0.01
     Davidson diagonalization with overlap
     ethr =  2.01E-08,  avg # of iterations =  1.0

     total cpu time spent up to now is       39.3 secs

     End of self-consistent calculation

          k = 0.0000 0.0000 0.0000 (   869 PWs)   bands (ev):

   -10.2415   6.1583   6.1583   6.1583

          k =-0.1000 0.1000-0.1000 (   881 PWs)   bands (ev):

   -10.1204   5.5307   6.0956   6.0956

          k =-0.2000 0.2000-0.2000 (   872 PWs)   bands (ev):

    -9.7792   4.0708   5.9432   5.9432

          k =-0.3000 0.3000-0.3000 (   863 PWs)   bands (ev):

    -9.2983   2.4654   5.7750   5.7750

          k =-0.4000 0.4000-0.4000 (   866 PWs)   bands (ev):

    -8.8419   1.2314   5.6532   5.6532

          k = 0.5000-0.5000 0.5000 (   862 PWs)   bands (ev):

    -8.6453   0.7610   5.6097   5.6097

          k = 0.0000 0.2000 0.0000 (   889 PWs)   bands (ev):

   -10.0789   5.7102   5.8639   5.8639

          k =-0.1000 0.3000-0.1000 (   866 PWs)   bands (ev):

    -9.8064   4.5423   5.5871   5.8049

          k =-0.2000 0.4000-0.2000 (   864 PWs)   bands (ev):

    -9.3629   2.9841   5.3761   5.5863

          k =-0.3000 0.5000-0.3000 (   854 PWs)   bands (ev):

    -8.8803   1.6253   5.2769   5.3002

          k = 0.6000-0.4000 0.6000 (   857 PWs)   bands (ev):

    -8.5780   0.8940   5.0031   5.3774

          k = 0.5000-0.3000 0.5000 (   862 PWs)   bands (ev):

    -8.6471   1.0599   4.8545   5.5799

          k = 0.4000-0.2000 0.4000 (   857 PWs)   bands (ev):

    -9.0392   2.0565   4.8792   5.8425

          k = 0.3000-0.1000 0.3000 (   865 PWs)   bands (ev):

    -9.5289   3.5227   5.0930   6.0734

          k = 0.2000 0.0000 0.2000 (   875 PWs)   bands (ev):

    -9.9240   4.8886   5.5350   6.1763

          k = 0.0000 0.4000 0.0000 (   869 PWs)   bands (ev):

    -9.6054   4.4150   5.1783   5.1783

          k =-0.1000 0.5000-0.1000 (   860 PWs)   bands (ev):

    -9.2174   3.2299   4.8519   4.8691

          k =-0.2000 0.6000-0.2000 (   853 PWs)   bands (ev):

    -8.7491   1.9873   4.3512   4.7477

          k = 0.7000-0.3000 0.7000 (   858 PWs)   bands (ev):

    -8.3904   1.1891   3.8294   4.8431

          k = 0.6000-0.2000 0.6000 (   857 PWs)   bands (ev):

    -8.3479   1.1545   3.4769   5.1316

          k = 0.5000-0.1000 0.5000 (   854 PWs)   bands (ev):

    -8.6498   1.8967   3.4149   5.5328

          k = 0.4000 0.0000 0.4000 (   857 PWs)   bands (ev):

    -9.1111   2.9038   3.9018   5.9046

          k = 0.0000 0.6000 0.0000 (   853 PWs)   bands (ev):

    -8.8922   2.6110   4.4540   4.4540

          k =-0.1000 0.7000-0.1000 (   851 PWs)   bands (ev):

    -8.4758   1.7001   3.9676   4.2447

          k = 0.8000-0.2000 0.8000 (   851 PWs)   bands (ev):

    -8.1293   1.1410   3.2184   4.2865

          k = 0.7000-0.1000 0.7000 (   857 PWs)   bands (ev):

    -8.0380   1.2360   2.5084   4.5712

          k = 0.6000-0.0000 0.6000 (   859 PWs)   bands (ev):

    -8.2560   2.0392   2.0656   5.0342

          k = 0.0000 0.8000 0.0000 (   850 PWs)   bands (ev):

    -8.1423   0.9744   3.9388   3.9388

          k = 0.9000-0.1000 0.9000 (   850 PWs)   bands (ev):

    -7.8876   0.5687   3.5141   3.8944

          k = 0.8000 0.0000 0.8000 (   856 PWs)   bands (ev):

    -7.8479   0.7511   2.8167   4.1198

          k = 0.0000-1.0000 0.0000 (   846 PWs)   bands (ev):

    -7.7860   0.2849   3.7553   3.7553

          k =-0.2000 0.4000 0.0000 (   858 PWs)   bands (ev):

    -9.4770   3.7529   4.7812   5.7212

          k =-0.3000 0.5000-0.1000 (   854 PWs)   bands (ev):

    -9.0150   2.5205   4.2415   5.4993

          k = 0.6000-0.4000 0.8000 (   853 PWs)   bands (ev):

    -8.5791   1.4320   4.0178   5.2278

          k = 0.5000-0.3000 0.7000 (   852 PWs)   bands (ev):

    -8.3926   1.0045   3.9602   5.1072

          k =-0.2000 0.6000 0.0000 (   852 PWs)   bands (ev):

    -8.8104   2.4097   3.9986   4.7791

          k = 0.7000-0.3000 0.9000 (   860 PWs)   bands (ev):

    -8.3866   1.6200   3.3403   4.5874

          k = 0.6000-0.2000 0.8000 (   857 PWs)   bands (ev):

    -8.1415   1.2452   2.8657   4.5797

          k = 0.5000-0.1000 0.7000 (   854 PWs)   bands (ev):

    -8.2244   1.5296   2.6435   4.8212

          k = 0.4000 0.0000 0.6000 (   855 PWs)   bands (ev):

    -8.5799   2.1387   3.0200   5.1991

          k = 0.8000-0.2000 1.0000 (   858 PWs)   bands (ev):

    -8.1221   1.0990   3.4485   4.0768

          k = 0.7000-0.1000 0.9000 (   854 PWs)   bands (ev):

    -7.9086   0.9642   2.7418   4.0891

          k = 0.6000 0.0000 0.8000 (   853 PWs)   bands (ev):

    -7.9537   1.4190   2.1111   4.3704

          k =-0.2000-1.0000 0.0000 (   854 PWs)   bands (ev):

    -7.8017   0.5190   3.2535   3.8409

          k = 0.6000-0.2000 1.0000 (   856 PWs)   bands (ev):

    -8.0575   1.4875   2.4132   4.3232

          k = 0.5000-0.1000 0.9000 (   864 PWs)   bands (ev):

    -7.9217   1.5403   1.9699   4.1928

          k =-0.4000-1.0000 0.0000 (   862 PWs)   bands (ev):

    -7.8267   1.1935   2.2001   3.9814

     highest occupied level (ev):     6.1763

!    total energy              =     -30.64348224 Ry
     estimated scf accuracy    <       0.00000044 Ry

     The total energy is the sum of the following terms:
     one-electron contribution =       1.52970334 Ry
     hartree contribution      =       3.82658061 Ry
     xc contribution           =      -6.58100015 Ry
     ewald contribution        =     -29.41876604 Ry

     convergence has been achieved in  15 iterations
     Writing meta-gga kinetic term

     Writing all to output data dir ./input_pw/LiCl/5/pwscf.save/
     Writing meta-gga kinetic term
 
     init_run     :      1.32s CPU      3.44s WALL (       1 calls)
     electrons    :     15.69s CPU     35.72s WALL (       1 calls)

     Called by init_run:
     wfcinit      :      1.21s CPU      3.11s WALL (       1 calls)
     potinit      :      0.01s CPU      0.06s WALL (       1 calls)
     hinit0       :      0.09s CPU      0.24s WALL (       1 calls)

     Called by electrons:
     c_bands      :     12.32s CPU     28.14s WALL (      15 calls)
     sum_band     :      3.04s CPU      6.76s WALL (      15 calls)
     v_of_rho     :      0.19s CPU      0.55s WALL (      16 calls)
     mix_rho      :      0.15s CPU      0.31s WALL (      15 calls)

     Called by c_bands:
     init_us_2    :      0.16s CPU      0.31s WALL (    1457 calls)
     init_us_2:cp :      0.16s CPU      0.31s WALL (    1457 calls)
     cegterg      :     12.16s CPU     27.79s WALL (     705 calls)

     Called by *egterg:
     cdiaghg      :      0.09s CPU      0.20s WALL (    1552 calls)
     h_psi        :     13.05s CPU     30.20s WALL (    1599 calls)
     g_psi        :      0.01s CPU      0.03s WALL (     847 calls)

     Called by h_psi:
     h_psi:calbec :      0.05s CPU      0.11s WALL (    1599 calls)
     vloc_psi     :      3.21s CPU      7.54s WALL (    1599 calls)
     add_vuspsi   :      0.04s CPU      0.14s WALL (    1599 calls)
     h_psi_meta   :      9.72s CPU     22.28s WALL (    1599 calls)

     General routines
     calbec       :      0.04s CPU      0.11s WALL (    1599 calls)
     fft          :      0.04s CPU      0.06s WALL (     189 calls)
     ffts         :      0.07s CPU      0.17s WALL (     318 calls)
     fftw         :     14.16s CPU     32.75s WALL (   65616 calls)
     interpolate  :      0.00s CPU      0.00s WALL (      16 calls)
 
     Parallel routines
 
     PWSCF        :     17.06s CPU     39.33s WALL

 
   This run was terminated on:  14:29:22  14Mar2023            

=------------------------------------------------------------------------------=
   JOB DONE.
=------------------------------------------------------------------------------=
