
     Program PWSCF v.7.0 starts on 29Mar2023 at 10:21:34 

     This program is part of the open-source Quantum ESPRESSO suite
     for quantum simulation of materials; please cite
         "P. Giannozzi et al., J. Phys.:Condens. Matter 21 395502 (2009);
         "P. Giannozzi et al., J. Phys.:Condens. Matter 29 465901 (2017);
         "P. Giannozzi et al., J. Chem. Phys. 152 154105 (2020);
          URL http://www.quantum-espresso.org", 
     in publications or presentations arising from this work. More details at
     http://www.quantum-espresso.org/quote

     Parallel version (MPI), running on     1 processors

     MPI processes distributed on     1 nodes
     24526 MiB available memory on the printing compute node when the environment starts
 
     Waiting for input...
     Reading input from standard input
Warning: card &CELL ignored
Warning: card / ignored

     Current dimensions of program PWSCF are:
     Max number of different atomic species (ntypx) = 10
     Max number of k-points (npk) =  40000
     Max angular momentum in pseudopotentials (lmaxx) =  4
     file Cl.SCAN.UPF2: wavefunction(s)  0D renormalized

     WARNING: the MGGA functional with ID    5 has been 
     read together with other dft terms, but it should 
     stand alone in order to work properly. The other 
     terms will be ignored.

     WARNING: the MGGA functional with ID    5 has been 
     read together with other dft terms, but it should 
     stand alone in order to work properly. The other 
     terms will be ignored.

     Subspace diagonalization in iterative solution of the eigenvalue problem:
     a serial algorithm will be used

 
     G-vector sticks info
     --------------------
     sticks:   dense  smooth     PW     G-vecs:    dense   smooth      PW
     Sum         595     595    199                 9841     9841    1807
 
     Using Slab Decomposition
 


     bravais-lattice index     =            2
     lattice parameter (alat)  =       9.3753  a.u.
     unit-cell volume          =     206.0156 (a.u.)^3
     number of atoms/cell      =            2
     number of atomic types    =            2
     number of electrons       =         8.00
     number of Kohn-Sham states=            4
     kinetic-energy cutoff     =      50.0000  Ry
     charge density cutoff     =     200.0000  Ry
     scf convergence threshold =      1.0E-06
     mixing beta               =       0.0100
     number of iterations used =            8  local-TF  mixing
     Exchange-correlation= SLA  PW   SCAN SCAN
                           (   0   0   0   0   0 263 267)

     celldm(1)=   9.375333  celldm(2)=   0.000000  celldm(3)=   0.000000
     celldm(4)=   0.000000  celldm(5)=   0.000000  celldm(6)=   0.000000

     crystal axes: (cart. coord. in units of alat)
               a(1) = (  -0.500000   0.000000   0.500000 )  
               a(2) = (   0.000000   0.500000   0.500000 )  
               a(3) = (  -0.500000   0.500000   0.000000 )  

     reciprocal axes: (cart. coord. in units 2 pi/alat)
               b(1) = ( -1.000000 -1.000000  1.000000 )  
               b(2) = (  1.000000  1.000000  1.000000 )  
               b(3) = ( -1.000000  1.000000 -1.000000 )  


     PseudoPot. # 1 for Li read from file:
     ~/Documents/TA/PWDFT.jl/pseudopotentials/scan_upf/Li.SCAN.UPF2
     MD5 check sum: Not computed, couldn't open file
     Pseudo is Norm-conserving, Zval =  1.0
     Generated by new atomic code, or converted to UPF format
     Using radial grid of 1321 points,  1 beta functions with: 
                l(1) =   0

     PseudoPot. # 2 for Cl read from file:
     ~/Documents/TA/PWDFT.jl/pseudopotentials/scan_upf/Cl.SCAN.UPF2
     MD5 check sum: Not computed, couldn't open file
     Pseudo is Norm-conserving, Zval =  7.0
     Generated by new atomic code, or converted to UPF format
     Using radial grid of 1493 points,  2 beta functions with: 
                l(1) =   0
                l(2) =   1

     atomic species   valence    mass     pseudopotential
        Li             1.00     6.94100     Li( 1.00)
        Cl             7.00    35.45300     Cl( 1.00)

     48 Sym. Ops., with inversion, found



   Cartesian axes

     site n.     atom                  positions (alat units)
         1           Li  tau(   1) = (   0.0000000   0.0000000   0.0000000  )
         2           Cl  tau(   2) = (   0.5000000   0.5000000   0.5000000  )

     number of k points=    47
                       cart. coord. in units 2pi/alat
        k(    1) = (   0.0000000   0.0000000   0.0000000), wk =   0.0020000
        k(    2) = (  -0.1000000   0.1000000  -0.1000000), wk =   0.0160000
        k(    3) = (  -0.2000000   0.2000000  -0.2000000), wk =   0.0160000
        k(    4) = (  -0.3000000   0.3000000  -0.3000000), wk =   0.0160000
        k(    5) = (  -0.4000000   0.4000000  -0.4000000), wk =   0.0160000
        k(    6) = (   0.5000000  -0.5000000   0.5000000), wk =   0.0080000
        k(    7) = (   0.0000000   0.2000000   0.0000000), wk =   0.0120000
        k(    8) = (  -0.1000000   0.3000000  -0.1000000), wk =   0.0480000
        k(    9) = (  -0.2000000   0.4000000  -0.2000000), wk =   0.0480000
        k(   10) = (  -0.3000000   0.5000000  -0.3000000), wk =   0.0480000
        k(   11) = (   0.6000000  -0.4000000   0.6000000), wk =   0.0480000
        k(   12) = (   0.5000000  -0.3000000   0.5000000), wk =   0.0480000
        k(   13) = (   0.4000000  -0.2000000   0.4000000), wk =   0.0480000
        k(   14) = (   0.3000000  -0.1000000   0.3000000), wk =   0.0480000
        k(   15) = (   0.2000000   0.0000000   0.2000000), wk =   0.0240000
        k(   16) = (   0.0000000   0.4000000   0.0000000), wk =   0.0120000
        k(   17) = (  -0.1000000   0.5000000  -0.1000000), wk =   0.0480000
        k(   18) = (  -0.2000000   0.6000000  -0.2000000), wk =   0.0480000
        k(   19) = (   0.7000000  -0.3000000   0.7000000), wk =   0.0480000
        k(   20) = (   0.6000000  -0.2000000   0.6000000), wk =   0.0480000
        k(   21) = (   0.5000000  -0.1000000   0.5000000), wk =   0.0480000
        k(   22) = (   0.4000000   0.0000000   0.4000000), wk =   0.0240000
        k(   23) = (   0.0000000   0.6000000   0.0000000), wk =   0.0120000
        k(   24) = (  -0.1000000   0.7000000  -0.1000000), wk =   0.0480000
        k(   25) = (   0.8000000  -0.2000000   0.8000000), wk =   0.0480000
        k(   26) = (   0.7000000  -0.1000000   0.7000000), wk =   0.0480000
        k(   27) = (   0.6000000  -0.0000000   0.6000000), wk =   0.0240000
        k(   28) = (   0.0000000   0.8000000   0.0000000), wk =   0.0120000
        k(   29) = (   0.9000000  -0.1000000   0.9000000), wk =   0.0480000
        k(   30) = (   0.8000000   0.0000000   0.8000000), wk =   0.0240000
        k(   31) = (   0.0000000  -1.0000000   0.0000000), wk =   0.0060000
        k(   32) = (  -0.2000000   0.4000000   0.0000000), wk =   0.0480000
        k(   33) = (  -0.3000000   0.5000000  -0.1000000), wk =   0.0960000
        k(   34) = (   0.6000000  -0.4000000   0.8000000), wk =   0.0960000
        k(   35) = (   0.5000000  -0.3000000   0.7000000), wk =   0.0480000
        k(   36) = (  -0.2000000   0.6000000   0.0000000), wk =   0.0480000
        k(   37) = (   0.7000000  -0.3000000   0.9000000), wk =   0.0960000
        k(   38) = (   0.6000000  -0.2000000   0.8000000), wk =   0.0960000
        k(   39) = (   0.5000000  -0.1000000   0.7000000), wk =   0.0960000
        k(   40) = (   0.4000000   0.0000000   0.6000000), wk =   0.0480000
        k(   41) = (   0.8000000  -0.2000000   1.0000000), wk =   0.0480000
        k(   42) = (   0.7000000  -0.1000000   0.9000000), wk =   0.0960000
        k(   43) = (   0.6000000   0.0000000   0.8000000), wk =   0.0480000
        k(   44) = (  -0.2000000  -1.0000000   0.0000000), wk =   0.0240000
        k(   45) = (   0.6000000  -0.2000000   1.0000000), wk =   0.0480000
        k(   46) = (   0.5000000  -0.1000000   0.9000000), wk =   0.0480000
        k(   47) = (  -0.4000000  -1.0000000   0.0000000), wk =   0.0240000

     Dense  grid:     9841 G-vectors     FFT dimensions: (  30,  30,  30)

     Estimated max dynamical RAM per process >      18.43 MB

     WARNING: libxc functional with ID  263 depends
      on external parameters: check the user_guide of
      QE if you need to modify them or to check their
      default values.

     Initial potential from superposition of free atoms

     starting charge       7.9953, renormalised to       8.0000
     Starting wfcs are   13 randomized atomic wfcs

     total cpu time spent up to now is        3.1 secs

     Self-consistent Calculation

     iteration #  1     ecut=    50.00 Ry     beta= 0.01
     Davidson diagonalization with overlap
     ethr =  1.00E-02,  avg # of iterations =  1.0

     total cpu time spent up to now is        5.8 secs

     total energy              =     -30.65151505 Ry
     estimated scf accuracy    <       0.35522611 Ry

     iteration #  2     ecut=    50.00 Ry     beta= 0.01
     Davidson diagonalization with overlap
     ethr =  4.44E-03,  avg # of iterations =  1.0

     total cpu time spent up to now is        8.4 secs

     total energy              =     -30.67262497 Ry
     estimated scf accuracy    <       0.33832658 Ry

     iteration #  3     ecut=    50.00 Ry     beta= 0.01
     Davidson diagonalization with overlap
     ethr =  4.23E-03,  avg # of iterations =  1.0

     total cpu time spent up to now is       11.0 secs

     total energy              =     -30.73568237 Ry
     estimated scf accuracy    <       0.25699216 Ry

     iteration #  4     ecut=    50.00 Ry     beta= 0.01
     Davidson diagonalization with overlap
     ethr =  3.21E-03,  avg # of iterations =  1.0

     total cpu time spent up to now is       13.7 secs

     total energy              =     -30.73812617 Ry
     estimated scf accuracy    <       0.00403546 Ry

     iteration #  5     ecut=    50.00 Ry     beta= 0.01
     Davidson diagonalization with overlap
     ethr =  5.04E-05,  avg # of iterations =  1.0

     total cpu time spent up to now is       16.3 secs

     total energy              =     -30.73816813 Ry
     estimated scf accuracy    <       0.00376444 Ry

     iteration #  6     ecut=    50.00 Ry     beta= 0.01
     Davidson diagonalization with overlap
     ethr =  4.71E-05,  avg # of iterations =  1.0

     total cpu time spent up to now is       18.8 secs

     total energy              =     -30.73657529 Ry
     estimated scf accuracy    <       0.00352307 Ry

     iteration #  7     ecut=    50.00 Ry     beta= 0.01
     Davidson diagonalization with overlap
     ethr =  4.40E-05,  avg # of iterations =  2.0

     total cpu time spent up to now is       23.1 secs

     total energy              =     -30.73788245 Ry
     estimated scf accuracy    <       0.00193077 Ry

     iteration #  8     ecut=    50.00 Ry     beta= 0.01
     Davidson diagonalization with overlap
     ethr =  2.41E-05,  avg # of iterations =  1.0

     total cpu time spent up to now is       25.9 secs

     total energy              =     -30.73793354 Ry
     estimated scf accuracy    <       0.00240429 Ry

     iteration #  9     ecut=    50.00 Ry     beta= 0.01
     Davidson diagonalization with overlap
     ethr =  2.41E-05,  avg # of iterations =  1.0

     total cpu time spent up to now is       28.0 secs

     total energy              =     -30.73788277 Ry
     estimated scf accuracy    <       0.00264105 Ry

     iteration # 10     ecut=    50.00 Ry     beta= 0.01
     Davidson diagonalization with overlap
     ethr =  2.41E-05,  avg # of iterations =  1.0

     total cpu time spent up to now is       29.8 secs

     total energy              =     -30.73737773 Ry
     estimated scf accuracy    <       0.00211168 Ry

     iteration # 11     ecut=    50.00 Ry     beta= 0.01
     Davidson diagonalization with overlap
     ethr =  2.41E-05,  avg # of iterations =  1.0

     total cpu time spent up to now is       32.2 secs

     total energy              =     -30.73753001 Ry
     estimated scf accuracy    <       0.00001123 Ry

     iteration # 12     ecut=    50.00 Ry     beta= 0.01
     Davidson diagonalization with overlap
     ethr =  1.40E-07,  avg # of iterations =  2.3

     total cpu time spent up to now is       36.0 secs

     total energy              =     -30.73753878 Ry
     estimated scf accuracy    <       0.00000319 Ry

     iteration # 13     ecut=    50.00 Ry     beta= 0.01
     Davidson diagonalization with overlap
     ethr =  3.99E-08,  avg # of iterations =  1.6

     total cpu time spent up to now is       38.0 secs

     total energy              =     -30.73753624 Ry
     estimated scf accuracy    <       0.00000746 Ry

     iteration # 14     ecut=    50.00 Ry     beta= 0.01
     Davidson diagonalization with overlap
     ethr =  3.99E-08,  avg # of iterations =  2.0

     total cpu time spent up to now is       40.6 secs

     End of self-consistent calculation

          k = 0.0000 0.0000 0.0000 (  1243 PWs)   bands (ev):

   -12.3802   1.9007   1.9007   1.9007

          k =-0.1000 0.1000-0.1000 (  1242 PWs)   bands (ev):

   -12.3143   1.5028   1.8678   1.8678

          k =-0.2000 0.2000-0.2000 (  1239 PWs)   bands (ev):

   -12.1341   0.5839   1.7851   1.7851

          k =-0.3000 0.3000-0.3000 (  1233 PWs)   bands (ev):

   -11.8939  -0.4047   1.6895   1.6895

          k =-0.4000 0.4000-0.4000 (  1221 PWs)   bands (ev):

   -11.6822  -1.1369   1.6169   1.6169

          k = 0.5000-0.5000 0.5000 (  1224 PWs)   bands (ev):

   -11.5967  -1.4064   1.5903   1.5903

          k = 0.0000 0.2000 0.0000 (  1239 PWs)   bands (ev):

   -12.2918   1.5618   1.7538   1.7538

          k =-0.1000 0.3000-0.1000 (  1245 PWs)   bands (ev):

   -12.1485   0.8516   1.6088   1.7020

          k =-0.2000 0.4000-0.2000 (  1233 PWs)   bands (ev):

   -11.9253  -0.0970   1.4909   1.5862

          k =-0.3000 0.5000-0.3000 (  1234 PWs)   bands (ev):

   -11.6994  -0.8968   1.4198   1.4416

          k = 0.6000-0.4000 0.6000 (  1223 PWs)   bands (ev):

   -11.5675  -1.3102   1.2702   1.4754

          k = 0.5000-0.3000 0.5000 (  1222 PWs)   bands (ev):

   -11.5967  -1.2170   1.1919   1.5796

          k = 0.4000-0.2000 0.4000 (  1233 PWs)   bands (ev):

   -11.7716  -0.6472   1.2149   1.7188

          k = 0.3000-0.1000 0.3000 (  1232 PWs)   bands (ev):

   -12.0070   0.2209   1.3466   1.8428

          k = 0.2000 0.0000 0.2000 (  1249 PWs)   bands (ev):

   -12.2098   1.0640   1.5908   1.9018

          k = 0.0000 0.4000 0.0000 (  1243 PWs)   bands (ev):

   -12.0460   0.7035   1.3929   1.3929

          k =-0.1000 0.5000-0.1000 (  1238 PWs)   bands (ev):

   -11.8559   0.0176   1.2054   1.2205

          k =-0.2000 0.6000-0.2000 (  1244 PWs)   bands (ev):

   -11.6415  -0.6752   0.9252   1.1479

          k = 0.7000-0.3000 0.7000 (  1225 PWs)   bands (ev):

   -11.4886  -1.0924   0.6158   1.1961

          k = 0.6000-0.2000 0.6000 (  1224 PWs)   bands (ev):

   -11.4709  -1.0991   0.4030   1.3507

          k = 0.5000-0.1000 0.5000 (  1232 PWs)   bands (ev):

   -11.5970  -0.7181   0.3930   1.5626

          k = 0.4000 0.0000 0.4000 (  1235 PWs)   bands (ev):

   -11.8048  -0.1952   0.7203   1.7542

          k = 0.0000 0.6000 0.0000 (  1238 PWs)   bands (ev):

   -11.7060  -0.3379   0.9866   0.9866

          k =-0.1000 0.7000-0.1000 (  1240 PWs)   bands (ev):

   -11.5257  -0.8183   0.7121   0.8639

          k = 0.8000-0.2000 0.8000 (  1226 PWs)   bands (ev):

   -11.3855  -1.0667   0.2629   0.8857

          k = 0.7000-0.1000 0.7000 (  1226 PWs)   bands (ev):

   -11.3491  -0.9437  -0.2057   1.0466

          k = 0.6000-0.0000 0.6000 (  1220 PWs)   bands (ev):

   -11.4330  -0.6086  -0.3689   1.3012

          k = 0.0000 0.8000 0.0000 (  1238 PWs)   bands (ev):

   -11.3930  -1.1879   0.6841   0.6841

          k = 0.9000-0.1000 0.9000 (  1233 PWs)   bands (ev):

   -11.2971  -1.3641   0.4350   0.6568

          k = 0.8000 0.0000 0.8000 (  1230 PWs)   bands (ev):

   -11.2804  -1.2098  -0.0021   0.7889

          k = 0.0000-1.0000 0.0000 (  1234 PWs)   bands (ev):

   -11.2620  -1.5180   0.5738   0.5738

          k =-0.2000 0.4000 0.0000 (  1238 PWs)   bands (ev):

   -11.9816   0.3267   1.1940   1.6606

          k =-0.3000 0.5000-0.1000 (  1240 PWs)   bands (ev):

   -11.7606  -0.3857   0.8792   1.5452

          k = 0.6000-0.4000 0.8000 (  1229 PWs)   bands (ev):

   -11.5673  -0.9786   0.7311   1.3991

          k = 0.5000-0.3000 0.7000 (  1226 PWs)   bands (ev):

   -11.4896  -1.2048   0.6914   1.3324

          k =-0.2000 0.6000 0.0000 (  1238 PWs)   bands (ev):

   -11.6688  -0.4516   0.7523   1.1594

          k = 0.7000-0.3000 0.9000 (  1229 PWs)   bands (ev):

   -11.4872  -0.8469   0.3681   1.0439

          k = 0.6000-0.2000 0.8000 (  1222 PWs)   bands (ev):

   -11.3887  -0.9961   0.0604   1.0349

          k = 0.5000-0.1000 0.7000 (  1227 PWs)   bands (ev):

   -11.4208  -0.8471  -0.0712   1.1735

          k = 0.4000 0.0000 0.6000 (  1228 PWs)   bands (ev):

   -11.5671  -0.6007   0.2069   1.3848

          k = 0.8000-0.2000 1.0000 (  1236 PWs)   bands (ev):

   -11.3837  -1.1012   0.4264   0.7459

          k = 0.7000-0.1000 0.9000 (  1225 PWs)   bands (ev):

   -11.3017  -1.1030  -0.0045   0.7415

          k = 0.6000 0.0000 0.8000 (  1221 PWs)   bands (ev):

   -11.3169  -0.7782  -0.4511   0.9102

          k =-0.2000-1.0000 0.0000 (  1222 PWs)   bands (ev):

   -11.2651  -1.3628   0.3081   0.5965

          k = 0.6000-0.2000 1.0000 (  1219 PWs)   bands (ev):

   -11.3562  -0.8449  -0.1645   0.8662

          k = 0.5000-0.1000 0.9000 (  1222 PWs)   bands (ev):

   -11.3047  -0.7432  -0.4521   0.7750

          k =-0.4000-1.0000 0.0000 (  1224 PWs)   bands (ev):

   -11.2706  -0.9240  -0.2980   0.6333

     highest occupied level (ev):     1.9018

!    total energy              =     -30.73753760 Ry
     estimated scf accuracy    <       0.00000046 Ry

     The total energy is the sum of the following terms:
     one-electron contribution =      -3.62113785 Ry
     hartree contribution      =       5.36378899 Ry
     xc contribution           =      -6.40118377 Ry
     ewald contribution        =     -26.07900496 Ry

     convergence has been achieved in  14 iterations
     Writing meta-gga kinetic term

     Writing all to output data dir ./input_pw/LiCl/5/pwscf.save/
     Writing meta-gga kinetic term
 
     init_run     :      1.76s CPU      3.01s WALL (       1 calls)
     electrons    :     20.24s CPU     37.56s WALL (       1 calls)

     Called by init_run:
     wfcinit      :      1.63s CPU      2.73s WALL (       1 calls)
     potinit      :      0.03s CPU      0.05s WALL (       1 calls)
     hinit0       :      0.09s CPU      0.22s WALL (       1 calls)

     Called by electrons:
     c_bands      :     15.94s CPU     30.06s WALL (      14 calls)
     sum_band     :      3.82s CPU      6.66s WALL (      14 calls)
     v_of_rho     :      0.25s CPU      0.45s WALL (      15 calls)
     mix_rho      :      0.23s CPU      0.41s WALL (      14 calls)

     Called by c_bands:
     init_us_2    :      0.22s CPU      0.37s WALL (    1363 calls)
     init_us_2:cp :      0.21s CPU      0.35s WALL (    1363 calls)
     cegterg      :     15.74s CPU     29.63s WALL (     658 calls)

     Called by *egterg:
     cdiaghg      :      0.09s CPU      0.17s WALL (    1501 calls)
     h_psi        :     16.96s CPU     31.65s WALL (    1548 calls)
     g_psi        :      0.01s CPU      0.05s WALL (     843 calls)

     Called by h_psi:
     h_psi:calbec :      0.06s CPU      0.13s WALL (    1548 calls)
     vloc_psi     :      4.18s CPU      7.78s WALL (    1548 calls)
     add_vuspsi   :      0.06s CPU      0.11s WALL (    1548 calls)
     h_psi_meta   :     12.63s CPU     23.55s WALL (    1548 calls)

     General routines
     calbec       :      0.06s CPU      0.13s WALL (    1548 calls)
     fft          :      0.05s CPU      0.08s WALL (     177 calls)
     ffts         :      0.10s CPU      0.20s WALL (     321 calls)
     fftw         :     18.02s CPU     33.41s WALL (   62400 calls)
     interpolate  :      0.00s CPU      0.01s WALL (      15 calls)
 
     Parallel routines
 
     PWSCF        :     22.05s CPU     40.67s WALL

 
   This run was terminated on:  10:22:14  29Mar2023            

=------------------------------------------------------------------------------=
   JOB DONE.
=------------------------------------------------------------------------------=
