
     Program PWSCF v.7.0 starts on  7Jul2023 at 14:24:17 

     This program is part of the open-source Quantum ESPRESSO suite
     for quantum simulation of materials; please cite
         "P. Giannozzi et al., J. Phys.:Condens. Matter 21 395502 (2009);
         "P. Giannozzi et al., J. Phys.:Condens. Matter 29 465901 (2017);
         "P. Giannozzi et al., J. Chem. Phys. 152 154105 (2020);
          URL http://www.quantum-espresso.org", 
     in publications or presentations arising from this work. More details at
     http://www.quantum-espresso.org/quote

     Parallel version (MPI), running on     1 processors

     MPI processes distributed on     1 nodes
     27411 MiB available memory on the printing compute node when the environment starts
 
     Waiting for input...
     Reading input from standard input
Warning: card &CELL ignored
Warning: card / ignored

     Current dimensions of program PWSCF are:
     Max number of different atomic species (ntypx) = 10
     Max number of k-points (npk) =  40000
     Max angular momentum in pseudopotentials (lmaxx) =  4
     file Cl.SCAN.UPF2: wavefunction(s)  0D renormalized

     WARNING: the MGGA functional with ID    5 has been 
     read together with other dft terms, but it should 
     stand alone in order to work properly. The other 
     terms will be ignored.

     WARNING: the MGGA functional with ID    5 has been 
     read together with other dft terms, but it should 
     stand alone in order to work properly. The other 
     terms will be ignored.

     Subspace diagonalization in iterative solution of the eigenvalue problem:
     a serial algorithm will be used

 
     G-vector sticks info
     --------------------
     sticks:   dense  smooth     PW     G-vecs:    dense   smooth      PW
     Sum         595     595    199                 9841     9841    1807
 
     Using Slab Decomposition
 


     bravais-lattice index     =            2
     lattice parameter (alat)  =       9.3753  a.u.
     unit-cell volume          =     206.0144 (a.u.)^3
     number of atoms/cell      =            2
     number of atomic types    =            2
     number of electrons       =         8.00
     number of Kohn-Sham states=            4
     kinetic-energy cutoff     =      50.0000  Ry
     charge density cutoff     =     200.0000  Ry
     scf convergence threshold =      2.0E-05
     mixing beta               =       0.2000
     number of iterations used =            8  local-TF  mixing
     Exchange-correlation= SLA  PW   SCAN SCAN
                           (   0   0   0   0   0 263 267)

     celldm(1)=   9.375314  celldm(2)=   0.000000  celldm(3)=   0.000000
     celldm(4)=   0.000000  celldm(5)=   0.000000  celldm(6)=   0.000000

     crystal axes: (cart. coord. in units of alat)
               a(1) = (  -0.500000   0.000000   0.500000 )  
               a(2) = (   0.000000   0.500000   0.500000 )  
               a(3) = (  -0.500000   0.500000   0.000000 )  

     reciprocal axes: (cart. coord. in units 2 pi/alat)
               b(1) = ( -1.000000 -1.000000  1.000000 )  
               b(2) = (  1.000000  1.000000  1.000000 )  
               b(3) = ( -1.000000  1.000000 -1.000000 )  


     PseudoPot. # 1 for Li read from file:
     ~/Documents/TA/PWDFT.jl/pseudopotentials/scan_upf/Li.SCAN.UPF2
     MD5 check sum: Not computed, couldn't open file
     Pseudo is Norm-conserving, Zval =  1.0
     Generated by new atomic code, or converted to UPF format
     Using radial grid of 1321 points,  1 beta functions with: 
                l(1) =   0

     PseudoPot. # 2 for Cl read from file:
     ~/Documents/TA/PWDFT.jl/pseudopotentials/scan_upf/Cl.SCAN.UPF2
     MD5 check sum: Not computed, couldn't open file
     Pseudo is Norm-conserving, Zval =  7.0
     Generated by new atomic code, or converted to UPF format
     Using radial grid of 1493 points,  2 beta functions with: 
                l(1) =   0
                l(2) =   1

     atomic species   valence    mass     pseudopotential
        Li             1.00     6.94100     Li( 1.00)
        Cl             7.00    35.45300     Cl( 1.00)

     48 Sym. Ops., with inversion, found



   Cartesian axes

     site n.     atom                  positions (alat units)
         1           Li  tau(   1) = (   0.0000000   0.0000000   0.0000000  )
         2           Cl  tau(   2) = (   0.5000000   0.5000000   0.5000000  )

     number of k points=    47
                       cart. coord. in units 2pi/alat
        k(    1) = (   0.0000000   0.0000000   0.0000000), wk =   0.0020000
        k(    2) = (  -0.1000000   0.1000000  -0.1000000), wk =   0.0160000
        k(    3) = (  -0.2000000   0.2000000  -0.2000000), wk =   0.0160000
        k(    4) = (  -0.3000000   0.3000000  -0.3000000), wk =   0.0160000
        k(    5) = (  -0.4000000   0.4000000  -0.4000000), wk =   0.0160000
        k(    6) = (   0.5000000  -0.5000000   0.5000000), wk =   0.0080000
        k(    7) = (   0.0000000   0.2000000   0.0000000), wk =   0.0120000
        k(    8) = (  -0.1000000   0.3000000  -0.1000000), wk =   0.0480000
        k(    9) = (  -0.2000000   0.4000000  -0.2000000), wk =   0.0480000
        k(   10) = (  -0.3000000   0.5000000  -0.3000000), wk =   0.0480000
        k(   11) = (   0.6000000  -0.4000000   0.6000000), wk =   0.0480000
        k(   12) = (   0.5000000  -0.3000000   0.5000000), wk =   0.0480000
        k(   13) = (   0.4000000  -0.2000000   0.4000000), wk =   0.0480000
        k(   14) = (   0.3000000  -0.1000000   0.3000000), wk =   0.0480000
        k(   15) = (   0.2000000   0.0000000   0.2000000), wk =   0.0240000
        k(   16) = (   0.0000000   0.4000000   0.0000000), wk =   0.0120000
        k(   17) = (  -0.1000000   0.5000000  -0.1000000), wk =   0.0480000
        k(   18) = (  -0.2000000   0.6000000  -0.2000000), wk =   0.0480000
        k(   19) = (   0.7000000  -0.3000000   0.7000000), wk =   0.0480000
        k(   20) = (   0.6000000  -0.2000000   0.6000000), wk =   0.0480000
        k(   21) = (   0.5000000  -0.1000000   0.5000000), wk =   0.0480000
        k(   22) = (   0.4000000   0.0000000   0.4000000), wk =   0.0240000
        k(   23) = (   0.0000000   0.6000000   0.0000000), wk =   0.0120000
        k(   24) = (  -0.1000000   0.7000000  -0.1000000), wk =   0.0480000
        k(   25) = (   0.8000000  -0.2000000   0.8000000), wk =   0.0480000
        k(   26) = (   0.7000000  -0.1000000   0.7000000), wk =   0.0480000
        k(   27) = (   0.6000000  -0.0000000   0.6000000), wk =   0.0240000
        k(   28) = (   0.0000000   0.8000000   0.0000000), wk =   0.0120000
        k(   29) = (   0.9000000  -0.1000000   0.9000000), wk =   0.0480000
        k(   30) = (   0.8000000   0.0000000   0.8000000), wk =   0.0240000
        k(   31) = (   0.0000000  -1.0000000   0.0000000), wk =   0.0060000
        k(   32) = (  -0.2000000   0.4000000   0.0000000), wk =   0.0480000
        k(   33) = (  -0.3000000   0.5000000  -0.1000000), wk =   0.0960000
        k(   34) = (   0.6000000  -0.4000000   0.8000000), wk =   0.0960000
        k(   35) = (   0.5000000  -0.3000000   0.7000000), wk =   0.0480000
        k(   36) = (  -0.2000000   0.6000000   0.0000000), wk =   0.0480000
        k(   37) = (   0.7000000  -0.3000000   0.9000000), wk =   0.0960000
        k(   38) = (   0.6000000  -0.2000000   0.8000000), wk =   0.0960000
        k(   39) = (   0.5000000  -0.1000000   0.7000000), wk =   0.0960000
        k(   40) = (   0.4000000   0.0000000   0.6000000), wk =   0.0480000
        k(   41) = (   0.8000000  -0.2000000   1.0000000), wk =   0.0480000
        k(   42) = (   0.7000000  -0.1000000   0.9000000), wk =   0.0960000
        k(   43) = (   0.6000000   0.0000000   0.8000000), wk =   0.0480000
        k(   44) = (  -0.2000000  -1.0000000   0.0000000), wk =   0.0240000
        k(   45) = (   0.6000000  -0.2000000   1.0000000), wk =   0.0480000
        k(   46) = (   0.5000000  -0.1000000   0.9000000), wk =   0.0480000
        k(   47) = (  -0.4000000  -1.0000000   0.0000000), wk =   0.0240000

     Dense  grid:     9841 G-vectors     FFT dimensions: (  30,  30,  30)

     Estimated max dynamical RAM per process >      18.43 MB

     WARNING: libxc functional with ID  263 depends
      on external parameters: check the user_guide of
      QE if you need to modify them or to check their
      default values.

     Initial potential from superposition of free atoms

     starting charge       7.9953, renormalised to       8.0000
     Starting wfcs are   13 randomized atomic wfcs

     total cpu time spent up to now is        4.0 secs

     Self-consistent Calculation

     iteration #  1     ecut=    50.00 Ry     beta= 0.20
     Davidson diagonalization with overlap
     ethr =  1.00E-02,  avg # of iterations =  1.0

     total cpu time spent up to now is        6.9 secs

     total energy              =     -30.69648982 Ry
     estimated scf accuracy    <       0.35522620 Ry

     iteration #  2     ecut=    50.00 Ry     beta= 0.20
     Davidson diagonalization with overlap
     ethr =  4.44E-03,  avg # of iterations =  1.0

     total cpu time spent up to now is        9.7 secs

     total energy              =     -30.73358182 Ry
     estimated scf accuracy    <       0.22991824 Ry

     iteration #  3     ecut=    50.00 Ry     beta= 0.20
     Davidson diagonalization with overlap
     ethr =  2.87E-03,  avg # of iterations =  1.0

     total cpu time spent up to now is       12.5 secs

     total energy              =     -30.73702546 Ry
     estimated scf accuracy    <       0.00174895 Ry

     iteration #  4     ecut=    50.00 Ry     beta= 0.20
     Davidson diagonalization with overlap
     ethr =  2.19E-05,  avg # of iterations =  2.0

     total cpu time spent up to now is       16.1 secs

     total energy              =     -30.73737804 Ry
     estimated scf accuracy    <       0.00102806 Ry

     iteration #  5     ecut=    50.00 Ry     beta= 0.20
     Davidson diagonalization with overlap
     ethr =  1.29E-05,  avg # of iterations =  1.0

     total cpu time spent up to now is       18.2 secs

     total energy              =     -30.73747684 Ry
     estimated scf accuracy    <       0.00023366 Ry

     iteration #  6     ecut=    50.00 Ry     beta= 0.20
     Davidson diagonalization with overlap
     ethr =  2.92E-06,  avg # of iterations =  2.0

     total cpu time spent up to now is       21.2 secs

     total energy              =     -30.73753282 Ry
     estimated scf accuracy    <       0.00004162 Ry

     iteration #  7     ecut=    50.00 Ry     beta= 0.20
     Davidson diagonalization with overlap
     ethr =  5.20E-07,  avg # of iterations =  1.0

     total cpu time spent up to now is       22.7 secs

     End of self-consistent calculation

          k = 0.0000 0.0000 0.0000 (  1243 PWs)   bands (ev):

   -12.3763   1.9044   1.9044   1.9044

          k =-0.1000 0.1000-0.1000 (  1242 PWs)   bands (ev):

   -12.3104   1.5062   1.8715   1.8715

          k =-0.2000 0.2000-0.2000 (  1239 PWs)   bands (ev):

   -12.1302   0.5867   1.7888   1.7888

          k =-0.3000 0.3000-0.3000 (  1233 PWs)   bands (ev):

   -11.8898  -0.4025   1.6931   1.6931

          k =-0.4000 0.4000-0.4000 (  1221 PWs)   bands (ev):

   -11.6780  -1.1350   1.6205   1.6205

          k = 0.5000-0.5000 0.5000 (  1224 PWs)   bands (ev):

   -11.5924  -1.4046   1.5939   1.5939

          k = 0.0000 0.2000 0.0000 (  1239 PWs)   bands (ev):

   -12.2879   1.5652   1.7574   1.7574

          k =-0.1000 0.3000-0.1000 (  1245 PWs)   bands (ev):

   -12.1446   0.8545   1.6124   1.7056

          k =-0.2000 0.4000-0.2000 (  1233 PWs)   bands (ev):

   -11.9212  -0.0946   1.4943   1.5897

          k =-0.3000 0.5000-0.3000 (  1234 PWs)   bands (ev):

   -11.6952  -0.8948   1.4231   1.4450

          k = 0.6000-0.4000 0.6000 (  1223 PWs)   bands (ev):

   -11.5632  -1.3084   1.2735   1.4789

          k = 0.5000-0.3000 0.5000 (  1222 PWs)   bands (ev):

   -11.5925  -1.2151   1.1951   1.5832

          k = 0.4000-0.2000 0.4000 (  1233 PWs)   bands (ev):

   -11.7674  -0.6451   1.2182   1.7224

          k = 0.3000-0.1000 0.3000 (  1232 PWs)   bands (ev):

   -12.0030   0.2235   1.3499   1.8465

          k = 0.2000 0.0000 0.2000 (  1249 PWs)   bands (ev):

   -12.2059   1.0671   1.5943   1.9055

          k = 0.0000 0.4000 0.0000 (  1243 PWs)   bands (ev):

   -12.0420   0.7062   1.3963   1.3963

          k =-0.1000 0.5000-0.1000 (  1238 PWs)   bands (ev):

   -11.8518   0.0201   1.2086   1.2238

          k =-0.2000 0.6000-0.2000 (  1244 PWs)   bands (ev):

   -11.6373  -0.6731   0.9282   1.1512

          k = 0.7000-0.3000 0.7000 (  1225 PWs)   bands (ev):

   -11.4843  -1.0905   0.6185   1.1994

          k = 0.6000-0.2000 0.6000 (  1224 PWs)   bands (ev):

   -11.4665  -1.0972   0.4056   1.3541

          k = 0.5000-0.1000 0.5000 (  1232 PWs)   bands (ev):

   -11.5928  -0.7161   0.3956   1.5661

          k = 0.4000 0.0000 0.4000 (  1235 PWs)   bands (ev):

   -11.8007  -0.1929   0.7231   1.7579

          k = 0.0000 0.6000 0.0000 (  1238 PWs)   bands (ev):

   -11.7018  -0.3357   0.9898   0.9898

          k =-0.1000 0.7000-0.1000 (  1240 PWs)   bands (ev):

   -11.5214  -0.8163   0.7150   0.8669

          k = 0.8000-0.2000 0.8000 (  1226 PWs)   bands (ev):

   -11.3811  -1.0649   0.2655   0.8888

          k = 0.7000-0.1000 0.7000 (  1226 PWs)   bands (ev):

   -11.3447  -0.9418  -0.2034   1.0498

          k = 0.6000-0.0000 0.6000 (  1220 PWs)   bands (ev):

   -11.4286  -0.6065  -0.3668   1.3045

          k = 0.0000 0.8000 0.0000 (  1238 PWs)   bands (ev):

   -11.3887  -1.1862   0.6871   0.6871

          k = 0.9000-0.1000 0.9000 (  1233 PWs)   bands (ev):

   -11.2926  -1.3625   0.4378   0.6598

          k = 0.8000 0.0000 0.8000 (  1230 PWs)   bands (ev):

   -11.2760  -1.2081   0.0004   0.7919

          k = 0.0000-1.0000 0.0000 (  1234 PWs)   bands (ev):

   -11.2575  -1.5165   0.5768   0.5768

          k =-0.2000 0.4000 0.0000 (  1238 PWs)   bands (ev):

   -11.9776   0.3293   1.1972   1.6642

          k =-0.3000 0.5000-0.1000 (  1240 PWs)   bands (ev):

   -11.7564  -0.3835   0.8822   1.5487

          k = 0.6000-0.4000 0.8000 (  1229 PWs)   bands (ev):

   -11.5630  -0.9766   0.7340   1.4025

          k = 0.5000-0.3000 0.7000 (  1226 PWs)   bands (ev):

   -11.4853  -1.2029   0.6942   1.3358

          k =-0.2000 0.6000 0.0000 (  1238 PWs)   bands (ev):

   -11.6646  -0.4494   0.7553   1.1627

          k = 0.7000-0.3000 0.9000 (  1229 PWs)   bands (ev):

   -11.4829  -0.8449   0.3707   1.0470

          k = 0.6000-0.2000 0.8000 (  1222 PWs)   bands (ev):

   -11.3843  -0.9942   0.0628   1.0381

          k = 0.5000-0.1000 0.7000 (  1227 PWs)   bands (ev):

   -11.4165  -0.8451  -0.0689   1.1768

          k = 0.4000 0.0000 0.6000 (  1228 PWs)   bands (ev):

   -11.5628  -0.5986   0.2094   1.3882

          k = 0.8000-0.2000 1.0000 (  1236 PWs)   bands (ev):

   -11.3793  -1.0994   0.4291   0.7489

          k = 0.7000-0.1000 0.9000 (  1225 PWs)   bands (ev):

   -11.2973  -1.1012  -0.0021   0.7445

          k = 0.6000 0.0000 0.8000 (  1221 PWs)   bands (ev):

   -11.3125  -0.7763  -0.4489   0.9133

          k =-0.2000-1.0000 0.0000 (  1222 PWs)   bands (ev):

   -11.2606  -1.3611   0.3108   0.5995

          k = 0.6000-0.2000 1.0000 (  1219 PWs)   bands (ev):

   -11.3518  -0.8429  -0.1622   0.8693

          k = 0.5000-0.1000 0.9000 (  1222 PWs)   bands (ev):

   -11.3002  -0.7412  -0.4500   0.7780

          k =-0.4000-1.0000 0.0000 (  1224 PWs)   bands (ev):

   -11.2662  -0.9222  -0.2957   0.6362

     highest occupied level (ev):     1.9055

!    total energy              =     -30.73753612 Ry
     estimated scf accuracy    <       0.00000517 Ry

     The total energy is the sum of the following terms:
     one-electron contribution =      -3.61914390 Ry
     hartree contribution      =       5.36111745 Ry
     xc contribution           =      -6.40045121 Ry
     ewald contribution        =     -26.07905845 Ry

     convergence has been achieved in   7 iterations
     Writing meta-gga kinetic term

     Writing all to output data dir ./input_pw/LiCl/5/pwscf.save/
     Writing meta-gga kinetic term
 
     init_run     :      1.77s CPU      3.95s WALL (       1 calls)
     electrons    :     10.17s CPU     18.62s WALL (       1 calls)

     Called by init_run:
     wfcinit      :      1.64s CPU      3.68s WALL (       1 calls)
     potinit      :      0.02s CPU      0.06s WALL (       1 calls)
     hinit0       :      0.09s CPU      0.18s WALL (       1 calls)

     Called by electrons:
     c_bands      :      8.05s CPU     15.01s WALL (       7 calls)
     sum_band     :      1.90s CPU      3.25s WALL (       7 calls)
     v_of_rho     :      0.14s CPU      0.25s WALL (       8 calls)
     mix_rho      :      0.10s CPU      0.17s WALL (       7 calls)

     Called by c_bands:
     init_us_2    :      0.11s CPU      0.20s WALL (     705 calls)
     init_us_2:cp :      0.11s CPU      0.19s WALL (     705 calls)
     cegterg      :      7.95s CPU     14.84s WALL (     329 calls)

     Called by *egterg:
     cdiaghg      :      0.05s CPU      0.06s WALL (     753 calls)
     h_psi        :      9.36s CPU     18.10s WALL (     800 calls)
     g_psi        :      0.01s CPU      0.01s WALL (     424 calls)

     Called by h_psi:
     h_psi:calbec :      0.03s CPU      0.05s WALL (     800 calls)
     vloc_psi     :      2.31s CPU      4.60s WALL (     800 calls)
     add_vuspsi   :      0.03s CPU      0.04s WALL (     800 calls)
     h_psi_meta   :      6.97s CPU     13.37s WALL (     800 calls)

     General routines
     calbec       :      0.03s CPU      0.04s WALL (     800 calls)
     fft          :      0.03s CPU      0.09s WALL (      93 calls)
     ffts         :      0.04s CPU      0.08s WALL (     148 calls)
     fftw         :      9.85s CPU     18.71s WALL (   34016 calls)
     interpolate  :      0.00s CPU      0.00s WALL (       8 calls)
 
     Parallel routines
 
     PWSCF        :     12.01s CPU     22.69s WALL

 
   This run was terminated on:  14:24:40   7Jul2023            

=------------------------------------------------------------------------------=
   JOB DONE.
=------------------------------------------------------------------------------=
