
     Program PWSCF v.7.0 starts on 29Mar2023 at 11:31: 5 

     This program is part of the open-source Quantum ESPRESSO suite
     for quantum simulation of materials; please cite
         "P. Giannozzi et al., J. Phys.:Condens. Matter 21 395502 (2009);
         "P. Giannozzi et al., J. Phys.:Condens. Matter 29 465901 (2017);
         "P. Giannozzi et al., J. Chem. Phys. 152 154105 (2020);
          URL http://www.quantum-espresso.org", 
     in publications or presentations arising from this work. More details at
     http://www.quantum-espresso.org/quote

     Parallel version (MPI), running on     1 processors

     MPI processes distributed on     1 nodes
     23875 MiB available memory on the printing compute node when the environment starts
 
     Waiting for input...
     Reading input from standard input
Warning: card &CELL ignored
Warning: card / ignored

     Current dimensions of program PWSCF are:
     Max number of different atomic species (ntypx) = 10
     Max number of k-points (npk) =  40000
     Max angular momentum in pseudopotentials (lmaxx) =  4
     file Si.SCAN.UPF2: wavefunction(s)  0D renormalized

     WARNING: the MGGA functional with ID    5 has been 
     read together with other dft terms, but it should 
     stand alone in order to work properly. The other 
     terms will be ignored.

     Subspace diagonalization in iterative solution of the eigenvalue problem:
     a serial algorithm will be used

 
     G-vector sticks info
     --------------------
     sticks:   dense  smooth     PW     G-vecs:    dense   smooth      PW
     Sum         649     649    199                10777    10777    1893
 
     Using Slab Decomposition
 


     bravais-lattice index     =            2
     lattice parameter (alat)  =       9.6459  a.u.
     unit-cell volume          =     224.3731 (a.u.)^3
     number of atoms/cell      =            2
     number of atomic types    =            1
     number of electrons       =         8.00
     number of Kohn-Sham states=            4
     kinetic-energy cutoff     =      50.0000  Ry
     charge density cutoff     =     200.0000  Ry
     scf convergence threshold =      1.0E-06
     mixing beta               =       0.0100
     number of iterations used =            8  local-TF  mixing
     Exchange-correlation= SLA  PW   SCAN SCAN
                           (   0   0   0   0   0 263 267)

     celldm(1)=   9.645918  celldm(2)=   0.000000  celldm(3)=   0.000000
     celldm(4)=   0.000000  celldm(5)=   0.000000  celldm(6)=   0.000000

     crystal axes: (cart. coord. in units of alat)
               a(1) = (  -0.500000   0.000000   0.500000 )  
               a(2) = (   0.000000   0.500000   0.500000 )  
               a(3) = (  -0.500000   0.500000   0.000000 )  

     reciprocal axes: (cart. coord. in units 2 pi/alat)
               b(1) = ( -1.000000 -1.000000  1.000000 )  
               b(2) = (  1.000000  1.000000  1.000000 )  
               b(3) = ( -1.000000  1.000000 -1.000000 )  


     PseudoPot. # 1 for Si read from file:
     ~/Documents/TA/PWDFT.jl/pseudopotentials/scan_upf/Si.SCAN.UPF2
     MD5 check sum: Not computed, couldn't open file
     Pseudo is Norm-conserving, Zval =  4.0
     Generated by new atomic code, or converted to UPF format
     Using radial grid of 1475 points,  2 beta functions with: 
                l(1) =   0
                l(2) =   1

     atomic species   valence    mass     pseudopotential
        Si             4.00    28.08550     Si( 1.00)

     48 Sym. Ops., with inversion, found (24 have fractional translation)



   Cartesian axes

     site n.     atom                  positions (alat units)
         1           Si  tau(   1) = (   0.0000000   0.0000000   0.0000000  )
         2           Si  tau(   2) = (   0.2500000   0.2500000   0.2500000  )

     number of k points=    47
                       cart. coord. in units 2pi/alat
        k(    1) = (   0.0000000   0.0000000   0.0000000), wk =   0.0020000
        k(    2) = (  -0.1000000   0.1000000  -0.1000000), wk =   0.0160000
        k(    3) = (  -0.2000000   0.2000000  -0.2000000), wk =   0.0160000
        k(    4) = (  -0.3000000   0.3000000  -0.3000000), wk =   0.0160000
        k(    5) = (  -0.4000000   0.4000000  -0.4000000), wk =   0.0160000
        k(    6) = (   0.5000000  -0.5000000   0.5000000), wk =   0.0080000
        k(    7) = (   0.0000000   0.2000000   0.0000000), wk =   0.0120000
        k(    8) = (  -0.1000000   0.3000000  -0.1000000), wk =   0.0480000
        k(    9) = (  -0.2000000   0.4000000  -0.2000000), wk =   0.0480000
        k(   10) = (  -0.3000000   0.5000000  -0.3000000), wk =   0.0480000
        k(   11) = (   0.6000000  -0.4000000   0.6000000), wk =   0.0480000
        k(   12) = (   0.5000000  -0.3000000   0.5000000), wk =   0.0480000
        k(   13) = (   0.4000000  -0.2000000   0.4000000), wk =   0.0480000
        k(   14) = (   0.3000000  -0.1000000   0.3000000), wk =   0.0480000
        k(   15) = (   0.2000000   0.0000000   0.2000000), wk =   0.0240000
        k(   16) = (   0.0000000   0.4000000   0.0000000), wk =   0.0120000
        k(   17) = (  -0.1000000   0.5000000  -0.1000000), wk =   0.0480000
        k(   18) = (  -0.2000000   0.6000000  -0.2000000), wk =   0.0480000
        k(   19) = (   0.7000000  -0.3000000   0.7000000), wk =   0.0480000
        k(   20) = (   0.6000000  -0.2000000   0.6000000), wk =   0.0480000
        k(   21) = (   0.5000000  -0.1000000   0.5000000), wk =   0.0480000
        k(   22) = (   0.4000000   0.0000000   0.4000000), wk =   0.0240000
        k(   23) = (   0.0000000   0.6000000   0.0000000), wk =   0.0120000
        k(   24) = (  -0.1000000   0.7000000  -0.1000000), wk =   0.0480000
        k(   25) = (   0.8000000  -0.2000000   0.8000000), wk =   0.0480000
        k(   26) = (   0.7000000  -0.1000000   0.7000000), wk =   0.0480000
        k(   27) = (   0.6000000  -0.0000000   0.6000000), wk =   0.0240000
        k(   28) = (   0.0000000   0.8000000   0.0000000), wk =   0.0120000
        k(   29) = (   0.9000000  -0.1000000   0.9000000), wk =   0.0480000
        k(   30) = (   0.8000000   0.0000000   0.8000000), wk =   0.0240000
        k(   31) = (   0.0000000  -1.0000000   0.0000000), wk =   0.0060000
        k(   32) = (  -0.2000000   0.4000000   0.0000000), wk =   0.0480000
        k(   33) = (  -0.3000000   0.5000000  -0.1000000), wk =   0.0960000
        k(   34) = (   0.6000000  -0.4000000   0.8000000), wk =   0.0960000
        k(   35) = (   0.5000000  -0.3000000   0.7000000), wk =   0.0480000
        k(   36) = (  -0.2000000   0.6000000   0.0000000), wk =   0.0480000
        k(   37) = (   0.7000000  -0.3000000   0.9000000), wk =   0.0960000
        k(   38) = (   0.6000000  -0.2000000   0.8000000), wk =   0.0960000
        k(   39) = (   0.5000000  -0.1000000   0.7000000), wk =   0.0960000
        k(   40) = (   0.4000000   0.0000000   0.6000000), wk =   0.0480000
        k(   41) = (   0.8000000  -0.2000000   1.0000000), wk =   0.0480000
        k(   42) = (   0.7000000  -0.1000000   0.9000000), wk =   0.0960000
        k(   43) = (   0.6000000   0.0000000   0.8000000), wk =   0.0480000
        k(   44) = (  -0.2000000  -1.0000000   0.0000000), wk =   0.0240000
        k(   45) = (   0.6000000  -0.2000000   1.0000000), wk =   0.0480000
        k(   46) = (   0.5000000  -0.1000000   0.9000000), wk =   0.0480000
        k(   47) = (  -0.4000000  -1.0000000   0.0000000), wk =   0.0240000

     Dense  grid:    10777 G-vectors     FFT dimensions: (  32,  32,  32)

     Estimated max dynamical RAM per process >      20.15 MB

     WARNING: libxc functional with ID  263 depends
      on external parameters: check the user_guide of
      QE if you need to modify them or to check their
      default values.

     Initial potential from superposition of free atoms

     starting charge       7.9990, renormalised to       8.0000
     Starting wfcs are   18 randomized atomic wfcs

     total cpu time spent up to now is        4.2 secs

     Self-consistent Calculation

     iteration #  1     ecut=    50.00 Ry     beta= 0.01
     Davidson diagonalization with overlap
     ethr =  1.00E-02,  avg # of iterations =  2.0

     Threshold (ethr) on eigenvalues was too large:
     Diagonalizing with lowered threshold

     Davidson diagonalization with overlap
     ethr =  9.88E-04,  avg # of iterations =  1.1

     total cpu time spent up to now is        9.4 secs

     total energy              =     -15.59670980 Ry
     estimated scf accuracy    <       0.08361682 Ry

     iteration #  2     ecut=    50.00 Ry     beta= 0.01
     Davidson diagonalization with overlap
     ethr =  1.05E-03,  avg # of iterations =  1.0

     total cpu time spent up to now is       11.5 secs

     total energy              =     -15.71195577 Ry
     estimated scf accuracy    <       0.08272759 Ry

     iteration #  3     ecut=    50.00 Ry     beta= 0.01
     Davidson diagonalization with overlap
     ethr =  1.03E-03,  avg # of iterations =  1.8

     total cpu time spent up to now is       14.0 secs

     total energy              =     -15.71088709 Ry
     estimated scf accuracy    <       0.03746124 Ry

     iteration #  4     ecut=    50.00 Ry     beta= 0.01
     Davidson diagonalization with overlap
     ethr =  4.68E-04,  avg # of iterations =  1.8

     total cpu time spent up to now is       16.6 secs

     total energy              =     -15.71872798 Ry
     estimated scf accuracy    <       0.00689759 Ry

     iteration #  5     ecut=    50.00 Ry     beta= 0.01
     Davidson diagonalization with overlap
     ethr =  8.62E-05,  avg # of iterations =  1.4

     total cpu time spent up to now is       18.7 secs

     total energy              =     -15.71949004 Ry
     estimated scf accuracy    <       0.00988241 Ry

     iteration #  6     ecut=    50.00 Ry     beta= 0.01
     Davidson diagonalization with overlap
     ethr =  8.62E-05,  avg # of iterations =  1.0

     total cpu time spent up to now is       21.0 secs

     total energy              =     -15.71711333 Ry
     estimated scf accuracy    <       0.01123430 Ry

     iteration #  7     ecut=    50.00 Ry     beta= 0.01
     Davidson diagonalization with overlap
     ethr =  8.62E-05,  avg # of iterations =  1.0

     total cpu time spent up to now is       23.2 secs

     total energy              =     -15.71659300 Ry
     estimated scf accuracy    <       0.00239540 Ry

     iteration #  8     ecut=    50.00 Ry     beta= 0.01
     Davidson diagonalization with overlap
     ethr =  2.99E-05,  avg # of iterations =  1.6

     total cpu time spent up to now is       25.2 secs

     total energy              =     -15.71677859 Ry
     estimated scf accuracy    <       0.00017312 Ry

     iteration #  9     ecut=    50.00 Ry     beta= 0.01
     Davidson diagonalization with overlap
     ethr =  2.16E-06,  avg # of iterations =  2.0

     total cpu time spent up to now is       27.8 secs

     total energy              =     -15.71681965 Ry
     estimated scf accuracy    <       0.00015207 Ry

     iteration # 10     ecut=    50.00 Ry     beta= 0.01
     Davidson diagonalization with overlap
     ethr =  1.90E-06,  avg # of iterations =  1.0

     total cpu time spent up to now is       29.9 secs

     total energy              =     -15.71674297 Ry
     estimated scf accuracy    <       0.00018826 Ry

     iteration # 11     ecut=    50.00 Ry     beta= 0.01
     Davidson diagonalization with overlap
     ethr =  1.90E-06,  avg # of iterations =  2.0

     total cpu time spent up to now is       33.0 secs

     total energy              =     -15.71676684 Ry
     estimated scf accuracy    <       0.00000409 Ry

     iteration # 12     ecut=    50.00 Ry     beta= 0.01
     Davidson diagonalization with overlap
     ethr =  5.11E-08,  avg # of iterations =  2.8

     total cpu time spent up to now is       35.7 secs

     total energy              =     -15.71676772 Ry
     estimated scf accuracy    <       0.00000274 Ry

     iteration # 13     ecut=    50.00 Ry     beta= 0.01
     Davidson diagonalization with overlap
     ethr =  3.42E-08,  avg # of iterations =  1.0

     total cpu time spent up to now is       37.8 secs

     total energy              =     -15.71676304 Ry
     estimated scf accuracy    <       0.00000238 Ry

     iteration # 14     ecut=    50.00 Ry     beta= 0.01
     Davidson diagonalization with overlap
     ethr =  2.98E-08,  avg # of iterations =  2.0

     total cpu time spent up to now is       40.5 secs

     total energy              =     -15.71676370 Ry
     estimated scf accuracy    <       0.00000274 Ry

     iteration # 15     ecut=    50.00 Ry     beta= 0.01
     Davidson diagonalization with overlap
     ethr =  2.98E-08,  avg # of iterations =  2.0

     total cpu time spent up to now is       42.0 secs

     total energy              =     -15.71676370 Ry
     estimated scf accuracy    <       0.00000152 Ry

     iteration # 16     ecut=    50.00 Ry     beta= 0.01
     Davidson diagonalization with overlap
     ethr =  1.90E-08,  avg # of iterations =  1.0

     total cpu time spent up to now is       43.7 secs

     End of self-consistent calculation

          k = 0.0000 0.0000 0.0000 (  1363 PWs)   bands (ev):

    -5.6018   8.1091   8.1091   8.1091

          k =-0.1000 0.1000-0.1000 (  1351 PWs)   bands (ev):

    -5.4420   6.9265   7.8756   7.8756

          k =-0.2000 0.2000-0.2000 (  1336 PWs)   bands (ev):

    -4.9685   4.8228   7.4322   7.4322

          k =-0.3000 0.3000-0.3000 (  1344 PWs)   bands (ev):

    -4.2065   2.7189   7.0473   7.0473

          k =-0.4000 0.4000-0.4000 (  1338 PWs)   bands (ev):

    -3.2520   0.9174   6.8062   6.8062

          k = 0.5000-0.5000 0.5000 (  1350 PWs)   bands (ev):

    -2.6286   0.0063   6.7255   6.7255

          k = 0.0000 0.2000 0.0000 (  1343 PWs)   bands (ev):

    -5.3885   7.3315   7.4065   7.4065

          k =-0.1000 0.3000-0.1000 (  1344 PWs)   bands (ev):

    -5.0185   5.5371   6.8864   7.2297

          k =-0.2000 0.4000-0.2000 (  1342 PWs)   bands (ev):

    -4.3488   3.4580   6.5149   6.7445

          k =-0.3000 0.5000-0.3000 (  1341 PWs)   bands (ev):

    -3.4378   1.5520   6.2605   6.3531

          k = 0.6000-0.4000 0.6000 (  1346 PWs)   bands (ev):

    -2.5786   0.2260   5.9021   6.4078

          k = 0.5000-0.3000 0.5000 (  1348 PWs)   bands (ev):

    -2.8120   0.5552   5.7239   6.6596

          k = 0.4000-0.2000 0.4000 (  1339 PWs)   bands (ev):

    -3.7623   2.1567   5.7609   7.0666

          k = 0.3000-0.1000 0.3000 (  1351 PWs)   bands (ev):

    -4.6047   4.1428   6.0411   7.5502

          k = 0.2000 0.0000 0.2000 (  1353 PWs)   bands (ev):

    -5.1772   6.0326   6.7047   7.9277

          k = 0.0000 0.4000 0.0000 (  1343 PWs)   bands (ev):

    -4.7528   5.6213   6.3064   6.3064

          k =-0.1000 0.5000-0.1000 (  1335 PWs)   bands (ev):

    -4.1815   4.0771   5.7996   5.8914

          k =-0.2000 0.6000-0.2000 (  1345 PWs)   bands (ev):

    -3.3413   2.2858   5.0966   5.7079

          k = 0.7000-0.3000 0.7000 (  1336 PWs)   bands (ev):

    -2.3915   0.7732   4.4912   5.7715

          k = 0.6000-0.2000 0.6000 (  1350 PWs)   bands (ev):

    -2.1734   0.4850   4.1082   6.0702

          k = 0.5000-0.1000 0.5000 (  1340 PWs)   bands (ev):

    -3.0411   1.7716   4.0215   6.5613

          k = 0.4000 0.0000 0.4000 (  1330 PWs)   bands (ev):

    -3.9437   3.3126   4.4859   7.1394

          k = 0.0000 0.6000 0.0000 (  1327 PWs)   bands (ev):

    -3.7090   3.5830   5.4159   5.4159

          k =-0.1000 0.7000-0.1000 (  1337 PWs)   bands (ev):

    -2.9538   2.3723   4.6509   5.1725

          k = 0.8000-0.2000 0.8000 (  1336 PWs)   bands (ev):

    -2.0039   1.1166   3.6329   5.1863

          k = 0.7000-0.1000 0.7000 (  1333 PWs)   bands (ev):

    -1.4190   0.4635   2.9433   5.4537

          k = 0.6000-0.0000 0.6000 (  1332 PWs)   bands (ev):

    -2.1205   1.2100   2.8947   5.9425

          k = 0.0000 0.8000 0.0000 (  1347 PWs)   bands (ev):

    -2.2847   1.4718   4.8584   4.8584

          k = 0.9000-0.1000 0.9000 (  1339 PWs)   bands (ev):

    -1.3808   0.4582   4.1093   4.8020

          k = 0.8000 0.0000 0.8000 (  1328 PWs)   bands (ev):

    -0.7179  -0.0905   3.0933   5.0077

          k = 0.0000-1.0000 0.0000 (  1338 PWs)   bands (ev):

    -0.5293  -0.5293   4.6697   4.6697

          k =-0.2000 0.4000 0.0000 (  1348 PWs)   bands (ev):

    -4.5485   4.5960   5.5972   7.0226

          k =-0.3000 0.5000-0.1000 (  1336 PWs)   bands (ev):

    -3.7916   2.8816   4.9760   6.5452

          k = 0.6000-0.4000 0.8000 (  1337 PWs)   bands (ev):

    -2.8400   1.1753   4.7757   6.0881

          k = 0.5000-0.3000 0.7000 (  1346 PWs)   bands (ev):

    -2.2109   0.2805   4.7351   5.9017

          k =-0.2000 0.6000 0.0000 (  1339 PWs)   bands (ev):

    -3.5195   3.1004   4.7164   5.6069

          k = 0.7000-0.3000 0.9000 (  1340 PWs)   bands (ev):

    -2.6168   1.7370   4.0163   5.1705

          k = 0.6000-0.2000 0.8000 (  1338 PWs)   bands (ev):

    -1.7543   0.5922   3.5508   5.1003

          k = 0.5000-0.1000 0.7000 (  1336 PWs)   bands (ev):

    -2.0209   0.9375   3.3285   5.4118

          k = 0.4000 0.0000 0.6000 (  1339 PWs)   bands (ev):

    -2.9682   2.1446   3.6392   5.9725

          k = 0.8000-0.2000 1.0000 (  1336 PWs)   bands (ev):

    -2.1265   1.3843   4.2062   4.5707

          k = 0.7000-0.1000 0.9000 (  1337 PWs)   bands (ev):

    -1.1806   0.4412   3.2898   4.4707

          k = 0.6000 0.0000 0.8000 (  1345 PWs)   bands (ev):

    -1.1401   0.4319   2.7571   4.8105

          k =-0.2000-1.0000 0.0000 (  1338 PWs)   bands (ev):

    -0.4419  -0.4419   4.1325   4.1325

          k = 0.6000-0.2000 1.0000 (  1336 PWs)   bands (ev):

    -1.6931   1.0152   3.2423   4.4303

          k = 0.5000-0.1000 0.9000 (  1334 PWs)   bands (ev):

    -1.0226   0.3790   3.0368   4.1111

          k =-0.4000-1.0000 0.0000 (  1342 PWs)   bands (ev):

    -0.2802  -0.2802   3.4501   3.4501

     highest occupied level (ev):     8.1091

!    total energy              =     -15.71676329 Ry
     estimated scf accuracy    <       0.00000093 Ry

     The total energy is the sum of the following terms:
     one-electron contribution =       6.24229487 Ry
     hartree contribution      =       0.96421377 Ry
     xc contribution           =      -5.05275539 Ry
     ewald contribution        =     -17.87051654 Ry

     convergence has been achieved in  16 iterations
     Writing meta-gga kinetic term

     Writing all to output data dir ./input_pw/Si/5/pwscf.save/
     Writing meta-gga kinetic term
 
     init_run     :      1.78s CPU      4.10s WALL (       1 calls)
     electrons    :     19.53s CPU     39.48s WALL (       1 calls)

     Called by init_run:
     wfcinit      :      1.68s CPU      3.86s WALL (       1 calls)
     potinit      :      0.02s CPU      0.06s WALL (       1 calls)
     hinit0       :      0.07s CPU      0.15s WALL (       1 calls)

     Called by electrons:
     c_bands      :     15.44s CPU     31.38s WALL (      17 calls)
     sum_band     :      3.55s CPU      7.12s WALL (      17 calls)
     v_of_rho     :      0.33s CPU      0.65s WALL (      17 calls)
     mix_rho      :      0.20s CPU      0.36s WALL (      17 calls)

     Called by c_bands:
     init_us_2    :      0.27s CPU      0.62s WALL (    1645 calls)
     init_us_2:cp :      0.27s CPU      0.62s WALL (    1645 calls)
     cegterg      :     15.11s CPU     30.69s WALL (     799 calls)

     Called by *egterg:
     cdiaghg      :      0.12s CPU      0.20s WALL (    2004 calls)
     h_psi        :     16.21s CPU     33.40s WALL (    2098 calls)
     g_psi        :      0.02s CPU      0.02s WALL (    1252 calls)

     Called by h_psi:
     h_psi:calbec :      0.11s CPU      0.21s WALL (    2098 calls)
     vloc_psi     :      3.96s CPU      7.89s WALL (    2098 calls)
     add_vuspsi   :      0.09s CPU      0.21s WALL (    2098 calls)
     h_psi_meta   :     12.00s CPU     25.02s WALL (    2098 calls)

     General routines
     calbec       :      0.10s CPU      0.20s WALL (    2098 calls)
     fft          :      0.04s CPU      0.10s WALL (     203 calls)
     ffts         :      0.05s CPU      0.13s WALL (     269 calls)
     fftw         :     15.75s CPU     32.21s WALL (   80280 calls)
     interpolate  :      0.00s CPU      0.00s WALL (      17 calls)
 
     Parallel routines
 
     PWSCF        :     21.35s CPU     43.69s WALL

 
   This run was terminated on:  11:31:49  29Mar2023            

=------------------------------------------------------------------------------=
   JOB DONE.
=------------------------------------------------------------------------------=
