
     Program PWSCF v.7.0 starts on 21Feb2023 at 12:49:41 

     This program is part of the open-source Quantum ESPRESSO suite
     for quantum simulation of materials; please cite
         "P. Giannozzi et al., J. Phys.:Condens. Matter 21 395502 (2009);
         "P. Giannozzi et al., J. Phys.:Condens. Matter 29 465901 (2017);
         "P. Giannozzi et al., J. Chem. Phys. 152 154105 (2020);
          URL http://www.quantum-espresso.org", 
     in publications or presentations arising from this work. More details at
     http://www.quantum-espresso.org/quote

     Parallel version (MPI), running on     1 processors

     MPI processes distributed on     1 nodes
     3049 MiB available memory on the printing compute node when the environment starts
 
     Waiting for input...
     Reading input from standard input
Warning: card &CELL ignored
Warning: card / ignored

     Current dimensions of program PWSCF are:
     Max number of different atomic species (ntypx) = 10
     Max number of k-points (npk) =  40000
     Max angular momentum in pseudopotentials (lmaxx) =  4
     file Si.SCAN.UPF2: wavefunction(s)  0D renormalized

     WARNING: the MGGA functional with ID    5 has been 
     read together with other dft terms, but it should 
     stand alone in order to work properly. The other 
     terms will be ignored.

     Subspace diagonalization in iterative solution of the eigenvalue problem:
     a serial algorithm will be used

 
     G-vector sticks info
     --------------------
     sticks:   dense  smooth     PW     G-vecs:    dense   smooth      PW
     Sum         637     637    199                10417    10417    1837
 
     Using Slab Decomposition
 


     bravais-lattice index     =            2
     lattice parameter (alat)  =       9.5649  a.u.
     unit-cell volume          =     218.7667 (a.u.)^3
     number of atoms/cell      =            2
     number of atomic types    =            1
     number of electrons       =         8.00
     number of Kohn-Sham states=            4
     kinetic-energy cutoff     =      50.0000  Ry
     charge density cutoff     =     200.0000  Ry
     scf convergence threshold =      1.0E-06
     mixing beta               =       0.0100
     number of iterations used =            8  local-TF  mixing
     Exchange-correlation= SLA  PW   SCAN SCAN
                           (   0   0   0   0   0 263 267)

     celldm(1)=   9.564900  celldm(2)=   0.000000  celldm(3)=   0.000000
     celldm(4)=   0.000000  celldm(5)=   0.000000  celldm(6)=   0.000000

     crystal axes: (cart. coord. in units of alat)
               a(1) = (  -0.500000   0.000000   0.500000 )  
               a(2) = (   0.000000   0.500000   0.500000 )  
               a(3) = (  -0.500000   0.500000   0.000000 )  

     reciprocal axes: (cart. coord. in units 2 pi/alat)
               b(1) = ( -1.000000 -1.000000  1.000000 )  
               b(2) = (  1.000000  1.000000  1.000000 )  
               b(3) = ( -1.000000  1.000000 -1.000000 )  


     PseudoPot. # 1 for Si read from file:
     ~/Documents/TA/PWDFT.jl/pseudopotentials/scan_upf/Si.SCAN.UPF2
     MD5 check sum: Not computed, couldn't open file
     Pseudo is Norm-conserving, Zval =  4.0
     Generated by new atomic code, or converted to UPF format
     Using radial grid of 1475 points,  2 beta functions with: 
                l(1) =   0
                l(2) =   1

     atomic species   valence    mass     pseudopotential
        Si             4.00    28.08550     Si( 1.00)

     48 Sym. Ops., with inversion, found (24 have fractional translation)



   Cartesian axes

     site n.     atom                  positions (alat units)
         1           Si  tau(   1) = (   0.0000000   0.0000000   0.0000000  )
         2           Si  tau(   2) = (   0.2500000   0.2500000   0.2500000  )

     number of k points=    47
                       cart. coord. in units 2pi/alat
        k(    1) = (   0.0000000   0.0000000   0.0000000), wk =   0.0020000
        k(    2) = (  -0.1000000   0.1000000  -0.1000000), wk =   0.0160000
        k(    3) = (  -0.2000000   0.2000000  -0.2000000), wk =   0.0160000
        k(    4) = (  -0.3000000   0.3000000  -0.3000000), wk =   0.0160000
        k(    5) = (  -0.4000000   0.4000000  -0.4000000), wk =   0.0160000
        k(    6) = (   0.5000000  -0.5000000   0.5000000), wk =   0.0080000
        k(    7) = (   0.0000000   0.2000000   0.0000000), wk =   0.0120000
        k(    8) = (  -0.1000000   0.3000000  -0.1000000), wk =   0.0480000
        k(    9) = (  -0.2000000   0.4000000  -0.2000000), wk =   0.0480000
        k(   10) = (  -0.3000000   0.5000000  -0.3000000), wk =   0.0480000
        k(   11) = (   0.6000000  -0.4000000   0.6000000), wk =   0.0480000
        k(   12) = (   0.5000000  -0.3000000   0.5000000), wk =   0.0480000
        k(   13) = (   0.4000000  -0.2000000   0.4000000), wk =   0.0480000
        k(   14) = (   0.3000000  -0.1000000   0.3000000), wk =   0.0480000
        k(   15) = (   0.2000000   0.0000000   0.2000000), wk =   0.0240000
        k(   16) = (   0.0000000   0.4000000   0.0000000), wk =   0.0120000
        k(   17) = (  -0.1000000   0.5000000  -0.1000000), wk =   0.0480000
        k(   18) = (  -0.2000000   0.6000000  -0.2000000), wk =   0.0480000
        k(   19) = (   0.7000000  -0.3000000   0.7000000), wk =   0.0480000
        k(   20) = (   0.6000000  -0.2000000   0.6000000), wk =   0.0480000
        k(   21) = (   0.5000000  -0.1000000   0.5000000), wk =   0.0480000
        k(   22) = (   0.4000000   0.0000000   0.4000000), wk =   0.0240000
        k(   23) = (   0.0000000   0.6000000   0.0000000), wk =   0.0120000
        k(   24) = (  -0.1000000   0.7000000  -0.1000000), wk =   0.0480000
        k(   25) = (   0.8000000  -0.2000000   0.8000000), wk =   0.0480000
        k(   26) = (   0.7000000  -0.1000000   0.7000000), wk =   0.0480000
        k(   27) = (   0.6000000  -0.0000000   0.6000000), wk =   0.0240000
        k(   28) = (   0.0000000   0.8000000   0.0000000), wk =   0.0120000
        k(   29) = (   0.9000000  -0.1000000   0.9000000), wk =   0.0480000
        k(   30) = (   0.8000000   0.0000000   0.8000000), wk =   0.0240000
        k(   31) = (   0.0000000  -1.0000000   0.0000000), wk =   0.0060000
        k(   32) = (  -0.2000000   0.4000000   0.0000000), wk =   0.0480000
        k(   33) = (  -0.3000000   0.5000000  -0.1000000), wk =   0.0960000
        k(   34) = (   0.6000000  -0.4000000   0.8000000), wk =   0.0960000
        k(   35) = (   0.5000000  -0.3000000   0.7000000), wk =   0.0480000
        k(   36) = (  -0.2000000   0.6000000   0.0000000), wk =   0.0480000
        k(   37) = (   0.7000000  -0.3000000   0.9000000), wk =   0.0960000
        k(   38) = (   0.6000000  -0.2000000   0.8000000), wk =   0.0960000
        k(   39) = (   0.5000000  -0.1000000   0.7000000), wk =   0.0960000
        k(   40) = (   0.4000000   0.0000000   0.6000000), wk =   0.0480000
        k(   41) = (   0.8000000  -0.2000000   1.0000000), wk =   0.0480000
        k(   42) = (   0.7000000  -0.1000000   0.9000000), wk =   0.0960000
        k(   43) = (   0.6000000   0.0000000   0.8000000), wk =   0.0480000
        k(   44) = (  -0.2000000  -1.0000000   0.0000000), wk =   0.0240000
        k(   45) = (   0.6000000  -0.2000000   1.0000000), wk =   0.0480000
        k(   46) = (   0.5000000  -0.1000000   0.9000000), wk =   0.0480000
        k(   47) = (  -0.4000000  -1.0000000   0.0000000), wk =   0.0240000

     Dense  grid:    10417 G-vectors     FFT dimensions: (  32,  32,  32)

     Estimated max dynamical RAM per process >      19.64 MB

     WARNING: libxc functional with ID  263 depends
      on external parameters: check the user_guide of
      QE if you need to modify them or to check their
      default values.

     Initial potential from superposition of free atoms

     starting charge       7.9990, renormalised to       8.0000
     Starting wfcs are   18 randomized atomic wfcs

     total cpu time spent up to now is        3.4 secs

     Self-consistent Calculation

     iteration #  1     ecut=    50.00 Ry     beta= 0.01
     Davidson diagonalization with overlap
     ethr =  1.00E-02,  avg # of iterations =  2.0

     total cpu time spent up to now is        6.2 secs

     total energy              =     -15.58234300 Ry
     estimated scf accuracy    <       0.08213039 Ry

     iteration #  2     ecut=    50.00 Ry     beta= 0.01
     Davidson diagonalization with overlap
     ethr =  1.03E-03,  avg # of iterations =  1.1

     total cpu time spent up to now is        8.4 secs

     total energy              =     -15.63498871 Ry
     estimated scf accuracy    <       0.08539396 Ry

     iteration #  3     ecut=    50.00 Ry     beta= 0.01
     Davidson diagonalization with overlap
     ethr =  1.03E-03,  avg # of iterations =  2.0

     total cpu time spent up to now is       11.1 secs

     total energy              =     -15.70271751 Ry
     estimated scf accuracy    <       0.15181068 Ry

     iteration #  4     ecut=    50.00 Ry     beta= 0.01
     Davidson diagonalization with overlap
     ethr =  1.03E-03,  avg # of iterations =  1.8

     total cpu time spent up to now is       13.3 secs

     total energy              =     -15.70854604 Ry
     estimated scf accuracy    <       0.02411189 Ry

     iteration #  5     ecut=    50.00 Ry     beta= 0.01
     Davidson diagonalization with overlap
     ethr =  3.01E-04,  avg # of iterations =  1.0

     total cpu time spent up to now is       15.4 secs

     total energy              =     -15.70910946 Ry
     estimated scf accuracy    <       0.01389527 Ry

     iteration #  6     ecut=    50.00 Ry     beta= 0.01
     Davidson diagonalization with overlap
     ethr =  1.74E-04,  avg # of iterations =  1.0

     total cpu time spent up to now is       17.4 secs

     total energy              =     -15.70491697 Ry
     estimated scf accuracy    <       0.01317581 Ry

     iteration #  7     ecut=    50.00 Ry     beta= 0.01
     Davidson diagonalization with overlap
     ethr =  1.65E-04,  avg # of iterations =  1.9

     total cpu time spent up to now is       19.8 secs

     total energy              =     -15.70662307 Ry
     estimated scf accuracy    <       0.00017869 Ry

     iteration #  8     ecut=    50.00 Ry     beta= 0.01
     Davidson diagonalization with overlap
     ethr =  2.23E-06,  avg # of iterations =  3.5

     total cpu time spent up to now is       23.4 secs

     total energy              =     -15.70665181 Ry
     estimated scf accuracy    <       0.00037587 Ry

     iteration #  9     ecut=    50.00 Ry     beta= 0.01
     Davidson diagonalization with overlap
     ethr =  2.23E-06,  avg # of iterations =  1.0

     total cpu time spent up to now is       25.4 secs

     total energy              =     -15.70633459 Ry
     estimated scf accuracy    <       0.00019323 Ry

     iteration # 10     ecut=    50.00 Ry     beta= 0.01
     Davidson diagonalization with overlap
     ethr =  2.23E-06,  avg # of iterations =  2.0

     total cpu time spent up to now is       28.2 secs

     total energy              =     -15.70627620 Ry
     estimated scf accuracy    <       0.00003798 Ry

     iteration # 11     ecut=    50.00 Ry     beta= 0.01
     Davidson diagonalization with overlap
     ethr =  4.75E-07,  avg # of iterations =  3.1

     total cpu time spent up to now is       31.7 secs

     total energy              =     -15.70633077 Ry
     estimated scf accuracy    <       0.00000562 Ry

     iteration # 12     ecut=    50.00 Ry     beta= 0.01
     Davidson diagonalization with overlap
     ethr =  7.03E-08,  avg # of iterations =  2.2

     total cpu time spent up to now is       34.6 secs

     total energy              =     -15.70632033 Ry
     estimated scf accuracy    <       0.00000502 Ry

     iteration # 13     ecut=    50.00 Ry     beta= 0.01
     Davidson diagonalization with overlap
     ethr =  6.27E-08,  avg # of iterations =  2.0

     total cpu time spent up to now is       36.9 secs

     total energy              =     -15.70631980 Ry
     estimated scf accuracy    <       0.00000214 Ry

     iteration # 14     ecut=    50.00 Ry     beta= 0.01
     Davidson diagonalization with overlap
     ethr =  2.67E-08,  avg # of iterations =  2.8

     total cpu time spent up to now is       39.2 secs

     End of self-consistent calculation

          k = 0.0000 0.0000 0.0000 (  1291 PWs)   bands (ev):

    -5.5009   8.4240   8.4240   8.4240

          k =-0.1000 0.1000-0.1000 (  1309 PWs)   bands (ev):

    -5.3377   7.2235   8.1847   8.1847

          k =-0.2000 0.2000-0.2000 (  1324 PWs)   bands (ev):

    -4.8543   5.0859   7.7328   7.7328

          k =-0.3000 0.3000-0.3000 (  1320 PWs)   bands (ev):

    -4.0754   2.9441   7.3426   7.3426

          k =-0.4000 0.4000-0.4000 (  1302 PWs)   bands (ev):

    -3.0957   1.1039   7.0992   7.0992

          k = 0.5000-0.5000 0.5000 (  1308 PWs)   bands (ev):

    -2.4489   0.1647   7.0179   7.0179

          k = 0.0000 0.2000 0.0000 (  1299 PWs)   bands (ev):

    -5.2832   7.6540   7.7009   7.7009

          k =-0.1000 0.3000-0.1000 (  1315 PWs)   bands (ev):

    -4.9056   5.8186   7.1696   7.5360

          k =-0.2000 0.4000-0.2000 (  1312 PWs)   bands (ev):

    -4.2213   3.7015   6.7926   7.0426

          k =-0.3000 0.5000-0.3000 (  1308 PWs)   bands (ev):

    -3.2881   1.7564   6.5491   6.6303

          k = 0.6000-0.4000 0.6000 (  1307 PWs)   bands (ev):

    -2.4004   0.3938   6.1818   6.6892

          k = 0.5000-0.3000 0.5000 (  1307 PWs)   bands (ev):

    -2.6430   0.7338   5.9966   6.9485

          k = 0.4000-0.2000 0.4000 (  1315 PWs)   bands (ev):

    -3.6209   2.3741   6.0299   7.3653

          k = 0.3000-0.1000 0.3000 (  1321 PWs)   bands (ev):

    -4.4828   4.4000   6.3100   7.8591

          k = 0.2000 0.0000 0.2000 (  1311 PWs)   bands (ev):

    -5.0675   6.3258   6.9800   8.2432

          k = 0.0000 0.4000 0.0000 (  1307 PWs)   bands (ev):

    -4.6344   5.9387   6.5761   6.5761

          k =-0.1000 0.5000-0.1000 (  1317 PWs)   bands (ev):

    -4.0511   4.3551   6.0704   6.1533

          k =-0.2000 0.6000-0.2000 (  1308 PWs)   bands (ev):

    -3.1916   2.5214   5.3557   5.9678

          k = 0.7000-0.3000 0.7000 (  1308 PWs)   bands (ev):

    -2.2144   0.9685   4.7373   6.0348

          k = 0.6000-0.2000 0.6000 (  1295 PWs)   bands (ev):

    -1.9872   0.6693   4.3434   6.3418

          k = 0.5000-0.1000 0.5000 (  1308 PWs)   bands (ev):

    -2.8827   1.9939   4.2476   6.8455

          k = 0.4000 0.0000 0.4000 (  1326 PWs)   bands (ev):

    -3.8072   3.5735   4.7105   7.4386

          k = 0.0000 0.6000 0.0000 (  1311 PWs)   bands (ev):

    -3.5689   3.8730   5.6679   5.6679

          k =-0.1000 0.7000-0.1000 (  1301 PWs)   bands (ev):

    -2.7973   2.6386   4.8813   5.4204

          k = 0.8000-0.2000 0.8000 (  1300 PWs)   bands (ev):

    -1.8233   1.3525   3.8370   5.4355

          k = 0.7000-0.1000 0.7000 (  1303 PWs)   bands (ev):

    -1.2157   0.6746   3.1299   5.7097

          k = 0.6000-0.0000 0.6000 (  1306 PWs)   bands (ev):

    -1.9385   1.4425   3.0769   6.2105

          k = 0.0000 0.8000 0.0000 (  1306 PWs)   bands (ev):

    -2.1146   1.7214   5.0999   5.0999

          k = 0.9000-0.1000 0.9000 (  1303 PWs)   bands (ev):

    -1.1902   0.6883   4.3248   5.0428

          k = 0.8000 0.0000 0.8000 (  1302 PWs)   bands (ev):

    -0.5017   0.1234   3.2743   5.2533

          k = 0.0000-1.0000 0.0000 (  1298 PWs)   bands (ev):

    -0.3219  -0.3219   4.9077   4.9077

          k =-0.2000 0.4000 0.0000 (  1321 PWs)   bands (ev):

    -4.4256   4.8774   5.8477   7.3211

          k =-0.3000 0.5000-0.1000 (  1309 PWs)   bands (ev):

    -3.6518   3.1249   5.2242   6.8293

          k = 0.6000-0.4000 0.8000 (  1311 PWs)   bands (ev):

    -2.6755   1.3774   5.0285   6.3575

          k = 0.5000-0.3000 0.7000 (  1300 PWs)   bands (ev):

    -2.0233   0.4542   4.9909   6.1643

          k =-0.2000 0.6000 0.0000 (  1305 PWs)   bands (ev):

    -3.3747   3.3744   4.9482   5.8630

          k = 0.7000-0.3000 0.9000 (  1304 PWs)   bands (ev):

    -2.4504   1.9782   4.2391   5.4109

          k = 0.6000-0.2000 0.8000 (  1298 PWs)   bands (ev):

    -1.5603   0.7959   3.7670   5.3390

          k = 0.5000-0.1000 0.7000 (  1302 PWs)   bands (ev):

    -1.8356   1.1528   3.5345   5.6603

          k = 0.4000 0.0000 0.6000 (  1303 PWs)   bands (ev):

    -2.8092   2.3942   3.8433   6.2376

          k = 0.8000-0.2000 1.0000 (  1304 PWs)   bands (ev):

    -1.9513   1.6351   4.4262   4.7952

          k = 0.7000-0.1000 0.9000 (  1302 PWs)   bands (ev):

    -0.9797   0.6725   3.4783   4.6943

          k = 0.6000 0.0000 0.8000 (  1298 PWs)   bands (ev):

    -0.9314   0.6572   2.9293   5.0433

          k =-0.2000-1.0000 0.0000 (  1298 PWs)   bands (ev):

    -0.2294  -0.2294   4.3486   4.3486

          k = 0.6000-0.2000 1.0000 (  1294 PWs)   bands (ev):

    -1.5034   1.2579   3.4330   4.6466

          k = 0.5000-0.1000 0.9000 (  1302 PWs)   bands (ev):

    -0.8118   0.6050   3.2215   4.3180

          k =-0.4000-1.0000 0.0000 (  1302 PWs)   bands (ev):

    -0.0573  -0.0573   3.6398   3.6398

     highest occupied level (ev):     8.4240

!    total energy              =     -15.70632059 Ry
     estimated scf accuracy    <       0.00000021 Ry

     The total energy is the sum of the following terms:
     one-electron contribution =       6.45388299 Ry
     hartree contribution      =       0.94487154 Ry
     xc contribution           =      -5.08318908 Ry
     ewald contribution        =     -18.02188604 Ry

     convergence has been achieved in  14 iterations
     Writing meta-gga kinetic term

     Writing all to output data dir ./input_pw/Si/5/pwscf.save/
     Writing meta-gga kinetic term
 
     init_run     :      1.81s CPU      3.38s WALL (       1 calls)
     electrons    :     18.15s CPU     35.79s WALL (       1 calls)

     Called by init_run:
     wfcinit      :      1.71s CPU      3.19s WALL (       1 calls)
     potinit      :      0.02s CPU      0.07s WALL (       1 calls)
     hinit0       :      0.07s CPU      0.10s WALL (       1 calls)

     Called by electrons:
     c_bands      :     14.75s CPU     29.23s WALL (      14 calls)
     sum_band     :      2.93s CPU      5.68s WALL (      14 calls)
     v_of_rho     :      0.31s CPU      0.61s WALL (      15 calls)
     mix_rho      :      0.16s CPU      0.31s WALL (      14 calls)

     Called by c_bands:
     init_us_2    :      0.22s CPU      0.37s WALL (    1363 calls)
     init_us_2:cp :      0.22s CPU      0.37s WALL (    1363 calls)
     cegterg      :     14.48s CPU     28.68s WALL (     658 calls)

     Called by *egterg:
     cdiaghg      :      0.12s CPU      0.26s WALL (    1948 calls)
     h_psi        :     15.63s CPU     30.76s WALL (    1995 calls)
     g_psi        :      0.02s CPU      0.02s WALL (    1290 calls)

     Called by h_psi:
     h_psi:calbec :      0.10s CPU      0.19s WALL (    1995 calls)
     vloc_psi     :      3.82s CPU      7.58s WALL (    1995 calls)
     add_vuspsi   :      0.08s CPU      0.13s WALL (    1995 calls)
     h_psi_meta   :     11.59s CPU     22.79s WALL (    1995 calls)

     General routines
     calbec       :      0.09s CPU      0.18s WALL (    1995 calls)
     fft          :      0.04s CPU      0.11s WALL (     177 calls)
     ffts         :      0.05s CPU      0.09s WALL (     233 calls)
     fftw         :     14.95s CPU     29.21s WALL (   74864 calls)
     interpolate  :      0.00s CPU      0.00s WALL (      15 calls)
 
     Parallel routines
 
     PWSCF        :     20.02s CPU     39.23s WALL

 
   This run was terminated on:  12:50:20  21Feb2023            

=------------------------------------------------------------------------------=
   JOB DONE.
=------------------------------------------------------------------------------=
