
     Program PWSCF v.7.0 starts on 29Mar2023 at 11:45:51 

     This program is part of the open-source Quantum ESPRESSO suite
     for quantum simulation of materials; please cite
         "P. Giannozzi et al., J. Phys.:Condens. Matter 21 395502 (2009);
         "P. Giannozzi et al., J. Phys.:Condens. Matter 29 465901 (2017);
         "P. Giannozzi et al., J. Chem. Phys. 152 154105 (2020);
          URL http://www.quantum-espresso.org", 
     in publications or presentations arising from this work. More details at
     http://www.quantum-espresso.org/quote

     Parallel version (MPI), running on     1 processors

     MPI processes distributed on     1 nodes
     23420 MiB available memory on the printing compute node when the environment starts
 
     Waiting for input...
     Reading input from standard input
Warning: card &CELL ignored
Warning: card / ignored

     Current dimensions of program PWSCF are:
     Max number of different atomic species (ntypx) = 10
     Max number of k-points (npk) =  40000
     Max angular momentum in pseudopotentials (lmaxx) =  4
     file Ge.SCAN.UPF2: wavefunction(s)  0D renormalized

     WARNING: the MGGA functional with ID    5 has been 
     read together with other dft terms, but it should 
     stand alone in order to work properly. The other 
     terms will be ignored.

     Subspace diagonalization in iterative solution of the eigenvalue problem:
     a serial algorithm will be used

 
     G-vector sticks info
     --------------------
     sticks:   dense  smooth     PW     G-vecs:    dense   smooth      PW
     Sum        1201    1201    361                27581    27581    4477
 
     Using Slab Decomposition
 


     bravais-lattice index     =            2
     lattice parameter (alat)  =      13.2100  a.u.
     unit-cell volume          =     576.2981 (a.u.)^3
     number of atoms/cell      =            2
     number of atomic types    =            1
     number of electrons       =         8.00
     number of Kohn-Sham states=            4
     kinetic-energy cutoff     =      50.0000  Ry
     charge density cutoff     =     200.0000  Ry
     scf convergence threshold =      1.0E-06
     mixing beta               =       0.0100
     number of iterations used =            8  local-TF  mixing
     Exchange-correlation= SLA  PW  SCAN SCAN
                           (   0   0   0   0   0 263 267)

     celldm(1)=  13.209987  celldm(2)=   0.000000  celldm(3)=   0.000000
     celldm(4)=   0.000000  celldm(5)=   0.000000  celldm(6)=   0.000000

     crystal axes: (cart. coord. in units of alat)
               a(1) = (  -0.500000   0.000000   0.500000 )  
               a(2) = (   0.000000   0.500000   0.500000 )  
               a(3) = (  -0.500000   0.500000   0.000000 )  

     reciprocal axes: (cart. coord. in units 2 pi/alat)
               b(1) = ( -1.000000 -1.000000  1.000000 )  
               b(2) = (  1.000000  1.000000  1.000000 )  
               b(3) = ( -1.000000  1.000000 -1.000000 )  


     PseudoPot. # 1 for Ge read from file:
     ~/Documents/TA/PWDFT.jl/pseudopotentials/scan_upf/Ge.SCAN.UPF2
     MD5 check sum: Not computed, couldn't open file
     Pseudo is Norm-conserving, Zval =  4.0
     Generated by new atomic code, or converted to UPF format
     Using radial grid of 1557 points,  2 beta functions with: 
                l(1) =   0
                l(2) =   1

     atomic species   valence    mass     pseudopotential
        Ge             4.00    72.64000     Ge( 1.00)

     48 Sym. Ops., with inversion, found (24 have fractional translation)



   Cartesian axes

     site n.     atom                  positions (alat units)
         1           Ge  tau(   1) = (   0.0000000   0.0000000   0.0000000  )
         2           Ge  tau(   2) = (   0.2500000   0.2500000   0.2500000  )

     number of k points=    47
                       cart. coord. in units 2pi/alat
        k(    1) = (   0.0000000   0.0000000   0.0000000), wk =   0.0020000
        k(    2) = (  -0.1000000   0.1000000  -0.1000000), wk =   0.0160000
        k(    3) = (  -0.2000000   0.2000000  -0.2000000), wk =   0.0160000
        k(    4) = (  -0.3000000   0.3000000  -0.3000000), wk =   0.0160000
        k(    5) = (  -0.4000000   0.4000000  -0.4000000), wk =   0.0160000
        k(    6) = (   0.5000000  -0.5000000   0.5000000), wk =   0.0080000
        k(    7) = (   0.0000000   0.2000000   0.0000000), wk =   0.0120000
        k(    8) = (  -0.1000000   0.3000000  -0.1000000), wk =   0.0480000
        k(    9) = (  -0.2000000   0.4000000  -0.2000000), wk =   0.0480000
        k(   10) = (  -0.3000000   0.5000000  -0.3000000), wk =   0.0480000
        k(   11) = (   0.6000000  -0.4000000   0.6000000), wk =   0.0480000
        k(   12) = (   0.5000000  -0.3000000   0.5000000), wk =   0.0480000
        k(   13) = (   0.4000000  -0.2000000   0.4000000), wk =   0.0480000
        k(   14) = (   0.3000000  -0.1000000   0.3000000), wk =   0.0480000
        k(   15) = (   0.2000000   0.0000000   0.2000000), wk =   0.0240000
        k(   16) = (   0.0000000   0.4000000   0.0000000), wk =   0.0120000
        k(   17) = (  -0.1000000   0.5000000  -0.1000000), wk =   0.0480000
        k(   18) = (  -0.2000000   0.6000000  -0.2000000), wk =   0.0480000
        k(   19) = (   0.7000000  -0.3000000   0.7000000), wk =   0.0480000
        k(   20) = (   0.6000000  -0.2000000   0.6000000), wk =   0.0480000
        k(   21) = (   0.5000000  -0.1000000   0.5000000), wk =   0.0480000
        k(   22) = (   0.4000000   0.0000000   0.4000000), wk =   0.0240000
        k(   23) = (   0.0000000   0.6000000   0.0000000), wk =   0.0120000
        k(   24) = (  -0.1000000   0.7000000  -0.1000000), wk =   0.0480000
        k(   25) = (   0.8000000  -0.2000000   0.8000000), wk =   0.0480000
        k(   26) = (   0.7000000  -0.1000000   0.7000000), wk =   0.0480000
        k(   27) = (   0.6000000  -0.0000000   0.6000000), wk =   0.0240000
        k(   28) = (   0.0000000   0.8000000   0.0000000), wk =   0.0120000
        k(   29) = (   0.9000000  -0.1000000   0.9000000), wk =   0.0480000
        k(   30) = (   0.8000000   0.0000000   0.8000000), wk =   0.0240000
        k(   31) = (   0.0000000  -1.0000000   0.0000000), wk =   0.0060000
        k(   32) = (  -0.2000000   0.4000000   0.0000000), wk =   0.0480000
        k(   33) = (  -0.3000000   0.5000000  -0.1000000), wk =   0.0960000
        k(   34) = (   0.6000000  -0.4000000   0.8000000), wk =   0.0960000
        k(   35) = (   0.5000000  -0.3000000   0.7000000), wk =   0.0480000
        k(   36) = (  -0.2000000   0.6000000   0.0000000), wk =   0.0480000
        k(   37) = (   0.7000000  -0.3000000   0.9000000), wk =   0.0960000
        k(   38) = (   0.6000000  -0.2000000   0.8000000), wk =   0.0960000
        k(   39) = (   0.5000000  -0.1000000   0.7000000), wk =   0.0960000
        k(   40) = (   0.4000000   0.0000000   0.6000000), wk =   0.0480000
        k(   41) = (   0.8000000  -0.2000000   1.0000000), wk =   0.0480000
        k(   42) = (   0.7000000  -0.1000000   0.9000000), wk =   0.0960000
        k(   43) = (   0.6000000   0.0000000   0.8000000), wk =   0.0480000
        k(   44) = (  -0.2000000  -1.0000000   0.0000000), wk =   0.0240000
        k(   45) = (   0.6000000  -0.2000000   1.0000000), wk =   0.0480000
        k(   46) = (   0.5000000  -0.1000000   0.9000000), wk =   0.0480000
        k(   47) = (  -0.4000000  -1.0000000   0.0000000), wk =   0.0240000

     Dense  grid:    27581 G-vectors     FFT dimensions: (  48,  48,  48)

     Estimated max dynamical RAM per process >      54.50 MB

     WARNING: libxc functional with ID  263 depends
      on external parameters: check the user_guide of
      QE if you need to modify them or to check their
      default values.

     Initial potential from superposition of free atoms

     starting charge       7.9987, renormalised to       8.0000
     Starting wfcs are   18 randomized atomic wfcs

     total cpu time spent up to now is       24.4 secs

     Self-consistent Calculation

     iteration #  1     ecut=    50.00 Ry     beta= 0.01
     Davidson diagonalization with overlap
     ethr =  1.00E-02,  avg # of iterations =  1.0

     Threshold (ethr) on eigenvalues was too large:
     Diagonalizing with lowered threshold

     Davidson diagonalization with overlap
     ethr =  2.06E-04,  avg # of iterations =  5.2

     total cpu time spent up to now is       68.6 secs

     total energy              =     -15.63017654 Ry
     estimated scf accuracy    <       0.01823726 Ry

     iteration #  2     ecut=    50.00 Ry     beta= 0.01
     Davidson diagonalization with overlap
     ethr =  2.28E-04,  avg # of iterations =  1.0

     total cpu time spent up to now is       81.9 secs

     total energy              =     -15.63568276 Ry
     estimated scf accuracy    <       0.01815241 Ry

     iteration #  3     ecut=    50.00 Ry     beta= 0.01
     Davidson diagonalization with overlap
     ethr =  2.27E-04,  avg # of iterations =  1.1

     total cpu time spent up to now is       93.4 secs

     total energy              =     -15.66257400 Ry
     estimated scf accuracy    <       0.01590398 Ry

     iteration #  4     ecut=    50.00 Ry     beta= 0.01
     Davidson diagonalization with overlap
     ethr =  1.99E-04,  avg # of iterations =  1.9

     total cpu time spent up to now is      109.3 secs

     total energy              =     -15.66437766 Ry
     estimated scf accuracy    <       0.00090272 Ry

     iteration #  5     ecut=    50.00 Ry     beta= 0.01
     Davidson diagonalization with overlap
     ethr =  1.13E-05,  avg # of iterations =  7.3

     total cpu time spent up to now is      138.6 secs

     total energy              =     -15.66528602 Ry
     estimated scf accuracy    <       0.00129604 Ry

     iteration #  6     ecut=    50.00 Ry     beta= 0.01
     Davidson diagonalization with overlap
     ethr =  1.13E-05,  avg # of iterations =  1.6

     total cpu time spent up to now is      149.4 secs

     total energy              =     -15.66549284 Ry
     estimated scf accuracy    <       0.00150932 Ry

     iteration #  7     ecut=    50.00 Ry     beta= 0.01
     Davidson diagonalization with overlap
     ethr =  1.13E-05,  avg # of iterations =  1.0

     total cpu time spent up to now is      159.7 secs

     total energy              =     -15.66555271 Ry
     estimated scf accuracy    <       0.00070612 Ry

     iteration #  8     ecut=    50.00 Ry     beta= 0.01
     Davidson diagonalization with overlap
     ethr =  8.83E-06,  avg # of iterations =  1.0

     total cpu time spent up to now is      170.0 secs

     total energy              =     -15.66558345 Ry
     estimated scf accuracy    <       0.00024091 Ry

     iteration #  9     ecut=    50.00 Ry     beta= 0.01
     Davidson diagonalization with overlap
     ethr =  3.01E-06,  avg # of iterations =  5.4

     total cpu time spent up to now is      187.0 secs

     total energy              =     -15.66574410 Ry
     estimated scf accuracy    <       0.00011918 Ry

     iteration # 10     ecut=    50.00 Ry     beta= 0.01
     Davidson diagonalization with overlap
     ethr =  1.49E-06,  avg # of iterations =  5.5

     total cpu time spent up to now is      203.0 secs

     total energy              =     -15.66596050 Ry
     estimated scf accuracy    <       0.00012976 Ry

     iteration # 11     ecut=    50.00 Ry     beta= 0.01
     Davidson diagonalization with overlap
     ethr =  1.49E-06,  avg # of iterations =  2.7

     total cpu time spent up to now is      213.2 secs

     total energy              =     -15.66598862 Ry
     estimated scf accuracy    <       0.00033464 Ry

     iteration # 12     ecut=    50.00 Ry     beta= 0.01
     Davidson diagonalization with overlap
     ethr =  1.49E-06,  avg # of iterations =  1.0

     total cpu time spent up to now is      219.7 secs

     total energy              =     -15.66598460 Ry
     estimated scf accuracy    <       0.00034851 Ry

     iteration # 13     ecut=    50.00 Ry     beta= 0.01
     Davidson diagonalization with overlap
     ethr =  1.49E-06,  avg # of iterations =  1.0

     total cpu time spent up to now is      226.1 secs

     total energy              =     -15.66592307 Ry
     estimated scf accuracy    <       0.00033118 Ry

     iteration # 14     ecut=    50.00 Ry     beta= 0.01
     Davidson diagonalization with overlap
     ethr =  1.49E-06,  avg # of iterations =  1.0

     total cpu time spent up to now is      232.5 secs

     total energy              =     -15.66592384 Ry
     estimated scf accuracy    <       0.00020027 Ry

     iteration # 15     ecut=    50.00 Ry     beta= 0.01
     Davidson diagonalization with overlap
     ethr =  1.49E-06,  avg # of iterations =  1.0

     total cpu time spent up to now is      238.7 secs

     total energy              =     -15.66586353 Ry
     estimated scf accuracy    <       0.00020978 Ry

     iteration # 16     ecut=    50.00 Ry     beta= 0.01
     Davidson diagonalization with overlap
     ethr =  1.49E-06,  avg # of iterations =  1.7

     total cpu time spent up to now is      245.2 secs

     total energy              =     -15.66581189 Ry
     estimated scf accuracy    <       0.00003524 Ry

     iteration # 17     ecut=    50.00 Ry     beta= 0.01
     Davidson diagonalization with overlap
     c_bands:  1 eigenvalues not converged
     ethr =  4.40E-07,  avg # of iterations =  6.3

     total cpu time spent up to now is      256.3 secs

     total energy              =     -15.66589191 Ry
     estimated scf accuracy    <       0.00009070 Ry

     iteration # 18     ecut=    50.00 Ry     beta= 0.01
     Davidson diagonalization with overlap
     ethr =  4.40E-07,  avg # of iterations =  4.0

     total cpu time spent up to now is      260.8 secs

     total energy              =     -15.66591654 Ry
     estimated scf accuracy    <       0.00005649 Ry

     iteration # 19     ecut=    50.00 Ry     beta= 0.01
     Davidson diagonalization with overlap
     ethr =  4.40E-07,  avg # of iterations =  1.0

     total cpu time spent up to now is      263.9 secs

     total energy              =     -15.66591487 Ry
     estimated scf accuracy    <       0.00006754 Ry

     iteration # 20     ecut=    50.00 Ry     beta= 0.01
     Davidson diagonalization with overlap
     ethr =  4.40E-07,  avg # of iterations =  1.0

     total cpu time spent up to now is      266.9 secs

     total energy              =     -15.66590409 Ry
     estimated scf accuracy    <       0.00008489 Ry

     iteration # 21     ecut=    50.00 Ry     beta= 0.01
     Davidson diagonalization with overlap
     ethr =  4.40E-07,  avg # of iterations =  2.9

     total cpu time spent up to now is      270.8 secs

     total energy              =     -15.66591945 Ry
     estimated scf accuracy    <       0.00000962 Ry

     iteration # 22     ecut=    50.00 Ry     beta= 0.01
     Davidson diagonalization with overlap
     c_bands:  1 eigenvalues not converged
     c_bands:  1 eigenvalues not converged
     ethr =  1.20E-07,  avg # of iterations =  6.7

     total cpu time spent up to now is      277.6 secs

     total energy              =     -15.66592738 Ry
     estimated scf accuracy    <       0.00002882 Ry

     iteration # 23     ecut=    50.00 Ry     beta= 0.01
     Davidson diagonalization with overlap
     c_bands:  1 eigenvalues not converged
     ethr =  1.20E-07,  avg # of iterations =  2.0

     total cpu time spent up to now is      280.6 secs

     total energy              =     -15.66592563 Ry
     estimated scf accuracy    <       0.00002748 Ry

     iteration # 24     ecut=    50.00 Ry     beta= 0.01
     Davidson diagonalization with overlap
     c_bands:  1 eigenvalues not converged
     ethr =  1.20E-07,  avg # of iterations =  1.4

     total cpu time spent up to now is      283.5 secs

     total energy              =     -15.66591749 Ry
     estimated scf accuracy    <       0.00003357 Ry

     iteration # 25     ecut=    50.00 Ry     beta= 0.01
     Davidson diagonalization with overlap
     c_bands:  1 eigenvalues not converged
     ethr =  1.20E-07,  avg # of iterations =  1.4

     total cpu time spent up to now is      286.8 secs

     total energy              =     -15.66591711 Ry
     estimated scf accuracy    <       0.00000906 Ry

     iteration # 26     ecut=    50.00 Ry     beta= 0.01
     Davidson diagonalization with overlap
     c_bands:  1 eigenvalues not converged
     ethr =  1.13E-07,  avg # of iterations =  4.2

     total cpu time spent up to now is      291.2 secs

     total energy              =     -15.66591957 Ry
     estimated scf accuracy    <       0.00000213 Ry

     iteration # 27     ecut=    50.00 Ry     beta= 0.01
     Davidson diagonalization with overlap
     c_bands:  1 eigenvalues not converged
     c_bands:  1 eigenvalues not converged
     c_bands:  1 eigenvalues not converged
     c_bands:  1 eigenvalues not converged
     ethr =  2.66E-08,  avg # of iterations =  5.0

     total cpu time spent up to now is      295.8 secs

     total energy              =     -15.66592020 Ry
     estimated scf accuracy    <       0.00000212 Ry

     iteration # 28     ecut=    50.00 Ry     beta= 0.01
     Davidson diagonalization with overlap
     c_bands:  1 eigenvalues not converged
     c_bands:  1 eigenvalues not converged
     c_bands:  1 eigenvalues not converged
     ethr =  2.65E-08,  avg # of iterations =  2.8

     total cpu time spent up to now is      299.3 secs

     End of self-consistent calculation

          k = 0.0000 0.0000 0.0000 (  3479 PWs)   bands (ev):

    -8.9709  -3.6018   0.7749   0.7749

          k =-0.1000 0.1000-0.1000 (  3461 PWs)   bands (ev):

    -8.9066  -3.8169   0.6748   0.6750

          k =-0.2000 0.2000-0.2000 (  3458 PWs)   bands (ev):

    -8.7202  -4.3519   0.4592   0.4592

          k =-0.3000 0.3000-0.3000 (  3434 PWs)   bands (ev):

    -8.4387  -5.0009   0.2489   0.2837

          k =-0.4000 0.4000-0.4000 (  3449 PWs)   bands (ev):

    -8.1358  -5.5656   0.0905   0.1066

          k = 0.5000-0.5000 0.5000 (  3444 PWs)   bands (ev):

    -7.9857  -5.8091   0.0207   0.0571

          k = 0.0000 0.2000 0.0000 (  3447 PWs)   bands (ev):

    -8.8846  -3.8826   0.5137   0.5137

          k =-0.1000 0.3000-0.1000 (  3469 PWs)   bands (ev):

    -8.7374  -4.2972   0.2244   0.2784

          k =-0.2000 0.4000-0.2000 (  3441 PWs)   bands (ev):

    -8.4826  -4.8922  -0.1394   0.0778

          k =-0.3000 0.5000-0.3000 (  3452 PWs)   bands (ev):

    -8.1721  -5.4820  -0.4423  -0.0365

          k = 0.6000-0.4000 0.6000 (  3448 PWs)   bands (ev):

    -7.9432  -5.8516  -0.6135  -0.0469

          k = 0.5000-0.3000 0.5000 (  3442 PWs)   bands (ev):

    -7.9981  -5.7670  -0.6291   0.0460

          k = 0.4000-0.2000 0.4000 (  3441 PWs)   bands (ev):

    -8.2783  -5.2939  -0.4831   0.2259

          k = 0.3000-0.1000 0.3000 (  3450 PWs)   bands (ev):

    -8.5793  -4.6830  -0.1829   0.4533

          k = 0.2000 0.0000 0.2000 (  3465 PWs)   bands (ev):

    -8.8009  -4.1299   0.2385   0.6444

          k = 0.0000 0.4000 0.0000 (  3471 PWs)   bands (ev):

    -8.6288  -4.5518   0.0325   0.0325

          k =-0.1000 0.5000-0.1000 (  3452 PWs)   bands (ev):

    -8.4055  -5.0230  -0.2970  -0.1725

          k =-0.2000 0.6000-0.2000 (  3443 PWs)   bands (ev):

    -8.1014  -5.5629  -0.6957  -0.2839

          k = 0.7000-0.3000 0.7000 (  3438 PWs)   bands (ev):

    -7.8154  -5.9940  -0.9938  -0.2833

          k = 0.6000-0.2000 0.6000 (  3441 PWs)   bands (ev):

    -7.7702  -6.0565  -1.1141  -0.1722

          k = 0.5000-0.1000 0.5000 (  3444 PWs)   bands (ev):

    -8.0176  -5.6976  -1.0245   0.0285

          k = 0.4000 0.0000 0.4000 (  3443 PWs)   bands (ev):

    -8.3302  -5.1763  -0.7103   0.2693

          k = 0.0000 0.6000 0.0000 (  3443 PWs)   bands (ev):

    -8.2126  -5.3656  -0.3901  -0.3901

          k =-0.1000 0.7000-0.1000 (  3443 PWs)   bands (ev):

    -7.9245  -5.8189  -0.6857  -0.5159

          k = 0.8000-0.2000 0.8000 (  3439 PWs)   bands (ev):

    -7.6042  -6.2513  -1.0567  -0.5267

          k = 0.7000-0.1000 0.7000 (  3437 PWs)   bands (ev):

    -7.4704  -6.4134  -1.2932  -0.4215

          k = 0.6000-0.0000 0.6000 (  3448 PWs)   bands (ev):

    -7.6991  -6.1305  -1.2961  -0.2198

          k = 0.0000 0.8000 0.0000 (  3427 PWs)   bands (ev):

    -7.6518  -6.1930  -0.6635  -0.6635

          k = 0.9000-0.1000 0.9000 (  3424 PWs)   bands (ev):

    -7.3161  -6.5958  -0.8887  -0.6970

          k = 0.8000 0.0000 0.8000 (  3440 PWs)   bands (ev):

    -7.1668  -6.7543  -1.1811  -0.6112

          k = 0.0000-1.0000 0.0000 (  3442 PWs)   bands (ev):

    -6.9687  -6.9687  -0.7572  -0.7572

          k =-0.2000 0.4000 0.0000 (  3456 PWs)   bands (ev):

    -8.5530  -4.7291  -0.2460   0.1818

          k =-0.3000 0.5000-0.1000 (  3447 PWs)   bands (ev):

    -8.2719  -5.2814  -0.6474   0.0053

          k = 0.6000-0.4000 0.8000 (  3434 PWs)   bands (ev):

    -7.9626  -5.7900  -0.9011  -0.1464

          k = 0.5000-0.3000 0.7000 (  3432 PWs)   bands (ev):

    -7.8039  -6.0210  -0.9870  -0.2029

          k =-0.2000 0.6000 0.0000 (  3459 PWs)   bands (ev):

    -8.1515  -5.4713  -0.6423  -0.3224

          k = 0.7000-0.3000 0.9000 (  3443 PWs)   bands (ev):

    -7.8335  -5.9504  -0.9750  -0.4590

          k = 0.6000-0.2000 0.8000 (  3432 PWs)   bands (ev):

    -7.5879  -6.2743  -1.1926  -0.4832

          k = 0.5000-0.1000 0.7000 (  3439 PWs)   bands (ev):

    -7.6699  -6.1697  -1.2287  -0.3775

          k = 0.4000 0.0000 0.6000 (  3441 PWs)   bands (ev):

    -7.9743  -5.7515  -1.0475  -0.1811

          k = 0.8000-0.2000 1.0000 (  3432 PWs)   bands (ev):

    -7.6139  -6.2374  -0.8615  -0.6917

          k = 0.7000-0.1000 0.9000 (  3428 PWs)   bands (ev):

    -7.3040  -6.6016  -1.1278  -0.7345

          k = 0.6000 0.0000 0.8000 (  3438 PWs)   bands (ev):

    -7.3519  -6.5454  -1.2964  -0.6066

          k =-0.2000-1.0000 0.0000 (  3412 PWs)   bands (ev):

    -6.9653  -6.9653  -0.8780  -0.8780

          k = 0.6000-0.2000 1.0000 (  3425 PWs)   bands (ev):

    -7.5078  -6.3627  -1.1658  -0.6910

          k = 0.5000-0.1000 0.9000 (  3428 PWs)   bands (ev):

    -7.2963  -6.6054  -1.2228  -0.7990

          k =-0.4000-1.0000 0.0000 (  3414 PWs)   bands (ev):

    -6.9598  -6.9598  -1.0418  -1.0418

     highest occupied level (ev):     0.7749

!    total energy              =     -15.66592054 Ry
     estimated scf accuracy    <       0.00000024 Ry

     The total energy is the sum of the following terms:
     one-electron contribution =      -0.33996450 Ry
     hartree contribution      =       1.89292810 Ry
     xc contribution           =      -4.16985240 Ry
     ewald contribution        =     -13.04903175 Ry

     convergence has been achieved in  28 iterations
     Writing meta-gga kinetic term

     Writing all to output data dir ./input_pw/Ge/13/pwscf.save/
     Writing meta-gga kinetic term
 
     init_run     :     11.51s CPU     24.29s WALL (       1 calls)
     electrons    :    210.45s CPU    274.84s WALL (       1 calls)

     Called by init_run:
     wfcinit      :     11.31s CPU     23.81s WALL (       1 calls)
     potinit      :      0.09s CPU      0.24s WALL (       1 calls)
     hinit0       :      0.07s CPU      0.17s WALL (       1 calls)

     Called by electrons:
     c_bands      :    173.63s CPU    227.33s WALL (      29 calls)
     sum_band     :     33.16s CPU     43.00s WALL (      29 calls)
     v_of_rho     :      1.94s CPU      2.52s WALL (      29 calls)
     mix_rho      :      1.71s CPU      2.10s WALL (      29 calls)

     Called by c_bands:
     init_us_2    :      1.02s CPU      1.29s WALL (    2773 calls)
     init_us_2:cp :      1.01s CPU      1.28s WALL (    2773 calls)
     cegterg      :    172.37s CPU    225.62s WALL (    1363 calls)

     Called by *egterg:
     cdiaghg      :      0.36s CPU      0.48s WALL (    5040 calls)
     h_psi        :    180.94s CPU    245.59s WALL (    5134 calls)
     g_psi        :      0.11s CPU      0.15s WALL (    3724 calls)

     Called by h_psi:
     h_psi:calbec :      0.63s CPU      0.84s WALL (    5134 calls)
     vloc_psi     :     44.73s CPU     61.08s WALL (    5134 calls)
     add_vuspsi   :      0.47s CPU      0.56s WALL (    5134 calls)
     h_psi_meta   :    134.91s CPU    182.87s WALL (    5134 calls)

     General routines
     calbec       :      0.61s CPU      0.82s WALL (    5134 calls)
     fft          :      0.38s CPU      0.45s WALL (     347 calls)
     ffts         :      0.63s CPU      0.71s WALL (     571 calls)
     fftw         :    172.43s CPU    231.87s WALL (  154776 calls)
     interpolate  :      0.01s CPU      0.01s WALL (      29 calls)
 
     Parallel routines
 
     PWSCF        :   3m42.00s CPU   4m59.27s WALL

 
   This run was terminated on:  11:50:50  29Mar2023            

=------------------------------------------------------------------------------=
   JOB DONE.
=------------------------------------------------------------------------------=
