
     Program PWSCF v.7.0 starts on  7Jul2023 at 14:25:49 

     This program is part of the open-source Quantum ESPRESSO suite
     for quantum simulation of materials; please cite
         "P. Giannozzi et al., J. Phys.:Condens. Matter 21 395502 (2009);
         "P. Giannozzi et al., J. Phys.:Condens. Matter 29 465901 (2017);
         "P. Giannozzi et al., J. Chem. Phys. 152 154105 (2020);
          URL http://www.quantum-espresso.org", 
     in publications or presentations arising from this work. More details at
     http://www.quantum-espresso.org/quote

     Parallel version (MPI), running on     1 processors

     MPI processes distributed on     1 nodes
     27080 MiB available memory on the printing compute node when the environment starts
 
     Waiting for input...
     Reading input from standard input
Warning: card &CELL ignored
Warning: card / ignored

     Current dimensions of program PWSCF are:
     Max number of different atomic species (ntypx) = 10
     Max number of k-points (npk) =  40000
     Max angular momentum in pseudopotentials (lmaxx) =  4
     file Ge.SCAN.UPF2: wavefunction(s)  0D renormalized

     WARNING: the MGGA functional with ID    5 has been 
     read together with other dft terms, but it should 
     stand alone in order to work properly. The other 
     terms will be ignored.

     Subspace diagonalization in iterative solution of the eigenvalue problem:
     a serial algorithm will be used

 
     G-vector sticks info
     --------------------
     sticks:   dense  smooth     PW     G-vecs:    dense   smooth      PW
     Sum        1201    1201    361                27581    27581    4477
 
     Using Slab Decomposition
 


     bravais-lattice index     =            2
     lattice parameter (alat)  =      13.2100  a.u.
     unit-cell volume          =     576.2981 (a.u.)^3
     number of atoms/cell      =            2
     number of atomic types    =            1
     number of electrons       =         8.00
     number of Kohn-Sham states=            4
     kinetic-energy cutoff     =      50.0000  Ry
     charge density cutoff     =     200.0000  Ry
     scf convergence threshold =      2.0E-05
     mixing beta               =       0.2000
     number of iterations used =            8  local-TF  mixing
     Exchange-correlation= SLA  PW  SCAN SCAN
                           (   0   0   0   0   0 263 267)

     celldm(1)=  13.209987  celldm(2)=   0.000000  celldm(3)=   0.000000
     celldm(4)=   0.000000  celldm(5)=   0.000000  celldm(6)=   0.000000

     crystal axes: (cart. coord. in units of alat)
               a(1) = (  -0.500000   0.000000   0.500000 )  
               a(2) = (   0.000000   0.500000   0.500000 )  
               a(3) = (  -0.500000   0.500000   0.000000 )  

     reciprocal axes: (cart. coord. in units 2 pi/alat)
               b(1) = ( -1.000000 -1.000000  1.000000 )  
               b(2) = (  1.000000  1.000000  1.000000 )  
               b(3) = ( -1.000000  1.000000 -1.000000 )  


     PseudoPot. # 1 for Ge read from file:
     ~/Documents/TA/PWDFT.jl/pseudopotentials/scan_upf/Ge.SCAN.UPF2
     MD5 check sum: Not computed, couldn't open file
     Pseudo is Norm-conserving, Zval =  4.0
     Generated by new atomic code, or converted to UPF format
     Using radial grid of 1557 points,  2 beta functions with: 
                l(1) =   0
                l(2) =   1

     atomic species   valence    mass     pseudopotential
        Ge             4.00    72.64000     Ge( 1.00)

     48 Sym. Ops., with inversion, found (24 have fractional translation)



   Cartesian axes

     site n.     atom                  positions (alat units)
         1           Ge  tau(   1) = (   0.0000000   0.0000000   0.0000000  )
         2           Ge  tau(   2) = (   0.2500000   0.2500000   0.2500000  )

     number of k points=    47
                       cart. coord. in units 2pi/alat
        k(    1) = (   0.0000000   0.0000000   0.0000000), wk =   0.0020000
        k(    2) = (  -0.1000000   0.1000000  -0.1000000), wk =   0.0160000
        k(    3) = (  -0.2000000   0.2000000  -0.2000000), wk =   0.0160000
        k(    4) = (  -0.3000000   0.3000000  -0.3000000), wk =   0.0160000
        k(    5) = (  -0.4000000   0.4000000  -0.4000000), wk =   0.0160000
        k(    6) = (   0.5000000  -0.5000000   0.5000000), wk =   0.0080000
        k(    7) = (   0.0000000   0.2000000   0.0000000), wk =   0.0120000
        k(    8) = (  -0.1000000   0.3000000  -0.1000000), wk =   0.0480000
        k(    9) = (  -0.2000000   0.4000000  -0.2000000), wk =   0.0480000
        k(   10) = (  -0.3000000   0.5000000  -0.3000000), wk =   0.0480000
        k(   11) = (   0.6000000  -0.4000000   0.6000000), wk =   0.0480000
        k(   12) = (   0.5000000  -0.3000000   0.5000000), wk =   0.0480000
        k(   13) = (   0.4000000  -0.2000000   0.4000000), wk =   0.0480000
        k(   14) = (   0.3000000  -0.1000000   0.3000000), wk =   0.0480000
        k(   15) = (   0.2000000   0.0000000   0.2000000), wk =   0.0240000
        k(   16) = (   0.0000000   0.4000000   0.0000000), wk =   0.0120000
        k(   17) = (  -0.1000000   0.5000000  -0.1000000), wk =   0.0480000
        k(   18) = (  -0.2000000   0.6000000  -0.2000000), wk =   0.0480000
        k(   19) = (   0.7000000  -0.3000000   0.7000000), wk =   0.0480000
        k(   20) = (   0.6000000  -0.2000000   0.6000000), wk =   0.0480000
        k(   21) = (   0.5000000  -0.1000000   0.5000000), wk =   0.0480000
        k(   22) = (   0.4000000   0.0000000   0.4000000), wk =   0.0240000
        k(   23) = (   0.0000000   0.6000000   0.0000000), wk =   0.0120000
        k(   24) = (  -0.1000000   0.7000000  -0.1000000), wk =   0.0480000
        k(   25) = (   0.8000000  -0.2000000   0.8000000), wk =   0.0480000
        k(   26) = (   0.7000000  -0.1000000   0.7000000), wk =   0.0480000
        k(   27) = (   0.6000000  -0.0000000   0.6000000), wk =   0.0240000
        k(   28) = (   0.0000000   0.8000000   0.0000000), wk =   0.0120000
        k(   29) = (   0.9000000  -0.1000000   0.9000000), wk =   0.0480000
        k(   30) = (   0.8000000   0.0000000   0.8000000), wk =   0.0240000
        k(   31) = (   0.0000000  -1.0000000   0.0000000), wk =   0.0060000
        k(   32) = (  -0.2000000   0.4000000   0.0000000), wk =   0.0480000
        k(   33) = (  -0.3000000   0.5000000  -0.1000000), wk =   0.0960000
        k(   34) = (   0.6000000  -0.4000000   0.8000000), wk =   0.0960000
        k(   35) = (   0.5000000  -0.3000000   0.7000000), wk =   0.0480000
        k(   36) = (  -0.2000000   0.6000000   0.0000000), wk =   0.0480000
        k(   37) = (   0.7000000  -0.3000000   0.9000000), wk =   0.0960000
        k(   38) = (   0.6000000  -0.2000000   0.8000000), wk =   0.0960000
        k(   39) = (   0.5000000  -0.1000000   0.7000000), wk =   0.0960000
        k(   40) = (   0.4000000   0.0000000   0.6000000), wk =   0.0480000
        k(   41) = (   0.8000000  -0.2000000   1.0000000), wk =   0.0480000
        k(   42) = (   0.7000000  -0.1000000   0.9000000), wk =   0.0960000
        k(   43) = (   0.6000000   0.0000000   0.8000000), wk =   0.0480000
        k(   44) = (  -0.2000000  -1.0000000   0.0000000), wk =   0.0240000
        k(   45) = (   0.6000000  -0.2000000   1.0000000), wk =   0.0480000
        k(   46) = (   0.5000000  -0.1000000   0.9000000), wk =   0.0480000
        k(   47) = (  -0.4000000  -1.0000000   0.0000000), wk =   0.0240000

     Dense  grid:    27581 G-vectors     FFT dimensions: (  48,  48,  48)

     Estimated max dynamical RAM per process >      54.50 MB

     WARNING: libxc functional with ID  263 depends
      on external parameters: check the user_guide of
      QE if you need to modify them or to check their
      default values.

     Initial potential from superposition of free atoms

     starting charge       7.9987, renormalised to       8.0000
     Starting wfcs are   18 randomized atomic wfcs

     total cpu time spent up to now is       23.6 secs

     Self-consistent Calculation

     iteration #  1     ecut=    50.00 Ry     beta= 0.20
     Davidson diagonalization with overlap
     ethr =  1.00E-02,  avg # of iterations =  1.0

     Threshold (ethr) on eigenvalues was too large:
     Diagonalizing with lowered threshold

     Davidson diagonalization with overlap
     ethr =  2.06E-04,  avg # of iterations =  5.2

     total cpu time spent up to now is       67.8 secs

     total energy              =     -15.64212801 Ry
     estimated scf accuracy    <       0.01823726 Ry

     iteration #  2     ecut=    50.00 Ry     beta= 0.20
     Davidson diagonalization with overlap
     ethr =  2.28E-04,  avg # of iterations =  1.5

     total cpu time spent up to now is       83.0 secs

     total energy              =     -15.66254698 Ry
     estimated scf accuracy    <       0.01291682 Ry

     iteration #  3     ecut=    50.00 Ry     beta= 0.20
     Davidson diagonalization with overlap
     ethr =  1.61E-04,  avg # of iterations =  2.0

     total cpu time spent up to now is       96.7 secs

     total energy              =     -15.66416350 Ry
     estimated scf accuracy    <       0.00076908 Ry

     iteration #  4     ecut=    50.00 Ry     beta= 0.20
     Davidson diagonalization with overlap
     ethr =  9.61E-06,  avg # of iterations =  8.9

     total cpu time spent up to now is      121.6 secs

     total energy              =     -15.66557699 Ry
     estimated scf accuracy    <       0.00067071 Ry

     iteration #  5     ecut=    50.00 Ry     beta= 0.20
     Davidson diagonalization with overlap
     ethr =  8.38E-06,  avg # of iterations =  3.2

     total cpu time spent up to now is      130.0 secs

     total energy              =     -15.66576149 Ry
     estimated scf accuracy    <       0.00019376 Ry

     iteration #  6     ecut=    50.00 Ry     beta= 0.20
     Davidson diagonalization with overlap
     ethr =  2.42E-06,  avg # of iterations =  5.8

     total cpu time spent up to now is      141.9 secs

     total energy              =     -15.66587232 Ry
     estimated scf accuracy    <       0.00012619 Ry

     iteration #  7     ecut=    50.00 Ry     beta= 0.20
     Davidson diagonalization with overlap
     ethr =  1.58E-06,  avg # of iterations =  2.1

     total cpu time spent up to now is      145.6 secs

     total energy              =     -15.66587860 Ry
     estimated scf accuracy    <       0.00004147 Ry

     iteration #  8     ecut=    50.00 Ry     beta= 0.20
     Davidson diagonalization with overlap
     ethr =  5.18E-07,  avg # of iterations =  6.7

     total cpu time spent up to now is      151.8 secs

     End of self-consistent calculation

          k = 0.0000 0.0000 0.0000 (  3479 PWs)   bands (ev):

    -8.9724  -3.5940   0.7745   0.7746

          k =-0.1000 0.1000-0.1000 (  3461 PWs)   bands (ev):

    -8.9080  -3.8098   0.6743   0.6755

          k =-0.2000 0.2000-0.2000 (  3458 PWs)   bands (ev):

    -8.7214  -4.3464   0.4584   0.4599

          k =-0.3000 0.3000-0.3000 (  3434 PWs)   bands (ev):

    -8.4396  -4.9969   0.2479   0.2859

          k =-0.4000 0.4000-0.4000 (  3449 PWs)   bands (ev):

    -8.1362  -5.5628   0.0926   0.1055

          k = 0.5000-0.5000 0.5000 (  3444 PWs)   bands (ev):

    -7.9860  -5.8068   0.0230   0.0559

          k = 0.0000 0.2000 0.0000 (  3447 PWs)   bands (ev):

    -8.8860  -3.8757   0.5130   0.5130

          k =-0.1000 0.3000-0.1000 (  3469 PWs)   bands (ev):

    -8.7386  -4.2915   0.2238   0.2775

          k =-0.2000 0.4000-0.2000 (  3441 PWs)   bands (ev):

    -8.4835  -4.8880  -0.1399   0.0767

          k =-0.3000 0.5000-0.3000 (  3452 PWs)   bands (ev):

    -8.1727  -5.4790  -0.4427  -0.0378

          k = 0.6000-0.4000 0.6000 (  3448 PWs)   bands (ev):

    -7.9434  -5.8492  -0.6140  -0.0481

          k = 0.5000-0.3000 0.5000 (  3442 PWs)   bands (ev):

    -7.9984  -5.7645  -0.6297   0.0449

          k = 0.4000-0.2000 0.4000 (  3441 PWs)   bands (ev):

    -8.2790  -5.2905  -0.4838   0.2249

          k = 0.3000-0.1000 0.3000 (  3450 PWs)   bands (ev):

    -8.5804  -4.6783  -0.1837   0.4526

          k = 0.2000 0.0000 0.2000 (  3465 PWs)   bands (ev):

    -8.8022  -4.1237   0.2377   0.6439

          k = 0.0000 0.4000 0.0000 (  3471 PWs)   bands (ev):

    -8.6299  -4.5467   0.0313   0.0313

          k =-0.1000 0.5000-0.1000 (  3452 PWs)   bands (ev):

    -8.4063  -5.0189  -0.2982  -0.1738

          k =-0.2000 0.6000-0.2000 (  3443 PWs)   bands (ev):

    -8.1019  -5.5598  -0.6969  -0.2854

          k = 0.7000-0.3000 0.7000 (  3438 PWs)   bands (ev):

    -7.8155  -5.9917  -0.9951  -0.2847

          k = 0.6000-0.2000 0.6000 (  3441 PWs)   bands (ev):

    -7.7703  -6.0544  -1.1155  -0.1736

          k = 0.5000-0.1000 0.5000 (  3444 PWs)   bands (ev):

    -8.0179  -5.6948  -1.0259   0.0273

          k = 0.4000 0.0000 0.4000 (  3443 PWs)   bands (ev):

    -8.3309  -5.1725  -0.7117   0.2684

          k = 0.0000 0.6000 0.0000 (  3443 PWs)   bands (ev):

    -8.2132  -5.3620  -0.3917  -0.3917

          k =-0.1000 0.7000-0.1000 (  3443 PWs)   bands (ev):

    -7.9247  -5.8162  -0.6873  -0.5176

          k = 0.8000-0.2000 0.8000 (  3439 PWs)   bands (ev):

    -7.6040  -6.2493  -1.0584  -0.5284

          k = 0.7000-0.1000 0.7000 (  3437 PWs)   bands (ev):

    -7.4700  -6.4117  -1.2950  -0.4231

          k = 0.6000-0.0000 0.6000 (  3448 PWs)   bands (ev):

    -7.6990  -6.1283  -1.2978  -0.2212

          k = 0.0000 0.8000 0.0000 (  3427 PWs)   bands (ev):

    -7.6517  -6.1909  -0.6653  -0.6653

          k = 0.9000-0.1000 0.9000 (  3424 PWs)   bands (ev):

    -7.3156  -6.5943  -0.8905  -0.6989

          k = 0.8000 0.0000 0.8000 (  3440 PWs)   bands (ev):

    -7.1660  -6.7530  -1.1830  -0.6130

          k = 0.0000-1.0000 0.0000 (  3442 PWs)   bands (ev):

    -6.9677  -6.9677  -0.7591  -0.7591

          k =-0.2000 0.4000 0.0000 (  3456 PWs)   bands (ev):

    -8.5540  -4.7244  -0.2471   0.1809

          k =-0.3000 0.5000-0.1000 (  3447 PWs)   bands (ev):

    -8.2726  -5.2779  -0.6486   0.0043

          k = 0.6000-0.4000 0.8000 (  3434 PWs)   bands (ev):

    -7.9628  -5.7874  -0.9023  -0.1477

          k = 0.5000-0.3000 0.7000 (  3432 PWs)   bands (ev):

    -7.8040  -6.0189  -0.9881  -0.2043

          k =-0.2000 0.6000 0.0000 (  3459 PWs)   bands (ev):

    -8.1520  -5.4680  -0.6438  -0.3238

          k = 0.7000-0.3000 0.9000 (  3443 PWs)   bands (ev):

    -7.8336  -5.9479  -0.9765  -0.4605

          k = 0.6000-0.2000 0.8000 (  3432 PWs)   bands (ev):

    -7.5877  -6.2724  -1.1943  -0.4847

          k = 0.5000-0.1000 0.7000 (  3439 PWs)   bands (ev):

    -7.6698  -6.1676  -1.2303  -0.3789

          k = 0.4000 0.0000 0.6000 (  3441 PWs)   bands (ev):

    -7.9745  -5.7487  -1.0490  -0.1824

          k = 0.8000-0.2000 1.0000 (  3432 PWs)   bands (ev):

    -7.6138  -6.2354  -0.8633  -0.6935

          k = 0.7000-0.1000 0.9000 (  3428 PWs)   bands (ev):

    -7.3034  -6.6001  -1.1297  -0.7362

          k = 0.6000 0.0000 0.8000 (  3438 PWs)   bands (ev):

    -7.3514  -6.5438  -1.2983  -0.6082

          k =-0.2000-1.0000 0.0000 (  3412 PWs)   bands (ev):

    -6.9643  -6.9643  -0.8798  -0.8798

          k = 0.6000-0.2000 1.0000 (  3425 PWs)   bands (ev):

    -7.5075  -6.3609  -1.1676  -0.6926

          k = 0.5000-0.1000 0.9000 (  3428 PWs)   bands (ev):

    -7.2956  -6.6039  -1.2246  -0.8007

          k =-0.4000-1.0000 0.0000 (  3414 PWs)   bands (ev):

    -6.9588  -6.9588  -1.0436  -1.0436

     highest occupied level (ev):     0.7746

!    total energy              =     -15.66590219 Ry
     estimated scf accuracy    <       0.00000063 Ry

     The total energy is the sum of the following terms:
     one-electron contribution =      -0.34016592 Ry
     hartree contribution      =       1.89329196 Ry
     xc contribution           =      -4.16999648 Ry
     ewald contribution        =     -13.04903175 Ry

     convergence has been achieved in   8 iterations
     Writing meta-gga kinetic term

     Writing all to output data dir ./input_pw/Ge/13/pwscf.save/
     Writing meta-gga kinetic term
 
     init_run     :     11.48s CPU     23.47s WALL (       1 calls)
     electrons    :     89.75s CPU    128.21s WALL (       1 calls)

     Called by init_run:
     wfcinit      :     11.29s CPU     22.95s WALL (       1 calls)
     potinit      :      0.08s CPU      0.27s WALL (       1 calls)
     hinit0       :      0.07s CPU      0.17s WALL (       1 calls)

     Called by electrons:
     c_bands      :     77.63s CPU    110.17s WALL (       9 calls)
     sum_band     :     11.11s CPU     16.62s WALL (       9 calls)
     v_of_rho     :      0.62s CPU      1.00s WALL (       9 calls)
     mix_rho      :      0.45s CPU      0.58s WALL (       9 calls)

     Called by c_bands:
     init_us_2    :      0.35s CPU      0.49s WALL (     893 calls)
     init_us_2:cp :      0.35s CPU      0.49s WALL (     893 calls)
     cegterg      :     77.21s CPU    109.66s WALL (     423 calls)

     Called by *egterg:
     cdiaghg      :      0.16s CPU      0.19s WALL (    2092 calls)
     h_psi        :     87.06s CPU    130.64s WALL (    2186 calls)
     g_psi        :      0.06s CPU      0.07s WALL (    1716 calls)

     Called by h_psi:
     h_psi:calbec :      0.29s CPU      0.42s WALL (    2186 calls)
     vloc_psi     :     21.57s CPU     32.30s WALL (    2186 calls)
     add_vuspsi   :      0.23s CPU      0.33s WALL (    2186 calls)
     h_psi_meta   :     64.88s CPU     97.43s WALL (    2186 calls)

     General routines
     calbec       :      0.28s CPU      0.42s WALL (    2186 calls)
     fft          :      0.12s CPU      0.22s WALL (     107 calls)
     ffts         :      0.19s CPU      0.25s WALL (     151 calls)
     fftw         :     79.61s CPU    119.34s WALL (   67312 calls)
     interpolate  :      0.00s CPU      0.00s WALL (       9 calls)
 
     Parallel routines
 
     PWSCF        :   1m41.27s CPU   2m31.81s WALL

 
   This run was terminated on:  14:28:21   7Jul2023            

=------------------------------------------------------------------------------=
   JOB DONE.
=------------------------------------------------------------------------------=
