
     Program PWSCF v.7.0 starts on 14Mar2023 at 11:36:59 

     This program is part of the open-source Quantum ESPRESSO suite
     for quantum simulation of materials; please cite
         "P. Giannozzi et al., J. Phys.:Condens. Matter 21 395502 (2009);
         "P. Giannozzi et al., J. Phys.:Condens. Matter 29 465901 (2017);
         "P. Giannozzi et al., J. Chem. Phys. 152 154105 (2020);
          URL http://www.quantum-espresso.org", 
     in publications or presentations arising from this work. More details at
     http://www.quantum-espresso.org/quote

     Parallel version (MPI), running on     1 processors

     MPI processes distributed on     1 nodes
     27138 MiB available memory on the printing compute node when the environment starts
 
     Waiting for input...
     Reading input from standard input
Warning: card &CELL ignored
Warning: card / ignored

     Current dimensions of program PWSCF are:
     Max number of different atomic species (ntypx) = 10
     Max number of k-points (npk) =  40000
     Max angular momentum in pseudopotentials (lmaxx) =  4
     file Ge.SCAN.UPF2: wavefunction(s)  0D renormalized

     WARNING: the MGGA functional with ID    5 has been 
     read together with other dft terms, but it should 
     stand alone in order to work properly. The other 
     terms will be ignored.

     Subspace diagonalization in iterative solution of the eigenvalue problem:
     a serial algorithm will be used

 
     G-vector sticks info
     --------------------
     sticks:   dense  smooth     PW     G-vecs:    dense   smooth      PW
     Sum        1261    1261    367                29363    29363    4645
 
     Using Slab Decomposition
 


     bravais-lattice index     =            2
     lattice parameter (alat)  =      13.4972  a.u.
     unit-cell volume          =     614.7111 (a.u.)^3
     number of atoms/cell      =            2
     number of atomic types    =            1
     number of electrons       =         8.00
     number of Kohn-Sham states=            4
     kinetic-energy cutoff     =      50.0000  Ry
     charge density cutoff     =     200.0000  Ry
     scf convergence threshold =      1.0E-06
     mixing beta               =       0.0100
     number of iterations used =            8  local-TF  mixing
     Exchange-correlation= SLA  PW  SCAN SCAN
                           (   0   0   0   0   0 263 267)

     celldm(1)=  13.497200  celldm(2)=   0.000000  celldm(3)=   0.000000
     celldm(4)=   0.000000  celldm(5)=   0.000000  celldm(6)=   0.000000

     crystal axes: (cart. coord. in units of alat)
               a(1) = (  -0.500000   0.000000   0.500000 )  
               a(2) = (   0.000000   0.500000   0.500000 )  
               a(3) = (  -0.500000   0.500000   0.000000 )  

     reciprocal axes: (cart. coord. in units 2 pi/alat)
               b(1) = ( -1.000000 -1.000000  1.000000 )  
               b(2) = (  1.000000  1.000000  1.000000 )  
               b(3) = ( -1.000000  1.000000 -1.000000 )  


     PseudoPot. # 1 for Ge read from file:
     ~/Documents/TA/PWDFT.jl/pseudopotentials/scan_upf/Ge.SCAN.UPF2
     MD5 check sum: Not computed, couldn't open file
     Pseudo is Norm-conserving, Zval =  4.0
     Generated by new atomic code, or converted to UPF format
     Using radial grid of 1557 points,  2 beta functions with: 
                l(1) =   0
                l(2) =   1

     atomic species   valence    mass     pseudopotential
        Ge             4.00    72.64000     Ge( 1.00)

     48 Sym. Ops., with inversion, found (24 have fractional translation)



   Cartesian axes

     site n.     atom                  positions (alat units)
         1           Ge  tau(   1) = (   0.0000000   0.0000000   0.0000000  )
         2           Ge  tau(   2) = (   0.2500000   0.2500000   0.2500000  )

     number of k points=    47
                       cart. coord. in units 2pi/alat
        k(    1) = (   0.0000000   0.0000000   0.0000000), wk =   0.0020000
        k(    2) = (  -0.1000000   0.1000000  -0.1000000), wk =   0.0160000
        k(    3) = (  -0.2000000   0.2000000  -0.2000000), wk =   0.0160000
        k(    4) = (  -0.3000000   0.3000000  -0.3000000), wk =   0.0160000
        k(    5) = (  -0.4000000   0.4000000  -0.4000000), wk =   0.0160000
        k(    6) = (   0.5000000  -0.5000000   0.5000000), wk =   0.0080000
        k(    7) = (   0.0000000   0.2000000   0.0000000), wk =   0.0120000
        k(    8) = (  -0.1000000   0.3000000  -0.1000000), wk =   0.0480000
        k(    9) = (  -0.2000000   0.4000000  -0.2000000), wk =   0.0480000
        k(   10) = (  -0.3000000   0.5000000  -0.3000000), wk =   0.0480000
        k(   11) = (   0.6000000  -0.4000000   0.6000000), wk =   0.0480000
        k(   12) = (   0.5000000  -0.3000000   0.5000000), wk =   0.0480000
        k(   13) = (   0.4000000  -0.2000000   0.4000000), wk =   0.0480000
        k(   14) = (   0.3000000  -0.1000000   0.3000000), wk =   0.0480000
        k(   15) = (   0.2000000   0.0000000   0.2000000), wk =   0.0240000
        k(   16) = (   0.0000000   0.4000000   0.0000000), wk =   0.0120000
        k(   17) = (  -0.1000000   0.5000000  -0.1000000), wk =   0.0480000
        k(   18) = (  -0.2000000   0.6000000  -0.2000000), wk =   0.0480000
        k(   19) = (   0.7000000  -0.3000000   0.7000000), wk =   0.0480000
        k(   20) = (   0.6000000  -0.2000000   0.6000000), wk =   0.0480000
        k(   21) = (   0.5000000  -0.1000000   0.5000000), wk =   0.0480000
        k(   22) = (   0.4000000   0.0000000   0.4000000), wk =   0.0240000
        k(   23) = (   0.0000000   0.6000000   0.0000000), wk =   0.0120000
        k(   24) = (  -0.1000000   0.7000000  -0.1000000), wk =   0.0480000
        k(   25) = (   0.8000000  -0.2000000   0.8000000), wk =   0.0480000
        k(   26) = (   0.7000000  -0.1000000   0.7000000), wk =   0.0480000
        k(   27) = (   0.6000000  -0.0000000   0.6000000), wk =   0.0240000
        k(   28) = (   0.0000000   0.8000000   0.0000000), wk =   0.0120000
        k(   29) = (   0.9000000  -0.1000000   0.9000000), wk =   0.0480000
        k(   30) = (   0.8000000   0.0000000   0.8000000), wk =   0.0240000
        k(   31) = (   0.0000000  -1.0000000   0.0000000), wk =   0.0060000
        k(   32) = (  -0.2000000   0.4000000   0.0000000), wk =   0.0480000
        k(   33) = (  -0.3000000   0.5000000  -0.1000000), wk =   0.0960000
        k(   34) = (   0.6000000  -0.4000000   0.8000000), wk =   0.0960000
        k(   35) = (   0.5000000  -0.3000000   0.7000000), wk =   0.0480000
        k(   36) = (  -0.2000000   0.6000000   0.0000000), wk =   0.0480000
        k(   37) = (   0.7000000  -0.3000000   0.9000000), wk =   0.0960000
        k(   38) = (   0.6000000  -0.2000000   0.8000000), wk =   0.0960000
        k(   39) = (   0.5000000  -0.1000000   0.7000000), wk =   0.0960000
        k(   40) = (   0.4000000   0.0000000   0.6000000), wk =   0.0480000
        k(   41) = (   0.8000000  -0.2000000   1.0000000), wk =   0.0480000
        k(   42) = (   0.7000000  -0.1000000   0.9000000), wk =   0.0960000
        k(   43) = (   0.6000000   0.0000000   0.8000000), wk =   0.0480000
        k(   44) = (  -0.2000000  -1.0000000   0.0000000), wk =   0.0240000
        k(   45) = (   0.6000000  -0.2000000   1.0000000), wk =   0.0480000
        k(   46) = (   0.5000000  -0.1000000   0.9000000), wk =   0.0480000
        k(   47) = (  -0.4000000  -1.0000000   0.0000000), wk =   0.0240000

     Dense  grid:    29363 G-vectors     FFT dimensions: (  48,  48,  48)

     Estimated max dynamical RAM per process >      57.22 MB

     WARNING: libxc functional with ID  263 depends
      on external parameters: check the user_guide of
      QE if you need to modify them or to check their
      default values.

     Initial potential from superposition of free atoms

     starting charge       7.9987, renormalised to       8.0000
     Starting wfcs are   18 randomized atomic wfcs

     total cpu time spent up to now is       19.4 secs

     Self-consistent Calculation

     iteration #  1     ecut=    50.00 Ry     beta= 0.01
     Davidson diagonalization with overlap
     ethr =  1.00E-02,  avg # of iterations =  1.0

     Threshold (ethr) on eigenvalues was too large:
     Diagonalizing with lowered threshold

     Davidson diagonalization with overlap
     ethr =  2.15E-04,  avg # of iterations =  5.0

     total cpu time spent up to now is       54.7 secs

     total energy              =     -15.60712416 Ry
     estimated scf accuracy    <       0.01772802 Ry

     iteration #  2     ecut=    50.00 Ry     beta= 0.01
     Davidson diagonalization with overlap
     ethr =  2.22E-04,  avg # of iterations =  1.0

     total cpu time spent up to now is       65.3 secs

     total energy              =     -15.61707005 Ry
     estimated scf accuracy    <       0.01755375 Ry

     iteration #  3     ecut=    50.00 Ry     beta= 0.01
     Davidson diagonalization with overlap
     ethr =  2.19E-04,  avg # of iterations =  1.0

     total cpu time spent up to now is       75.3 secs

     total energy              =     -15.63896755 Ry
     estimated scf accuracy    <       0.01380432 Ry

     iteration #  4     ecut=    50.00 Ry     beta= 0.01
     Davidson diagonalization with overlap
     ethr =  1.73E-04,  avg # of iterations =  2.0

     total cpu time spent up to now is       86.6 secs

     total energy              =     -15.64071589 Ry
     estimated scf accuracy    <       0.00077517 Ry

     iteration #  5     ecut=    50.00 Ry     beta= 0.01
     Davidson diagonalization with overlap
     ethr =  9.69E-06,  avg # of iterations =  8.1

     total cpu time spent up to now is      109.4 secs

     total energy              =     -15.64167667 Ry
     estimated scf accuracy    <       0.00106384 Ry

     iteration #  6     ecut=    50.00 Ry     beta= 0.01
     Davidson diagonalization with overlap
     ethr =  9.69E-06,  avg # of iterations =  1.9

     total cpu time spent up to now is      118.5 secs

     total energy              =     -15.64175070 Ry
     estimated scf accuracy    <       0.00120852 Ry

     iteration #  7     ecut=    50.00 Ry     beta= 0.01
     Davidson diagonalization with overlap
     ethr =  9.69E-06,  avg # of iterations =  1.0

     total cpu time spent up to now is      126.6 secs

     total energy              =     -15.64210749 Ry
     estimated scf accuracy    <       0.00115363 Ry

     iteration #  8     ecut=    50.00 Ry     beta= 0.01
     Davidson diagonalization with overlap
     ethr =  9.69E-06,  avg # of iterations =  1.8

     total cpu time spent up to now is      134.8 secs

     total energy              =     -15.64190439 Ry
     estimated scf accuracy    <       0.00094303 Ry

     iteration #  9     ecut=    50.00 Ry     beta= 0.01
     Davidson diagonalization with overlap
     ethr =  9.69E-06,  avg # of iterations =  1.0

     total cpu time spent up to now is      140.4 secs

     total energy              =     -15.64227066 Ry
     estimated scf accuracy    <       0.00066478 Ry

     iteration # 10     ecut=    50.00 Ry     beta= 0.01
     Davidson diagonalization with overlap
     ethr =  8.31E-06,  avg # of iterations =  4.8

     total cpu time spent up to now is      148.9 secs

     total energy              =     -15.64298210 Ry
     estimated scf accuracy    <       0.00119306 Ry

     iteration # 11     ecut=    50.00 Ry     beta= 0.01
     Davidson diagonalization with overlap
     ethr =  8.31E-06,  avg # of iterations =  1.3

     total cpu time spent up to now is      151.8 secs

     total energy              =     -15.64312860 Ry
     estimated scf accuracy    <       0.00202074 Ry

     iteration # 12     ecut=    50.00 Ry     beta= 0.01
     Davidson diagonalization with overlap
     ethr =  8.31E-06,  avg # of iterations =  1.0

     total cpu time spent up to now is      154.6 secs

     total energy              =     -15.64276183 Ry
     estimated scf accuracy    <       0.00243242 Ry

     iteration # 13     ecut=    50.00 Ry     beta= 0.01
     Davidson diagonalization with overlap
     ethr =  8.31E-06,  avg # of iterations =  1.0

     total cpu time spent up to now is      157.5 secs

     total energy              =     -15.64217796 Ry
     estimated scf accuracy    <       0.00145776 Ry

     iteration # 14     ecut=    50.00 Ry     beta= 0.01
     Davidson diagonalization with overlap
     ethr =  8.31E-06,  avg # of iterations =  1.8

     total cpu time spent up to now is      160.6 secs

     total energy              =     -15.64223850 Ry
     estimated scf accuracy    <       0.00003460 Ry

     iteration # 15     ecut=    50.00 Ry     beta= 0.01
     Davidson diagonalization with overlap
     ethr =  4.33E-07,  avg # of iterations =  8.6

     total cpu time spent up to now is      169.2 secs

     total energy              =     -15.64230430 Ry
     estimated scf accuracy    <       0.00000964 Ry

     iteration # 16     ecut=    50.00 Ry     beta= 0.01
     Davidson diagonalization with overlap
     ethr =  1.20E-07,  avg # of iterations =  6.1

     total cpu time spent up to now is      175.1 secs

     total energy              =     -15.64230954 Ry
     estimated scf accuracy    <       0.00001102 Ry

     iteration # 17     ecut=    50.00 Ry     beta= 0.01
     Davidson diagonalization with overlap
     ethr =  1.20E-07,  avg # of iterations =  2.7

     total cpu time spent up to now is      178.6 secs

     total energy              =     -15.64231346 Ry
     estimated scf accuracy    <       0.00000289 Ry

     iteration # 18     ecut=    50.00 Ry     beta= 0.01
     Davidson diagonalization with overlap
     c_bands:  1 eigenvalues not converged
     c_bands:  1 eigenvalues not converged
     ethr =  3.61E-08,  avg # of iterations =  5.6

     total cpu time spent up to now is      183.5 secs

     total energy              =     -15.64235726 Ry
     estimated scf accuracy    <       0.00000876 Ry

     iteration # 19     ecut=    50.00 Ry     beta= 0.01
     Davidson diagonalization with overlap
     c_bands:  1 eigenvalues not converged
     c_bands:  1 eigenvalues not converged
     ethr =  3.61E-08,  avg # of iterations = 11.4

     total cpu time spent up to now is      194.6 secs

     total energy              =     -15.64242880 Ry
     estimated scf accuracy    <       0.00016683 Ry

     iteration # 20     ecut=    50.00 Ry     beta= 0.01
     Davidson diagonalization with overlap
     c_bands:  1 eigenvalues not converged
     c_bands:  1 eigenvalues not converged
     ethr =  3.61E-08,  avg # of iterations =  9.2

     total cpu time spent up to now is      203.2 secs

     total energy              =     -15.64232993 Ry
     estimated scf accuracy    <       0.00039138 Ry

     iteration # 21     ecut=    50.00 Ry     beta= 0.01
     Davidson diagonalization with overlap
     c_bands:  1 eigenvalues not converged
     ethr =  3.61E-08,  avg # of iterations =  9.4

     total cpu time spent up to now is      212.1 secs

     total energy              =     -15.64231997 Ry
     estimated scf accuracy    <       0.00008386 Ry

     iteration # 22     ecut=    50.00 Ry     beta= 0.01
     Davidson diagonalization with overlap
     c_bands:  1 eigenvalues not converged
     ethr =  3.61E-08,  avg # of iterations =  5.6

     total cpu time spent up to now is      217.7 secs

     total energy              =     -15.64233342 Ry
     estimated scf accuracy    <       0.00003587 Ry

     iteration # 23     ecut=    50.00 Ry     beta= 0.01
     Davidson diagonalization with overlap
     c_bands:  1 eigenvalues not converged
     ethr =  3.61E-08,  avg # of iterations =  1.6

     total cpu time spent up to now is      220.5 secs

     total energy              =     -15.64231666 Ry
     estimated scf accuracy    <       0.00005610 Ry

     iteration # 24     ecut=    50.00 Ry     beta= 0.01
     Davidson diagonalization with overlap
     c_bands:  1 eigenvalues not converged
     ethr =  3.61E-08,  avg # of iterations =  5.0

     total cpu time spent up to now is      225.6 secs

     total energy              =     -15.64231845 Ry
     estimated scf accuracy    <       0.00001126 Ry

     iteration # 25     ecut=    50.00 Ry     beta= 0.01
     Davidson diagonalization with overlap
     c_bands:  1 eigenvalues not converged
     ethr =  3.61E-08,  avg # of iterations =  8.4

     total cpu time spent up to now is      233.6 secs

     total energy              =     -15.64231864 Ry
     estimated scf accuracy    <       0.00001400 Ry

     iteration # 26     ecut=    50.00 Ry     beta= 0.01
     Davidson diagonalization with overlap
     c_bands:  1 eigenvalues not converged
     ethr =  3.61E-08,  avg # of iterations =  2.7

     total cpu time spent up to now is      236.6 secs

     total energy              =     -15.64231976 Ry
     estimated scf accuracy    <       0.00000104 Ry

     iteration # 27     ecut=    50.00 Ry     beta= 0.01
     Davidson diagonalization with overlap
     c_bands:  1 eigenvalues not converged
     c_bands:  1 eigenvalues not converged
     c_bands:  1 eigenvalues not converged
     ethr =  1.30E-08,  avg # of iterations =  4.4

     total cpu time spent up to now is      240.3 secs

     End of self-consistent calculation

          k = 0.0000 0.0000 0.0000 (  3695 PWs)   bands (ev):

    -9.0916  -4.2774   0.4458   0.4458

          k =-0.1000 0.1000-0.1000 (  3683 PWs)   bands (ev):

    -9.0322  -4.4540   0.3535   0.3537

          k =-0.2000 0.2000-0.2000 (  3689 PWs)   bands (ev):

    -8.8606  -4.9043   0.1537   0.1840

          k =-0.3000 0.3000-0.3000 (  3681 PWs)   bands (ev):

    -8.6022  -5.4647  -0.0675  -0.0426

          k =-0.4000 0.4000-0.4000 (  3678 PWs)   bands (ev):

    -8.3261  -5.9602  -0.2611  -0.1760

          k = 0.5000-0.5000 0.5000 (  3648 PWs)   bands (ev):

    -8.1904  -6.1748  -0.3306  -0.2225

          k = 0.0000 0.2000 0.0000 (  3683 PWs)   bands (ev):

    -9.0119  -4.5095   0.2065   0.2065

          k =-0.1000 0.3000-0.1000 (  3674 PWs)   bands (ev):

    -8.8762  -4.8601  -0.0650  -0.0114

          k =-0.2000 0.4000-0.2000 (  3675 PWs)   bands (ev):

    -8.6421  -5.3741  -0.4110  -0.1990

          k =-0.3000 0.5000-0.3000 (  3679 PWs)   bands (ev):

    -8.3583  -5.8918  -0.7004  -0.3070

          k = 0.6000-0.4000 0.6000 (  3681 PWs)   bands (ev):

    -8.1506  -6.2183  -0.8626  -0.3179

          k = 0.5000-0.3000 0.5000 (  3677 PWs)   bands (ev):

    -8.2003  -6.1435  -0.8736  -0.2322

          k = 0.4000-0.2000 0.4000 (  3662 PWs)   bands (ev):

    -8.4552  -5.7258  -0.7291  -0.0651

          k = 0.3000-0.1000 0.3000 (  3668 PWs)   bands (ev):

    -8.7309  -5.1916  -0.4404   0.1461

          k = 0.2000 0.0000 0.2000 (  3681 PWs)   bands (ev):

    -8.9347  -4.7168  -0.0460   0.3237

          k = 0.0000 0.4000 0.0000 (  3651 PWs)   bands (ev):

    -8.7760  -5.0824  -0.2391  -0.2391

          k =-0.1000 0.5000-0.1000 (  3669 PWs)   bands (ev):

    -8.5706  -5.4954  -0.5461  -0.4304

          k =-0.2000 0.6000-0.2000 (  3643 PWs)   bands (ev):

    -8.2919  -5.9735  -0.9186  -0.5354

          k = 0.7000-0.3000 0.7000 (  3670 PWs)   bands (ev):

    -8.0318  -6.3574  -1.1968  -0.5361

          k = 0.6000-0.2000 0.6000 (  3669 PWs)   bands (ev):

    -7.9912  -6.4127  -1.3068  -0.4336

          k = 0.5000-0.1000 0.5000 (  3673 PWs)   bands (ev):

    -8.2161  -6.0921  -1.2193  -0.2477

          k = 0.4000 0.0000 0.4000 (  3693 PWs)   bands (ev):

    -8.5021  -5.6275  -0.9251  -0.0246

          k = 0.0000 0.6000 0.0000 (  3651 PWs)   bands (ev):

    -8.3928  -5.8020  -0.6331  -0.6331

          k =-0.1000 0.7000-0.1000 (  3663 PWs)   bands (ev):

    -8.1284  -6.2084  -0.9063  -0.7511

          k = 0.8000-0.2000 0.8000 (  3666 PWs)   bands (ev):

    -7.8361  -6.5979  -1.2477  -0.7619

          k = 0.7000-0.1000 0.7000 (  3668 PWs)   bands (ev):

    -7.7155  -6.7430  -1.4648  -0.6646

          k = 0.6000-0.0000 0.6000 (  3671 PWs)   bands (ev):

    -7.9246  -6.4858  -1.4669  -0.4776

          k = 0.0000 0.8000 0.0000 (  3639 PWs)   bands (ev):

    -7.8778  -6.5472  -0.8888  -0.8888

          k = 0.9000-0.1000 0.9000 (  3668 PWs)   bands (ev):

    -7.5708  -6.9130  -1.0947  -0.9205

          k = 0.8000 0.0000 0.8000 (  3672 PWs)   bands (ev):

    -7.4365  -7.0558  -1.3610  -0.8408

          k = 0.0000-1.0000 0.0000 (  3692 PWs)   bands (ev):

    -7.2528  -7.2528  -0.9766  -0.9766

          k =-0.2000 0.4000 0.0000 (  3669 PWs)   bands (ev):

    -8.7064  -5.2349  -0.4950  -0.1062

          k =-0.3000 0.5000-0.1000 (  3661 PWs)   bands (ev):

    -8.4485  -5.7209  -0.8707  -0.2695

          k = 0.6000-0.4000 0.8000 (  3656 PWs)   bands (ev):

    -8.1663  -6.1724  -1.1121  -0.4090

          k = 0.5000-0.3000 0.7000 (  3670 PWs)   bands (ev):

    -8.0225  -6.3778  -1.1946  -0.4609

          k =-0.2000 0.6000 0.0000 (  3667 PWs)   bands (ev):

    -8.3372  -5.8949  -0.8643  -0.5709

          k = 0.7000-0.3000 0.9000 (  3666 PWs)   bands (ev):

    -8.0463  -6.3246  -1.1729  -0.6967

          k = 0.6000-0.2000 0.8000 (  3668 PWs)   bands (ev):

    -7.8232  -6.6156  -1.3746  -0.7189

          k = 0.5000-0.1000 0.7000 (  3662 PWs)   bands (ev):

    -7.8980  -6.5209  -1.4065  -0.6215

          k = 0.4000 0.0000 0.6000 (  3670 PWs)   bands (ev):

    -8.1757  -6.1438  -1.2378  -0.4407

          k = 0.8000-0.2000 1.0000 (  3675 PWs)   bands (ev):

    -7.8439  -6.5872  -1.0689  -0.9123

          k = 0.7000-0.1000 0.9000 (  3674 PWs)   bands (ev):

    -7.5613  -6.9177  -1.3121  -0.9515

          k = 0.6000 0.0000 0.8000 (  3678 PWs)   bands (ev):

    -7.6066  -6.8650  -1.4665  -0.8331

          k =-0.2000-1.0000 0.0000 (  3678 PWs)   bands (ev):

    -7.2503  -7.2503  -1.0847  -1.0847

          k = 0.6000-0.2000 1.0000 (  3670 PWs)   bands (ev):

    -7.7482  -6.6999  -1.3470  -0.9091

          k = 0.5000-0.1000 0.9000 (  3674 PWs)   bands (ev):

    -7.5553  -6.9208  -1.3990  -1.0083

          k =-0.4000-1.0000 0.0000 (  3664 PWs)   bands (ev):

    -7.2462  -7.2462  -1.2321  -1.2321

     highest occupied level (ev):     0.4458

!    total energy              =     -15.64232106 Ry
     estimated scf accuracy    <       0.00000055 Ry

     The total energy is the sum of the following terms:
     one-electron contribution =      -0.71402930 Ry
     hartree contribution      =       1.97618398 Ry
     xc contribution           =      -4.13312036 Ry
     ewald contribution        =     -12.77135538 Ry

     convergence has been achieved in  27 iterations
     Writing meta-gga kinetic term

     Writing all to output data dir ./input_pw/Ge/13/pwscf.save/
     Writing meta-gga kinetic term
 
     init_run     :     10.51s CPU     19.30s WALL (       1 calls)
     electrons    :    185.94s CPU    220.93s WALL (       1 calls)

     Called by init_run:
     wfcinit      :     10.34s CPU     18.98s WALL (       1 calls)
     potinit      :      0.09s CPU      0.16s WALL (       1 calls)
     hinit0       :      0.05s CPU      0.12s WALL (       1 calls)

     Called by electrons:
     c_bands      :    159.17s CPU    189.00s WALL (      28 calls)
     sum_band     :     23.98s CPU     28.66s WALL (      28 calls)
     v_of_rho     :      1.58s CPU      1.91s WALL (      28 calls)
     mix_rho      :      1.23s CPU      1.39s WALL (      28 calls)

     Called by c_bands:
     init_us_2    :      0.88s CPU      0.99s WALL (    2679 calls)
     init_us_2:cp :      0.87s CPU      0.99s WALL (    2679 calls)
     cegterg      :    158.11s CPU    187.78s WALL (    1316 calls)

     Called by *egterg:
     cdiaghg      :      0.35s CPU      0.41s WALL (    6654 calls)
     h_psi        :    165.60s CPU    203.18s WALL (    6748 calls)
     g_psi        :      0.14s CPU      0.19s WALL (    5385 calls)

     Called by h_psi:
     h_psi:calbec :      0.56s CPU      0.65s WALL (    6748 calls)
     vloc_psi     :     40.99s CPU     50.49s WALL (    6748 calls)
     add_vuspsi   :      0.45s CPU      0.54s WALL (    6748 calls)
     h_psi_meta   :    123.41s CPU    151.27s WALL (    6748 calls)

     General routines
     calbec       :      0.55s CPU      0.63s WALL (    6748 calls)
     fft          :      0.28s CPU      0.40s WALL (     335 calls)
     ffts         :      0.48s CPU      0.54s WALL (     574 calls)
     fftw         :    159.37s CPU    194.31s WALL (  195312 calls)
     interpolate  :      0.01s CPU      0.01s WALL (      28 calls)
 
     Parallel routines
 
     PWSCF        :   3m16.49s CPU   4m 0.30s WALL

 
   This run was terminated on:  11:40:59  14Mar2023            

=------------------------------------------------------------------------------=
   JOB DONE.
=------------------------------------------------------------------------------=
