
     Program PWSCF v.7.0 starts on 18Feb2023 at 14:39:15 

     This program is part of the open-source Quantum ESPRESSO suite
     for quantum simulation of materials; please cite
         "P. Giannozzi et al., J. Phys.:Condens. Matter 21 395502 (2009);
         "P. Giannozzi et al., J. Phys.:Condens. Matter 29 465901 (2017);
         "P. Giannozzi et al., J. Chem. Phys. 152 154105 (2020);
          URL http://www.quantum-espresso.org", 
     in publications or presentations arising from this work. More details at
     http://www.quantum-espresso.org/quote

     Parallel version (MPI), running on     1 processors

     MPI processes distributed on     1 nodes
     8375 MiB available memory on the printing compute node when the environment starts
 
     Waiting for input...
     Reading input from standard input

     Current dimensions of program PWSCF are:
     Max number of different atomic species (ntypx) = 10
     Max number of k-points (npk) =  40000
     Max angular momentum in pseudopotentials (lmaxx) =  4
     file Cl.SCAN.UPF: wavefunction(s)  0D renormalized

     WARNING: the MGGA functional with ID    5 has been 
     read together with other dft terms, but it should 
     stand alone in order to work properly. The other 
     terms will be ignored.

     WARNING: the MGGA functional with ID    5 has been 
     read together with other dft terms, but it should 
     stand alone in order to work properly. The other 
     terms will be ignored.

     Subspace diagonalization in iterative solution of the eigenvalue problem:
     a serial algorithm will be used

 
     G-vector sticks info
     --------------------
     sticks:   dense  smooth     PW     G-vecs:    dense   smooth      PW
     Sum         733     733    223                12939    12939    2229
 
     Using Slab Decomposition
 


     bravais-lattice index     =            2
     lattice parameter (alat)  =      10.2631  a.u.
     unit-cell volume          =     270.2562 (a.u.)^3
     number of atoms/cell      =            2
     number of atomic types    =            2
     number of electrons       =         8.00
     number of Kohn-Sham states=            4
     kinetic-energy cutoff     =      50.0000  Ry
     charge density cutoff     =     200.0000  Ry
     scf convergence threshold =      1.0E-06
     mixing beta               =       0.0100
     number of iterations used =            8  local-TF  mixing
     energy convergence thresh.=      1.0E-04
     force convergence thresh. =      1.0E-03
     press convergence thresh. =      5.0E-01
     Exchange-correlation=  SLA  PW   SCAN SCAN
                           (   0   0   0   0   0 263 267)
     nstep                     =           50


     celldm(1)=  10.263100  celldm(2)=   0.000000  celldm(3)=   0.000000
     celldm(4)=   0.000000  celldm(5)=   0.000000  celldm(6)=   0.000000

     crystal axes: (cart. coord. in units of alat)
               a(1) = (  -0.500000   0.000000   0.500000 )  
               a(2) = (   0.000000   0.500000   0.500000 )  
               a(3) = (  -0.500000   0.500000   0.000000 )  

     reciprocal axes: (cart. coord. in units 2 pi/alat)
               b(1) = ( -1.000000 -1.000000  1.000000 )  
               b(2) = (  1.000000  1.000000  1.000000 )  
               b(3) = ( -1.000000  1.000000 -1.000000 )  


     PseudoPot. # 1 for Li read from file:
     ~/Documents/PWDFT.jl/pseudopotentials/scan_upf/Li.SCAN.UPF
     MD5 check sum: Not computed, couldn't open file
     Pseudo is Norm-conserving, Zval =  1.0
     Generated by new atomic code, or converted to UPF format
     Using radial grid of 1321 points,  1 beta functions with: 
                l(1) =   0

     PseudoPot. # 2 for Cl read from file:
     ~/Documents/PWDFT.jl/pseudopotentials/scan_upf/Cl.SCAN.UPF
     MD5 check sum: Not computed, couldn't open file
     Pseudo is Norm-conserving, Zval =  7.0
     Generated by new atomic code, or converted to UPF format
     Using radial grid of 1493 points,  2 beta functions with: 
                l(1) =   0
                l(2) =   1

     atomic species   valence    mass     pseudopotential
        Li             1.00     6.94100     Li( 1.00)
        Cl             7.00    35.45300     Cl( 1.00)

     48 Sym. Ops., with inversion, found



   Cartesian axes

     site n.     atom                  positions (alat units)
         1           Li  tau(   1) = (   0.0000000   0.0000000   0.0000000  )
         2           Cl  tau(   2) = (   0.5000000   0.5000000   0.5000000  )

     number of k points=    47
                       cart. coord. in units 2pi/alat
        k(    1) = (   0.0000000   0.0000000   0.0000000), wk =   0.0020000
        k(    2) = (  -0.1000000   0.1000000  -0.1000000), wk =   0.0160000
        k(    3) = (  -0.2000000   0.2000000  -0.2000000), wk =   0.0160000
        k(    4) = (  -0.3000000   0.3000000  -0.3000000), wk =   0.0160000
        k(    5) = (  -0.4000000   0.4000000  -0.4000000), wk =   0.0160000
        k(    6) = (   0.5000000  -0.5000000   0.5000000), wk =   0.0080000
        k(    7) = (   0.0000000   0.2000000   0.0000000), wk =   0.0120000
        k(    8) = (  -0.1000000   0.3000000  -0.1000000), wk =   0.0480000
        k(    9) = (  -0.2000000   0.4000000  -0.2000000), wk =   0.0480000
        k(   10) = (  -0.3000000   0.5000000  -0.3000000), wk =   0.0480000
        k(   11) = (   0.6000000  -0.4000000   0.6000000), wk =   0.0480000
        k(   12) = (   0.5000000  -0.3000000   0.5000000), wk =   0.0480000
        k(   13) = (   0.4000000  -0.2000000   0.4000000), wk =   0.0480000
        k(   14) = (   0.3000000  -0.1000000   0.3000000), wk =   0.0480000
        k(   15) = (   0.2000000   0.0000000   0.2000000), wk =   0.0240000
        k(   16) = (   0.0000000   0.4000000   0.0000000), wk =   0.0120000
        k(   17) = (  -0.1000000   0.5000000  -0.1000000), wk =   0.0480000
        k(   18) = (  -0.2000000   0.6000000  -0.2000000), wk =   0.0480000
        k(   19) = (   0.7000000  -0.3000000   0.7000000), wk =   0.0480000
        k(   20) = (   0.6000000  -0.2000000   0.6000000), wk =   0.0480000
        k(   21) = (   0.5000000  -0.1000000   0.5000000), wk =   0.0480000
        k(   22) = (   0.4000000   0.0000000   0.4000000), wk =   0.0240000
        k(   23) = (   0.0000000   0.6000000   0.0000000), wk =   0.0120000
        k(   24) = (  -0.1000000   0.7000000  -0.1000000), wk =   0.0480000
        k(   25) = (   0.8000000  -0.2000000   0.8000000), wk =   0.0480000
        k(   26) = (   0.7000000  -0.1000000   0.7000000), wk =   0.0480000
        k(   27) = (   0.6000000  -0.0000000   0.6000000), wk =   0.0240000
        k(   28) = (   0.0000000   0.8000000   0.0000000), wk =   0.0120000
        k(   29) = (   0.9000000  -0.1000000   0.9000000), wk =   0.0480000
        k(   30) = (   0.8000000   0.0000000   0.8000000), wk =   0.0240000
        k(   31) = (   0.0000000  -1.0000000   0.0000000), wk =   0.0060000
        k(   32) = (  -0.2000000   0.4000000   0.0000000), wk =   0.0480000
        k(   33) = (  -0.3000000   0.5000000  -0.1000000), wk =   0.0960000
        k(   34) = (   0.6000000  -0.4000000   0.8000000), wk =   0.0960000
        k(   35) = (   0.5000000  -0.3000000   0.7000000), wk =   0.0480000
        k(   36) = (  -0.2000000   0.6000000   0.0000000), wk =   0.0480000
        k(   37) = (   0.7000000  -0.3000000   0.9000000), wk =   0.0960000
        k(   38) = (   0.6000000  -0.2000000   0.8000000), wk =   0.0960000
        k(   39) = (   0.5000000  -0.1000000   0.7000000), wk =   0.0960000
        k(   40) = (   0.4000000   0.0000000   0.6000000), wk =   0.0480000
        k(   41) = (   0.8000000  -0.2000000   1.0000000), wk =   0.0480000
        k(   42) = (   0.7000000  -0.1000000   0.9000000), wk =   0.0960000
        k(   43) = (   0.6000000   0.0000000   0.8000000), wk =   0.0480000
        k(   44) = (  -0.2000000  -1.0000000   0.0000000), wk =   0.0240000
        k(   45) = (   0.6000000  -0.2000000   1.0000000), wk =   0.0480000
        k(   46) = (   0.5000000  -0.1000000   0.9000000), wk =   0.0480000
        k(   47) = (  -0.4000000  -1.0000000   0.0000000), wk =   0.0240000

     Dense  grid:    12939 G-vectors     FFT dimensions: (  36,  36,  36)

     Estimated max dynamical RAM per process >      25.63 MB

     WARNING: libxc functional with ID  263 depends
      on external parameters: check the user_guide of
      QE if you need to modify them or to check their
      default values.

     Initial potential from superposition of free atoms

     starting charge       7.9953, renormalised to       8.0000
     Starting wfcs are   13 randomized atomic wfcs

     total cpu time spent up to now is        1.8 secs

     Self-consistent Calculation

     iteration #  1     ecut=    50.00 Ry     beta= 0.01
     Davidson diagonalization with overlap
     ethr =  1.00E-02,  avg # of iterations =  1.0

     total cpu time spent up to now is        2.9 secs

     total energy              =     -30.65670906 Ry
     estimated scf accuracy    <       0.35669091 Ry

     iteration #  2     ecut=    50.00 Ry     beta= 0.01
     Davidson diagonalization with overlap
     ethr =  4.46E-03,  avg # of iterations =  1.0

     total cpu time spent up to now is        4.1 secs

     total energy              =     -30.68584534 Ry
     estimated scf accuracy    <       0.33962320 Ry

     iteration #  3     ecut=    50.00 Ry     beta= 0.01
     Davidson diagonalization with overlap
     ethr =  4.25E-03,  avg # of iterations =  1.0

     total cpu time spent up to now is        5.2 secs

     total energy              =     -30.73967133 Ry
     estimated scf accuracy    <       0.25285155 Ry

     iteration #  4     ecut=    50.00 Ry     beta= 0.01
     Davidson diagonalization with overlap
     ethr =  3.16E-03,  avg # of iterations =  1.0

     total cpu time spent up to now is        6.3 secs

     total energy              =     -30.74200980 Ry
     estimated scf accuracy    <       0.00517292 Ry

     iteration #  5     ecut=    50.00 Ry     beta= 0.01
     Davidson diagonalization with overlap
     ethr =  6.47E-05,  avg # of iterations =  1.0

     total cpu time spent up to now is        7.4 secs

     total energy              =     -30.74179116 Ry
     estimated scf accuracy    <       0.00516400 Ry

     iteration #  6     ecut=    50.00 Ry     beta= 0.01
     Davidson diagonalization with overlap
     ethr =  6.46E-05,  avg # of iterations =  1.0

     total cpu time spent up to now is        8.5 secs

     total energy              =     -30.73967424 Ry
     estimated scf accuracy    <       0.00440014 Ry

     iteration #  7     ecut=    50.00 Ry     beta= 0.01
     Davidson diagonalization with overlap
     ethr =  5.50E-05,  avg # of iterations =  2.0

     total cpu time spent up to now is       10.0 secs

     total energy              =     -30.74174772 Ry
     estimated scf accuracy    <       0.00366644 Ry

     iteration #  8     ecut=    50.00 Ry     beta= 0.01
     Davidson diagonalization with overlap
     ethr =  4.58E-05,  avg # of iterations =  1.0

     total cpu time spent up to now is       11.1 secs

     total energy              =     -30.74130113 Ry
     estimated scf accuracy    <       0.00342697 Ry

     iteration #  9     ecut=    50.00 Ry     beta= 0.01
     Davidson diagonalization with overlap
     ethr =  4.28E-05,  avg # of iterations =  1.0

     total cpu time spent up to now is       12.2 secs

     total energy              =     -30.74097751 Ry
     estimated scf accuracy    <       0.00162817 Ry

     iteration # 10     ecut=    50.00 Ry     beta= 0.01
     Davidson diagonalization with overlap
     ethr =  2.04E-05,  avg # of iterations =  1.9

     total cpu time spent up to now is       13.4 secs

     total energy              =     -30.74114440 Ry
     estimated scf accuracy    <       0.00001922 Ry

     iteration # 11     ecut=    50.00 Ry     beta= 0.01
     Davidson diagonalization with overlap
     ethr =  2.40E-07,  avg # of iterations =  2.0

     total cpu time spent up to now is       15.0 secs

     total energy              =     -30.74116941 Ry
     estimated scf accuracy    <       0.00001876 Ry

     iteration # 12     ecut=    50.00 Ry     beta= 0.01
     Davidson diagonalization with overlap
     ethr =  2.34E-07,  avg # of iterations =  2.0

     total cpu time spent up to now is       16.4 secs

     total energy              =     -30.74114184 Ry
     estimated scf accuracy    <       0.00006632 Ry

     iteration # 13     ecut=    50.00 Ry     beta= 0.01
     Davidson diagonalization with overlap
     ethr =  2.34E-07,  avg # of iterations =  2.0

     total cpu time spent up to now is       17.9 secs

     End of self-consistent calculation

          k = 0.0000 0.0000 0.0000 (  1639 PWs)   bands (ev):

   -13.6204  -0.2757  -0.2757  -0.2757

          k =-0.1000 0.1000-0.1000 (  1606 PWs)   bands (ev):

   -13.5840  -0.5471  -0.2961  -0.2961

          k =-0.2000 0.2000-0.2000 (  1606 PWs)   bands (ev):

   -13.4873  -1.1722  -0.3479  -0.3479

          k =-0.3000 0.3000-0.3000 (  1615 PWs)   bands (ev):

   -13.3625  -1.8366  -0.4091  -0.4091

          k =-0.4000 0.4000-0.4000 (  1616 PWs)   bands (ev):

   -13.2566  -2.3194  -0.4565  -0.4565

          k = 0.5000-0.5000 0.5000 (  1622 PWs)   bands (ev):

   -13.2149  -2.4945  -0.4741  -0.4741

          k = 0.0000 0.2000 0.0000 (  1599 PWs)   bands (ev):

   -13.5717  -0.5229  -0.3634  -0.3634

          k =-0.1000 0.3000-0.1000 (  1609 PWs)   bands (ev):

   -13.4949  -0.9998  -0.4521  -0.3997

          k =-0.2000 0.4000-0.2000 (  1607 PWs)   bands (ev):

   -13.3784  -1.6328  -0.5268  -0.4709

          k =-0.3000 0.5000-0.3000 (  1610 PWs)   bands (ev):

   -13.2648  -2.1570  -0.5736  -0.5605

          k = 0.6000-0.4000 0.6000 (  1609 PWs)   bands (ev):

   -13.2006  -2.4230  -0.6666  -0.5423

          k = 0.5000-0.3000 0.5000 (  1616 PWs)   bands (ev):

   -13.2148  -2.3633  -0.7145  -0.4791

          k = 0.4000-0.2000 0.4000 (  1621 PWs)   bands (ev):

   -13.3008  -1.9953  -0.6972  -0.3933

          k = 0.3000-0.1000 0.3000 (  1605 PWs)   bands (ev):

   -13.4206  -1.4243  -0.6113  -0.3161

          k = 0.2000 0.0000 0.2000 (  1592 PWs)   bands (ev):

   -13.5274  -0.8557  -0.4601  -0.2781

          k = 0.0000 0.4000 0.0000 (  1607 PWs)   bands (ev):

   -13.4410  -1.1149  -0.5840  -0.5840

          k =-0.1000 0.5000-0.1000 (  1612 PWs)   bands (ev):

   -13.3433  -1.5609  -0.7016  -0.6927

          k =-0.2000 0.6000-0.2000 (  1619 PWs)   bands (ev):

   -13.2366  -2.0020  -0.8760  -0.7404

          k = 0.7000-0.3000 0.7000 (  1606 PWs)   bands (ev):

   -13.1628  -2.2588  -1.0747  -0.7121

          k = 0.6000-0.2000 0.6000 (  1596 PWs)   bands (ev):

   -13.1541  -2.2599  -1.2132  -0.6171

          k = 0.5000-0.1000 0.5000 (  1610 PWs)   bands (ev):

   -13.2146  -2.0305  -1.2112  -0.4873

          k = 0.4000 0.0000 0.4000 (  1610 PWs)   bands (ev):

   -13.3172  -1.7092  -0.9928  -0.3708

          k = 0.0000 0.6000 0.0000 (  1620 PWs)   bands (ev):

   -13.2686  -1.7834  -0.8406  -0.8406

          k =-0.1000 0.7000-0.1000 (  1625 PWs)   bands (ev):

   -13.1812  -2.0774  -1.0140  -0.9203

          k = 0.8000-0.2000 0.8000 (  1619 PWs)   bands (ev):

   -13.1149  -2.2139  -1.3059  -0.9073

          k = 0.7000-0.1000 0.7000 (  1621 PWs)   bands (ev):

   -13.0976  -2.1125  -1.6252  -0.8056

          k = 0.6000-0.0000 0.6000 (  1608 PWs)   bands (ev):

   -13.1363  -1.9405  -1.6994  -0.6468

          k = 0.0000 0.8000 0.0000 (  1624 PWs)   bands (ev):

   -13.1191  -2.2977  -1.0369  -1.0369

          k = 0.9000-0.1000 0.9000 (  1623 PWs)   bands (ev):

   -13.0748  -2.3928  -1.1983  -1.0551

          k = 0.8000 0.0000 0.8000 (  1622 PWs)   bands (ev):

   -13.0667  -2.2743  -1.4915  -0.9697

          k = 0.0000-1.0000 0.0000 (  1604 PWs)   bands (ev):

   -13.0589  -2.4906  -1.1094  -1.1094

          k =-0.2000 0.4000 0.0000 (  1613 PWs)   bands (ev):

   -13.4075  -1.3610  -0.7020  -0.4255

          k =-0.3000 0.5000-0.1000 (  1609 PWs)   bands (ev):

   -13.2951  -1.8241  -0.9010  -0.4965

          k = 0.6000-0.4000 0.8000 (  1618 PWs)   bands (ev):

   -13.2005  -2.1964  -0.9996  -0.5875

          k = 0.5000-0.3000 0.7000 (  1608 PWs)   bands (ev):

   -13.1632  -2.3364  -1.0265  -0.6296

          k =-0.2000 0.6000 0.0000 (  1617 PWs)   bands (ev):

   -13.2500  -1.8588  -0.9812  -0.7337

          k = 0.7000-0.3000 0.9000 (  1621 PWs)   bands (ev):

   -13.1624  -2.0941  -1.2260  -0.8096

          k = 0.6000-0.2000 0.8000 (  1613 PWs)   bands (ev):

   -13.1158  -2.1697  -1.4316  -0.8172

          k = 0.5000-0.1000 0.7000 (  1613 PWs)   bands (ev):

   -13.1307  -2.0807  -1.5154  -0.7288

          k = 0.4000 0.0000 0.6000 (  1607 PWs)   bands (ev):

   -13.2002  -1.9545  -1.3220  -0.5957

          k = 0.8000-0.2000 1.0000 (  1621 PWs)   bands (ev):

   -13.1143  -2.2372  -1.1933  -1.0024

          k = 0.7000-0.1000 0.9000 (  1625 PWs)   bands (ev):

   -13.0763  -2.2114  -1.4776  -1.0088

          k = 0.6000 0.0000 0.8000 (  1614 PWs)   bands (ev):

   -13.0827  -1.9769  -1.7960  -0.8982

          k =-0.2000-1.0000 0.0000 (  1624 PWs)   bands (ev):

   -13.0602  -2.3813  -1.2714  -1.1039

          k = 0.6000-0.2000 1.0000 (  1616 PWs)   bands (ev):

   -13.1009  -2.0616  -1.5680  -0.9313

          k = 0.5000-0.1000 0.9000 (  1608 PWs)   bands (ev):

   -13.0769  -1.9716  -1.7620  -0.9955

          k =-0.4000-1.0000 0.0000 (  1626 PWs)   bands (ev):

   -13.0618  -2.0773  -1.6578  -1.0950

     highest occupied level (ev):    -0.2757

!    total energy              =     -30.74115246 Ry
     estimated scf accuracy    <       0.00000029 Ry

     The total energy is the sum of the following terms:
     one-electron contribution =      -7.24196413 Ry
     hartree contribution      =       6.63368103 Ry
     xc contribution           =      -6.30971995 Ry
     ewald contribution        =     -23.82314940 Ry

     convergence has been achieved in  13 iterations
     Writing meta-gga kinetic term

     Forces acting on atoms (cartesian axes, Ry/au):

     atom    1 type  1   force =     0.00000000    0.00000000    0.00000000
     atom    2 type  2   force =     0.00000000    0.00000000   -0.00000000

     Total force =     0.000000     Total SCF correction =     0.000000


     Computing stress (Cartesian axis) and pressure

          total   stress  (Ry/bohr**3)                   (kbar)     P=      -30.10
  -0.00020461  -0.00000000   0.00000000          -30.10       -0.00        0.00
  -0.00000000  -0.00020461   0.00000000           -0.00      -30.10        0.00
   0.00000000   0.00000000  -0.00020461            0.00        0.00      -30.10


     BFGS Geometry Optimization
     Energy error            =      0.0E+00 Ry
     Gradient error          =      2.7E-32 Ry/Bohr
     Cell gradient error     =      3.0E+01 kbar

     number of scf cycles    =   1
     number of bfgs steps    =   0

     enthalpy           new  =     -30.7411524600 Ry

     new trust radius        =       0.0168185057 bohr
     new conv_thr            =       0.0000010000 Ry

     new unit-cell volume =    266.13008 a.u.^3 (    39.43641 Ang^3 )
     density =      1.78507 g/cm^3

CELL_PARAMETERS (alat= 10.26310000)
  -0.497442359   0.000000000   0.497442359
   0.000000000   0.497442359   0.497442359
  -0.497442359   0.497442359  -0.000000000

ATOMIC_POSITIONS (alat)
Li            0.0000000000        0.0000000000        0.0000000000
Cl            0.4974423591        0.4974423591        0.4974423591



     Writing config-only to output data dir ./pwscf.save/
     NEW-OLD atomic charge density approx. for the potential
     extrapolated charge    7.87604, renormalised to    8.00000

     total cpu time spent up to now is       19.0 secs

     Self-consistent Calculation

     iteration #  1     ecut=    50.00 Ry     beta= 0.01
     Davidson diagonalization with overlap
     ethr =  1.00E-06,  avg # of iterations =  4.0

     total cpu time spent up to now is       21.1 secs

     total energy              =     -30.74029700 Ry
     estimated scf accuracy    <       0.00274050 Ry

     iteration #  2     ecut=    50.00 Ry     beta= 0.01
     Davidson diagonalization with overlap
     ethr =  3.43E-05,  avg # of iterations =  2.0

     total cpu time spent up to now is       22.6 secs

     total energy              =     -30.74187178 Ry
     estimated scf accuracy    <       0.00009014 Ry

     iteration #  3     ecut=    50.00 Ry     beta= 0.01
     Davidson diagonalization with overlap
     ethr =  1.13E-06,  avg # of iterations =  1.3

     total cpu time spent up to now is       23.7 secs

     total energy              =     -30.74187633 Ry
     estimated scf accuracy    <       0.00009139 Ry

     iteration #  4     ecut=    50.00 Ry     beta= 0.01
     Davidson diagonalization with overlap
     ethr =  1.13E-06,  avg # of iterations =  1.0

     total cpu time spent up to now is       24.8 secs

     total energy              =     -30.74190061 Ry
     estimated scf accuracy    <       0.00009295 Ry

     iteration #  5     ecut=    50.00 Ry     beta= 0.01
     Davidson diagonalization with overlap
     ethr =  1.13E-06,  avg # of iterations =  1.0

     total cpu time spent up to now is       25.9 secs

     total energy              =     -30.74195414 Ry
     estimated scf accuracy    <       0.00005475 Ry

     iteration #  6     ecut=    50.00 Ry     beta= 0.01
     Davidson diagonalization with overlap
     ethr =  6.84E-07,  avg # of iterations =  2.0

     total cpu time spent up to now is       27.5 secs

     total energy              =     -30.74196411 Ry
     estimated scf accuracy    <       0.00000217 Ry

     iteration #  7     ecut=    50.00 Ry     beta= 0.01
     Davidson diagonalization with overlap
     ethr =  2.71E-08,  avg # of iterations =  1.0

     total cpu time spent up to now is       28.6 secs

     total energy              =     -30.74196489 Ry
     estimated scf accuracy    <       0.00000206 Ry

     iteration #  8     ecut=    50.00 Ry     beta= 0.01
     Davidson diagonalization with overlap
     ethr =  2.58E-08,  avg # of iterations =  2.0

     total cpu time spent up to now is       30.1 secs

     End of self-consistent calculation

          k = 0.0000 0.0000 0.0000 (  1639 PWs)   bands (ev):

   -13.5561  -0.1687  -0.1687  -0.1687

          k =-0.1005 0.1005-0.1005 (  1606 PWs)   bands (ev):

   -13.5183  -0.4464  -0.1896  -0.1896

          k =-0.2010 0.2010-0.2010 (  1606 PWs)   bands (ev):

   -13.4178  -1.0861  -0.2428  -0.2428

          k =-0.3015 0.3015-0.3015 (  1615 PWs)   bands (ev):

   -13.2879  -1.7663  -0.3056  -0.3056

          k =-0.4021 0.4021-0.4021 (  1616 PWs)   bands (ev):

   -13.1775  -2.2608  -0.3542  -0.3542

          k = 0.5026-0.5026 0.5026 (  1622 PWs)   bands (ev):

   -13.1340  -2.4403  -0.3722  -0.3722

          k = 0.0000 0.2010 0.0000 (  1599 PWs)   bands (ev):

   -13.5056  -0.4209  -0.2590  -0.2590

          k =-0.1005 0.3015-0.1005 (  1609 PWs)   bands (ev):

   -13.4258  -0.9092  -0.3501  -0.2961

          k =-0.2010 0.4021-0.2010 (  1607 PWs)   bands (ev):

   -13.3045  -1.5575  -0.4269  -0.3693

          k =-0.3015 0.5026-0.3015 (  1610 PWs)   bands (ev):

   -13.1861  -2.0947  -0.4750  -0.4614

          k = 0.6031-0.4021 0.6031 (  1609 PWs)   bands (ev):

   -13.1190  -2.3675  -0.5706  -0.4425

          k = 0.5026-0.3015 0.5026 (  1616 PWs)   bands (ev):

   -13.1339  -2.3063  -0.6198  -0.3775

          k = 0.4021-0.2010 0.4021 (  1621 PWs)   bands (ev):

   -13.2236  -1.9289  -0.6022  -0.2893

          k = 0.3015-0.1005 0.3015 (  1605 PWs)   bands (ev):

   -13.3484  -1.3438  -0.5141  -0.2099

          k = 0.2010 0.0000 0.2010 (  1592 PWs)   bands (ev):

   -13.4595  -0.7617  -0.3586  -0.1709

          k = 0.0000 0.4021 0.0000 (  1607 PWs)   bands (ev):

   -13.3697  -1.0265  -0.4859  -0.4859

          k =-0.1005 0.5026-0.1005 (  1612 PWs)   bands (ev):

   -13.2679  -1.4838  -0.6068  -0.5975

          k =-0.2010 0.6031-0.2010 (  1619 PWs)   bands (ev):

   -13.1566  -1.9365  -0.7861  -0.6465

          k = 0.7036-0.3015 0.7036 (  1606 PWs)   bands (ev):

   -13.0796  -2.2004  -0.9902  -0.6173

          k = 0.6031-0.2010 0.6031 (  1596 PWs)   bands (ev):

   -13.0705  -2.2018  -1.1322  -0.5195

          k = 0.5026-0.1005 0.5026 (  1610 PWs)   bands (ev):

   -13.1337  -1.9656  -1.1306  -0.3860

          k = 0.4021 0.0000 0.4021 (  1610 PWs)   bands (ev):

   -13.2407  -1.6353  -0.9067  -0.2662

          k = 0.0000 0.6031 0.0000 (  1620 PWs)   bands (ev):

   -13.1900  -1.7125  -0.7495  -0.7495

          k =-0.1005 0.7036-0.1005 (  1625 PWs)   bands (ev):

   -13.0987  -2.0149  -0.9276  -0.8312

          k = 0.8041-0.2010 0.8041 (  1619 PWs)   bands (ev):

   -13.0294  -2.1561  -1.2270  -0.8179

          k = 0.7036-0.1005 0.7036 (  1621 PWs)   bands (ev):

   -13.0114  -2.0531  -1.5540  -0.7134

          k = 0.6031 0.0000 0.6031 (  1608 PWs)   bands (ev):

   -13.0519  -1.8744  -1.6316  -0.5501

          k = 0.0000 0.8041 0.0000 (  1624 PWs)   bands (ev):

   -13.0337  -2.2419  -0.9508  -0.9508

          k = 0.9046-0.1005 0.9046 (  1623 PWs)   bands (ev):

   -12.9875  -2.3404  -1.1164  -0.9695

          k = 0.8041 0.0000 0.8041 (  1622 PWs)   bands (ev):

   -12.9790  -2.2197  -1.4167  -0.8819

          k = 0.0000-1.0051 0.0000 (  1604 PWs)   bands (ev):

   -12.9708  -2.4408  -1.0252  -1.0252

          k =-0.2010 0.4021 0.0000 (  1613 PWs)   bands (ev):

   -13.3348  -1.2787  -0.6075  -0.3226

          k =-0.3015 0.5026-0.1005 (  1609 PWs)   bands (ev):

   -13.2177  -1.7535  -0.8120  -0.3955

          k = 0.6031-0.4021 0.8041 (  1618 PWs)   bands (ev):

   -13.1189  -2.1359  -0.9130  -0.4891

          k = 0.5026-0.3015 0.7036 (  1608 PWs)   bands (ev):

   -13.0800  -2.2797  -0.9406  -0.5324

          k =-0.2010 0.6031-0.0000 (  1617 PWs)   bands (ev):

   -13.1706  -1.7897  -0.8943  -0.6396

          k = 0.7036-0.3015 0.9046 (  1621 PWs)   bands (ev):

   -13.0791  -2.0320  -1.1457  -0.7174

          k = 0.6031-0.2010 0.8041 (  1613 PWs)   bands (ev):

   -13.0305  -2.1106  -1.3564  -0.7251

          k = 0.5026-0.1005 0.7036 (  1613 PWs)   bands (ev):

   -13.0460  -2.0189  -1.4425  -0.6343

          k = 0.4021-0.0000 0.6031 (  1607 PWs)   bands (ev):

   -13.1186  -1.8878  -1.2446  -0.4975

          k = 0.8041-0.2010 1.0051 (  1621 PWs)   bands (ev):

   -13.0287  -2.1800  -1.1119  -0.9152

          k = 0.7036-0.1005 0.9046 (  1625 PWs)   bands (ev):

   -12.9890  -2.1550  -1.4033  -0.9216

          k = 0.6031 0.0000 0.8041 (  1614 PWs)   bands (ev):

   -12.9958  -1.9156  -1.7284  -0.8082

          k =-0.2010-1.0051 0.0000 (  1624 PWs)   bands (ev):

   -12.9722  -2.3291  -1.1919  -1.0190

          k = 0.6031-0.2010 1.0051 (  1616 PWs)   bands (ev):

   -13.0148  -2.0003  -1.4967  -0.8419

          k = 0.5026-0.1005 0.9046 (  1608 PWs)   bands (ev):

   -12.9898  -1.9092  -1.6954  -0.9075

          k =-0.4021-1.0051 0.0000 (  1626 PWs)   bands (ev):

   -12.9739  -2.0184  -1.5887  -1.0092

     highest occupied level (ev):    -0.1687

!    total energy              =     -30.74196534 Ry
     estimated scf accuracy    <       0.00000010 Ry

     The total energy is the sum of the following terms:
     one-electron contribution =      -7.04106459 Ry
     hartree contribution      =       6.55843280 Ry
     xc contribution           =      -6.31369547 Ry
     ewald contribution        =     -23.94563808 Ry

     convergence has been achieved in   8 iterations
     Writing meta-gga kinetic term

     Forces acting on atoms (cartesian axes, Ry/au):

     atom    1 type  1   force =    -0.00000000   -0.00000000   -0.00000000
     atom    2 type  2   force =     0.00000000    0.00000000    0.00000000

     Total force =     0.000000     Total SCF correction =     0.000000


     Computing stress (Cartesian axis) and pressure

          total   stress  (Ry/bohr**3)                   (kbar)     P=      -27.62
  -0.00018778   0.00000000   0.00000000          -27.62        0.00        0.00
   0.00000000  -0.00018778  -0.00000000            0.00      -27.62       -0.00
   0.00000000  -0.00000000  -0.00018778            0.00       -0.00      -27.62

     Energy error            =      8.1E-04 Ry
     Gradient error          =      1.1E-30 Ry/Bohr
     Cell gradient error     =      2.8E+01 kbar

     number of scf cycles    =   2
     number of bfgs steps    =   1

     enthalpy           old  =     -30.7411524600 Ry
     enthalpy           new  =     -30.7419653365 Ry

     CASE: enthalpy          _new < enthalpy          _old


     WARNING: bfgs curvature condition failed, Theta= 0.881
     new trust radius        =       0.0251631523 bohr
     new conv_thr            =       0.0000000100 Ry

     new unit-cell volume =    260.01997 a.u.^3 (    38.53098 Ang^3 )
     density =      1.82702 g/cm^3

CELL_PARAMETERS (alat= 10.26310000)
  -0.493605898  -0.000000000   0.493605898
   0.000000000   0.493605898   0.493605898
  -0.493605898   0.493605898  -0.000000000

ATOMIC_POSITIONS (alat)
Li           -0.0000000000       -0.0000000000       -0.0000000000
Cl            0.4936058977        0.4936058977        0.4936058977



     Writing config-only to output data dir ./pwscf.save/
     NEW-OLD atomic charge density approx. for the potential
     extrapolated charge    7.81212, renormalised to    8.00000

     total cpu time spent up to now is       31.1 secs

     Self-consistent Calculation

     iteration #  1     ecut=    50.00 Ry     beta= 0.01
     Davidson diagonalization with overlap
     ethr =  1.00E-06,  avg # of iterations =  4.2

     total cpu time spent up to now is       33.4 secs

     total energy              =     -30.73936047 Ry
     estimated scf accuracy    <       0.00627031 Ry

     iteration #  2     ecut=    50.00 Ry     beta= 0.01
     Davidson diagonalization with overlap
     ethr =  7.84E-05,  avg # of iterations =  2.0

     total cpu time spent up to now is       34.9 secs

     total energy              =     -30.74284181 Ry
     estimated scf accuracy    <       0.00020767 Ry

     iteration #  3     ecut=    50.00 Ry     beta= 0.01
     Davidson diagonalization with overlap
     ethr =  2.60E-06,  avg # of iterations =  1.2

     total cpu time spent up to now is       36.0 secs

     total energy              =     -30.74285111 Ry
     estimated scf accuracy    <       0.00020439 Ry

     iteration #  4     ecut=    50.00 Ry     beta= 0.01
     Davidson diagonalization with overlap
     ethr =  2.55E-06,  avg # of iterations =  1.0

     total cpu time spent up to now is       37.1 secs

     total energy              =     -30.74289871 Ry
     estimated scf accuracy    <       0.00020745 Ry

     iteration #  5     ecut=    50.00 Ry     beta= 0.01
     Davidson diagonalization with overlap
     ethr =  2.55E-06,  avg # of iterations =  1.0

     total cpu time spent up to now is       38.2 secs

     total energy              =     -30.74298002 Ry
     estimated scf accuracy    <       0.00009587 Ry

     iteration #  6     ecut=    50.00 Ry     beta= 0.01
     Davidson diagonalization with overlap
     ethr =  1.20E-06,  avg # of iterations =  2.0

     total cpu time spent up to now is       39.6 secs

     total energy              =     -30.74299495 Ry
     estimated scf accuracy    <       0.00000522 Ry

     iteration #  7     ecut=    50.00 Ry     beta= 0.01
     Davidson diagonalization with overlap
     ethr =  6.53E-08,  avg # of iterations =  1.0

     total cpu time spent up to now is       40.7 secs

     total energy              =     -30.74299404 Ry
     estimated scf accuracy    <       0.00000452 Ry

     iteration #  8     ecut=    50.00 Ry     beta= 0.01
     Davidson diagonalization with overlap
     ethr =  5.65E-08,  avg # of iterations =  1.0

     total cpu time spent up to now is       41.8 secs

     total energy              =     -30.74299719 Ry
     estimated scf accuracy    <       0.00000452 Ry

     iteration #  9     ecut=    50.00 Ry     beta= 0.01
     Davidson diagonalization with overlap
     ethr =  5.65E-08,  avg # of iterations =  1.3

     total cpu time spent up to now is       43.0 secs

     total energy              =     -30.74299758 Ry
     estimated scf accuracy    <       0.00000378 Ry

     iteration # 10     ecut=    50.00 Ry     beta= 0.01
     Davidson diagonalization with overlap
     ethr =  4.72E-08,  avg # of iterations =  1.0

     total cpu time spent up to now is       44.1 secs

     total energy              =     -30.74299767 Ry
     estimated scf accuracy    <       0.00000411 Ry

     iteration # 11     ecut=    50.00 Ry     beta= 0.01
     Davidson diagonalization with overlap
     ethr =  4.72E-08,  avg # of iterations =  1.0

     total cpu time spent up to now is       45.2 secs

     total energy              =     -30.74299708 Ry
     estimated scf accuracy    <       0.00000418 Ry

     iteration # 12     ecut=    50.00 Ry     beta= 0.01
     Davidson diagonalization with overlap
     ethr =  4.72E-08,  avg # of iterations =  1.0

     total cpu time spent up to now is       46.3 secs

     total energy              =     -30.74299708 Ry
     estimated scf accuracy    <       0.00000117 Ry

     iteration # 13     ecut=    50.00 Ry     beta= 0.01
     Davidson diagonalization with overlap
     ethr =  1.46E-08,  avg # of iterations =  1.0

     total cpu time spent up to now is       47.4 secs

     total energy              =     -30.74299710 Ry
     estimated scf accuracy    <       0.00000075 Ry

     iteration # 14     ecut=    50.00 Ry     beta= 0.01
     Davidson diagonalization with overlap
     ethr =  9.36E-09,  avg # of iterations =  1.0

     total cpu time spent up to now is       48.5 secs

     total energy              =     -30.74299711 Ry
     estimated scf accuracy    <       0.00000079 Ry

     iteration # 15     ecut=    50.00 Ry     beta= 0.01
     Davidson diagonalization with overlap
     ethr =  9.36E-09,  avg # of iterations =  1.0

     total cpu time spent up to now is       49.6 secs

     total energy              =     -30.74299695 Ry
     estimated scf accuracy    <       0.00000079 Ry

     iteration # 16     ecut=    50.00 Ry     beta= 0.01
     Davidson diagonalization with overlap
     ethr =  9.36E-09,  avg # of iterations =  1.0

     total cpu time spent up to now is       50.7 secs

     total energy              =     -30.74299696 Ry
     estimated scf accuracy    <       0.00000010 Ry

     iteration # 17     ecut=    50.00 Ry     beta= 0.01
     Davidson diagonalization with overlap
     ethr =  1.24E-09,  avg # of iterations =  2.0

     total cpu time spent up to now is       52.2 secs

     total energy              =     -30.74299701 Ry
     estimated scf accuracy    <       0.00000013 Ry

     iteration # 18     ecut=    50.00 Ry     beta= 0.01
     Davidson diagonalization with overlap
     ethr =  1.24E-09,  avg # of iterations =  1.0

     total cpu time spent up to now is       53.3 secs

     total energy              =     -30.74299701 Ry
     estimated scf accuracy    <       0.00000006 Ry

     iteration # 19     ecut=    50.00 Ry     beta= 0.01
     Davidson diagonalization with overlap
     ethr =  7.25E-10,  avg # of iterations =  1.0

     total cpu time spent up to now is       54.4 secs

     total energy              =     -30.74299700 Ry
     estimated scf accuracy    <       0.00000005 Ry

     iteration # 20     ecut=    50.00 Ry     beta= 0.01
     Davidson diagonalization with overlap
     ethr =  6.06E-10,  avg # of iterations =  1.0

     total cpu time spent up to now is       55.5 secs

     total energy              =     -30.74299700 Ry
     estimated scf accuracy    <       0.00000001 Ry

     iteration # 21     ecut=    50.00 Ry     beta= 0.01
     Davidson diagonalization with overlap
     ethr =  1.36E-10,  avg # of iterations =  1.0

     total cpu time spent up to now is       56.6 secs

     total energy              =     -30.74299700 Ry
     estimated scf accuracy    <       0.00000001 Ry

     iteration # 22     ecut=    50.00 Ry     beta= 0.01
     Davidson diagonalization with overlap
     ethr =  1.36E-10,  avg # of iterations =  1.0

     total cpu time spent up to now is       57.8 secs

     total energy              =     -30.74299700 Ry
     estimated scf accuracy    <       0.00000001 Ry

     iteration # 23     ecut=    50.00 Ry     beta= 0.01
     Davidson diagonalization with overlap
     ethr =  1.36E-10,  avg # of iterations =  1.0

     total cpu time spent up to now is       58.8 secs

     total energy              =     -30.74299700 Ry
     estimated scf accuracy    <       0.00000001 Ry

     iteration # 24     ecut=    50.00 Ry     beta= 0.01
     Davidson diagonalization with overlap
     ethr =  1.34E-10,  avg # of iterations =  2.0

     total cpu time spent up to now is       60.2 secs

     End of self-consistent calculation

          k = 0.0000 0.0000 0.0000 (  1639 PWs)   bands (ev):

   -13.4624  -0.0082  -0.0082  -0.0082

          k =-0.1013 0.1013-0.1013 (  1606 PWs)   bands (ev):

   -13.4225  -0.2957  -0.0300  -0.0300

          k =-0.2026 0.2026-0.2026 (  1606 PWs)   bands (ev):

   -13.3161  -0.9578  -0.0854  -0.0854

          k =-0.3039 0.3039-0.3039 (  1615 PWs)   bands (ev):

   -13.1782  -1.6621  -0.1507  -0.1507

          k =-0.4052 0.4052-0.4052 (  1616 PWs)   bands (ev):

   -13.0607  -2.1749  -0.2012  -0.2012

          k = 0.5065-0.5065 0.5065 (  1622 PWs)   bands (ev):

   -13.0143  -2.3612  -0.2199  -0.2199

          k = 0.0000 0.2026 0.0000 (  1599 PWs)   bands (ev):

   -13.4091  -0.2682  -0.1026  -0.1026

          k =-0.1013 0.3039-0.1013 (  1609 PWs)   bands (ev):

   -13.3245  -0.7740  -0.1977  -0.1410

          k =-0.2026 0.4052-0.2026 (  1607 PWs)   bands (ev):

   -13.1959  -1.4457  -0.2776  -0.2174

          k =-0.3039 0.5065-0.3039 (  1610 PWs)   bands (ev):

   -13.0699  -2.0031  -0.3276  -0.3133

          k = 0.6078-0.4052 0.6078 (  1609 PWs)   bands (ev):

   -12.9984  -2.2864  -0.4272  -0.2933

          k = 0.5065-0.3039 0.5065 (  1616 PWs)   bands (ev):

   -13.0142  -2.2227  -0.4786  -0.2255

          k = 0.4052-0.2026 0.4052 (  1621 PWs)   bands (ev):

   -13.1098  -1.8309  -0.4604  -0.1335

          k = 0.3039-0.1013 0.3039 (  1605 PWs)   bands (ev):

   -13.2425  -1.2240  -0.3689  -0.0508

          k = 0.2026 0.0000 0.2026 (  1592 PWs)   bands (ev):

   -13.3603  -0.6213  -0.2068  -0.0103

          k = 0.0000 0.4052 0.0000 (  1607 PWs)   bands (ev):

   -13.2650  -0.8945  -0.3394  -0.3394

          k =-0.1013 0.5065-0.1013 (  1612 PWs)   bands (ev):

   -13.1569  -1.3692  -0.4654  -0.4556

          k =-0.2026 0.6078-0.2026 (  1619 PWs)   bands (ev):

   -13.0384  -1.8399  -0.6523  -0.5064

          k = 0.7091-0.3039 0.7091 (  1606 PWs)   bands (ev):

   -12.9563  -2.1149  -0.8645  -0.4759

          k = 0.6078-0.2026 0.6078 (  1596 PWs)   bands (ev):

   -12.9467  -2.1165  -1.0120  -0.3739

          k = 0.5065-0.1013 0.5065 (  1610 PWs)   bands (ev):

   -13.0141  -1.8699  -1.0110  -0.2345

          k = 0.4052 0.0000 0.4052 (  1610 PWs)   bands (ev):

   -13.1281  -1.5256  -0.7788  -0.1095

          k = 0.0000 0.6078 0.0000 (  1620 PWs)   bands (ev):

   -13.0740  -1.6076  -0.6138  -0.6138

          k =-0.1013 0.7091-0.1013 (  1625 PWs)   bands (ev):

   -12.9766  -1.9230  -0.7992  -0.6987

          k = 0.8104-0.2026 0.8104 (  1619 PWs)   bands (ev):

   -12.9026  -2.0715  -1.1103  -0.6847

          k = 0.7091-0.1013 0.7091 (  1621 PWs)   bands (ev):

   -12.8833  -1.9662  -1.4487  -0.5759

          k = 0.6078 0.0000 0.6078 (  1608 PWs)   bands (ev):

   -12.9267  -1.7769  -1.5319  -0.4058

          k = 0.0000 0.8104 0.0000 (  1624 PWs)   bands (ev):

   -12.9072  -2.1603  -0.8229  -0.8229

          k = 0.9117-0.1013 0.9117 (  1623 PWs)   bands (ev):

   -12.8577  -2.2641  -0.9949  -0.8422

          k = 0.8104 0.0000 0.8104 (  1622 PWs)   bands (ev):

   -12.8486  -2.1403  -1.3061  -0.7512

          k = 0.0000-1.0130 0.0000 (  1604 PWs)   bands (ev):

   -12.8399  -2.3685  -0.9000  -0.9000

          k =-0.2026 0.4052 0.0000 (  1613 PWs)   bands (ev):

   -13.2280  -1.1561  -0.4666  -0.1686

          k =-0.3039 0.5065-0.1013 (  1609 PWs)   bands (ev):

   -13.1035  -1.6491  -0.6795  -0.2447

          k = 0.6078-0.4052 0.8104 (  1618 PWs)   bands (ev):

   -12.9983  -2.0470  -0.7844  -0.3421

          k = 0.5065-0.3039 0.7091 (  1608 PWs)   bands (ev):

   -12.9567  -2.1968  -0.8129  -0.3872

          k =-0.2026 0.6078-0.0000 (  1617 PWs)   bands (ev):

   -13.0534  -1.6875  -0.7651  -0.4993

          k = 0.7091-0.3039 0.9117 (  1621 PWs)   bands (ev):

   -12.9558  -1.9407  -1.0267  -0.5800

          k = 0.6078-0.2026 0.8104 (  1613 PWs)   bands (ev):

   -12.9038  -2.0239  -1.2453  -0.5878

          k = 0.5065-0.1013 0.7091 (  1613 PWs)   bands (ev):

   -12.9204  -1.9280  -1.3348  -0.4933

          k = 0.4052 0.0000 0.6078 (  1607 PWs)   bands (ev):

   -12.9980  -1.7893  -1.1301  -0.3510

          k = 0.8104-0.2026 1.0130 (  1621 PWs)   bands (ev):

   -12.9019  -2.0963  -0.9911  -0.7854

          k = 0.7091-0.1013 0.9117 (  1625 PWs)   bands (ev):

   -12.8594  -2.0725  -1.2934  -0.7919

          k = 0.6078 0.0000 0.8104 (  1614 PWs)   bands (ev):

   -12.8667  -1.8259  -1.6287  -0.6741

          k =-0.2026-1.0130-0.0000 (  1624 PWs)   bands (ev):

   -12.8413  -2.2533  -1.0741  -0.8929

          k = 0.6078-0.2026 1.0130 (  1616 PWs)   bands (ev):

   -12.8870  -1.9104  -1.3916  -0.7088

          k = 0.5065-0.1013 0.9117 (  1608 PWs)   bands (ev):

   -12.8603  -1.8177  -1.5975  -0.7765

          k =-0.4052-1.0130 0.0000 (  1626 PWs)   bands (ev):

   -12.8432  -1.9321  -1.4869  -0.8815

     highest occupied level (ev):    -0.0082

!    total energy              =     -30.74299700 Ry
     estimated scf accuracy    <          1.3E-11 Ry

     The total energy is the sum of the following terms:
     one-electron contribution =      -6.73832044 Ry
     hartree contribution      =       6.44756688 Ry
     xc contribution           =      -6.32049229 Ry
     ewald contribution        =     -24.13175115 Ry

     convergence has been achieved in  24 iterations
     Writing meta-gga kinetic term

     Forces acting on atoms (cartesian axes, Ry/au):

     atom    1 type  1   force =     0.00000000    0.00000000    0.00000000
     atom    2 type  2   force =    -0.00000000   -0.00000000   -0.00000000

     Total force =     0.000000     Total SCF correction =     0.000000


     Computing stress (Cartesian axis) and pressure

          total   stress  (Ry/bohr**3)                   (kbar)     P=      -22.22
  -0.00015107  -0.00000000  -0.00000000          -22.22       -0.00       -0.00
  -0.00000000  -0.00015107   0.00000000           -0.00      -22.22        0.00
  -0.00000000   0.00000000  -0.00015107           -0.00        0.00      -22.22

     Energy error            =      1.0E-03 Ry
     Gradient error          =      8.0E-31 Ry/Bohr
     Cell gradient error     =      2.2E+01 kbar

     number of scf cycles    =   3
     number of bfgs steps    =   2

     enthalpy           old  =     -30.7419653365 Ry
     enthalpy           new  =     -30.7429969996 Ry

     CASE: enthalpy          _new < enthalpy          _old

     new trust radius        =       0.0375988959 bohr
     new conv_thr            =       0.0000000100 Ry

     new unit-cell volume =    251.03127 a.u.^3 (    37.19900 Ang^3 )
     density =      1.89244 g/cm^3

CELL_PARAMETERS (alat= 10.26310000)
  -0.487851206   0.000000000   0.487851206
   0.000000000   0.487851206   0.487851206
  -0.487851206   0.487851206  -0.000000000

ATOMIC_POSITIONS (alat)
Li           -0.0000000000       -0.0000000000       -0.0000000000
Cl            0.4878512057        0.4878512057        0.4878512057



     Writing config-only to output data dir ./pwscf.save/
     NEW-OLD atomic charge density approx. for the potential
     extrapolated charge    7.71371, renormalised to    8.00000

     total cpu time spent up to now is       61.3 secs

     Self-consistent Calculation

     iteration #  1     ecut=    50.00 Ry     beta= 0.01
     Davidson diagonalization with overlap
     ethr =  1.00E-06,  avg # of iterations =  4.9

     total cpu time spent up to now is       63.8 secs

     total energy              =     -30.73616564 Ry
     estimated scf accuracy    <       0.01400099 Ry

     iteration #  2     ecut=    50.00 Ry     beta= 0.01
     Davidson diagonalization with overlap
     ethr =  1.75E-04,  avg # of iterations =  2.0

     total cpu time spent up to now is       65.4 secs

     total energy              =     -30.74382779 Ry
     estimated scf accuracy    <       0.00047773 Ry

     iteration #  3     ecut=    50.00 Ry     beta= 0.01
     Davidson diagonalization with overlap
     ethr =  5.97E-06,  avg # of iterations =  1.2

     total cpu time spent up to now is       66.5 secs

     total energy              =     -30.74385368 Ry
     estimated scf accuracy    <       0.00046195 Ry

     iteration #  4     ecut=    50.00 Ry     beta= 0.01
     Davidson diagonalization with overlap
     ethr =  5.77E-06,  avg # of iterations =  1.0

     total cpu time spent up to now is       67.6 secs

     total energy              =     -30.74395389 Ry
     estimated scf accuracy    <       0.00046952 Ry

     iteration #  5     ecut=    50.00 Ry     beta= 0.01
     Davidson diagonalization with overlap
     ethr =  5.77E-06,  avg # of iterations =  1.0

     total cpu time spent up to now is       68.7 secs

     total energy              =     -30.74407670 Ry
     estimated scf accuracy    <       0.00014465 Ry

     iteration #  6     ecut=    50.00 Ry     beta= 0.01
     Davidson diagonalization with overlap
     ethr =  1.81E-06,  avg # of iterations =  2.0

     total cpu time spent up to now is       70.1 secs

     total energy              =     -30.74409671 Ry
     estimated scf accuracy    <       0.00001191 Ry

     iteration #  7     ecut=    50.00 Ry     beta= 0.01
     Davidson diagonalization with overlap
     ethr =  1.49E-07,  avg # of iterations =  1.0

     total cpu time spent up to now is       71.2 secs

     total energy              =     -30.74409782 Ry
     estimated scf accuracy    <       0.00001028 Ry

     iteration #  8     ecut=    50.00 Ry     beta= 0.01
     Davidson diagonalization with overlap
     ethr =  1.28E-07,  avg # of iterations =  1.0

     total cpu time spent up to now is       72.3 secs

     total energy              =     -30.74409682 Ry
     estimated scf accuracy    <       0.00000536 Ry

     iteration #  9     ecut=    50.00 Ry     beta= 0.01
     Davidson diagonalization with overlap
     ethr =  6.70E-08,  avg # of iterations =  2.0

     total cpu time spent up to now is       73.8 secs

     total energy              =     -30.74409865 Ry
     estimated scf accuracy    <       0.00000112 Ry

     iteration # 10     ecut=    50.00 Ry     beta= 0.01
     Davidson diagonalization with overlap
     ethr =  1.40E-08,  avg # of iterations =  1.0

     total cpu time spent up to now is       74.9 secs

     total energy              =     -30.74409866 Ry
     estimated scf accuracy    <       0.00000079 Ry

     iteration # 11     ecut=    50.00 Ry     beta= 0.01
     Davidson diagonalization with overlap
     ethr =  9.86E-09,  avg # of iterations =  1.0

     total cpu time spent up to now is       76.0 secs

     total energy              =     -30.74409870 Ry
     estimated scf accuracy    <       0.00000006 Ry

     iteration # 12     ecut=    50.00 Ry     beta= 0.01
     Davidson diagonalization with overlap
     ethr =  7.32E-10,  avg # of iterations =  1.0

     total cpu time spent up to now is       77.1 secs

     total energy              =     -30.74409870 Ry
     estimated scf accuracy    <       0.00000005 Ry

     iteration # 13     ecut=    50.00 Ry     beta= 0.01
     Davidson diagonalization with overlap
     ethr =  6.52E-10,  avg # of iterations =  1.0

     total cpu time spent up to now is       78.2 secs

     total energy              =     -30.74409868 Ry
     estimated scf accuracy    <       0.00000004 Ry

     iteration # 14     ecut=    50.00 Ry     beta= 0.01
     Davidson diagonalization with overlap
     ethr =  5.32E-10,  avg # of iterations =  2.0

     total cpu time spent up to now is       79.8 secs

     total energy              =     -30.74409870 Ry
     estimated scf accuracy    <       0.00000001 Ry

     iteration # 15     ecut=    50.00 Ry     beta= 0.01
     Davidson diagonalization with overlap
     ethr =  1.54E-10,  avg # of iterations =  1.0

     total cpu time spent up to now is       80.9 secs

     total energy              =     -30.74409870 Ry
     estimated scf accuracy    <       0.00000001 Ry

     iteration # 16     ecut=    50.00 Ry     beta= 0.01
     Davidson diagonalization with overlap
     ethr =  1.54E-10,  avg # of iterations =  1.0

     total cpu time spent up to now is       82.0 secs

     total energy              =     -30.74409869 Ry
     estimated scf accuracy    <       0.00000001 Ry

     iteration # 17     ecut=    50.00 Ry     beta= 0.01
     Davidson diagonalization with overlap
     ethr =  1.49E-10,  avg # of iterations =  1.0

     total cpu time spent up to now is       83.1 secs

     End of self-consistent calculation

          k = 0.0000 0.0000 0.0000 (  1639 PWs)   bands (ev):

   -13.3135   0.2452   0.2452   0.2452

          k =-0.1025 0.1025-0.1025 (  1606 PWs)   bands (ev):

   -13.2703  -0.0574   0.2220   0.2220

          k =-0.2050 0.2050-0.2050 (  1606 PWs)   bands (ev):

   -13.1544  -0.7543   0.1631   0.1631

          k =-0.3075 0.3075-0.3075 (  1615 PWs)   bands (ev):

   -13.0037  -1.4966   0.0939   0.0939

          k =-0.4100 0.4100-0.4100 (  1616 PWs)   bands (ev):

   -12.8747  -2.0382   0.0405   0.0405

          k = 0.5125-0.5125 0.5125 (  1622 PWs)   bands (ev):

   -12.8236  -2.2352   0.0207   0.0207

          k = 0.0000 0.2050 0.0000 (  1599 PWs)   bands (ev):

   -13.2557  -0.0264   0.1443   0.1443

          k =-0.1025 0.3075-0.1025 (  1609 PWs)   bands (ev):

   -13.1636  -0.5597   0.0429   0.1039

          k =-0.2050 0.4100-0.2050 (  1607 PWs)   bands (ev):

   -13.0231  -1.2683  -0.0419   0.0225

          k =-0.3075 0.5125-0.3075 (  1610 PWs)   bands (ev):

   -12.8849  -1.8573  -0.0948  -0.0795

          k = 0.6149-0.4100 0.6149 (  1609 PWs)   bands (ev):

   -12.8062  -2.1574  -0.2009  -0.0579

          k = 0.5125-0.3075 0.5125 (  1616 PWs)   bands (ev):

   -12.8236  -2.0899  -0.2557   0.0145

          k = 0.4100-0.2050 0.4100 (  1621 PWs)   bands (ev):

   -12.9286  -1.6751  -0.2367   0.1125

          k = 0.3075-0.1025 0.3075 (  1605 PWs)   bands (ev):

   -13.0741  -1.0340  -0.1399   0.2005

          k = 0.2050 0.0000 0.2050 (  1592 PWs)   bands (ev):

   -13.2026  -0.3990   0.0328   0.2434

          k = 0.0000 0.4100 0.0000 (  1607 PWs)   bands (ev):

   -13.0986  -0.6849  -0.1082  -0.1082

          k =-0.1025 0.5125-0.1025 (  1612 PWs)   bands (ev):

   -12.9803  -1.1873  -0.2422  -0.2317

          k =-0.2050 0.6149-0.2050 (  1619 PWs)   bands (ev):

   -12.8502  -1.6865  -0.4411  -0.2854

          k = 0.7174-0.3075 0.7174 (  1606 PWs)   bands (ev):

   -12.7597  -1.9793  -0.6662  -0.2526

          k = 0.6149-0.2050 0.6149 (  1596 PWs)   bands (ev):

   -12.7491  -1.9813  -0.8224  -0.1439

          k = 0.5125-0.1025 0.5125 (  1610 PWs)   bands (ev):

   -12.8234  -1.7180  -0.8224   0.0046

          k = 0.4100 0.0000 0.4100 (  1610 PWs)   bands (ev):

   -12.9488  -1.3513  -0.5771   0.1380

          k = 0.0000 0.6149 0.0000 (  1620 PWs)   bands (ev):

   -12.8893  -1.4409  -0.3997  -0.3997

          k =-0.1025 0.7174-0.1025 (  1625 PWs)   bands (ev):

   -12.7820  -1.7771  -0.5966  -0.4895

          k = 0.8199-0.2050 0.8199 (  1619 PWs)   bands (ev):

   -12.7003  -1.9374  -0.9260  -0.4745

          k = 0.7174-0.1025 0.7174 (  1621 PWs)   bands (ev):

   -12.6790  -1.8287  -1.2824  -0.3590

          k = 0.6149 0.0000 0.6149 (  1608 PWs)   bands (ev):

   -12.7271  -1.6223  -1.3747  -0.1781

          k = 0.0000 0.8199 0.0000 (  1624 PWs)   bands (ev):

   -12.7052  -2.0309  -0.6211  -0.6211

          k = 0.9224-0.1025 0.9224 (  1623 PWs)   bands (ev):

   -12.6504  -2.1432  -0.8032  -0.6415

          k = 0.8199 0.0000 0.8199 (  1622 PWs)   bands (ev):

   -12.6404  -2.0147  -1.1314  -0.5451

          k = 0.0000-1.0249 0.0000 (  1604 PWs)   bands (ev):

   -12.6307  -2.2540  -0.7026  -0.7026

          k =-0.2050 0.4100 0.0000 (  1613 PWs)   bands (ev):

   -13.0582  -0.9616  -0.2443   0.0746

          k =-0.3075 0.5125-0.1025 (  1609 PWs)   bands (ev):

   -12.9218  -1.4831  -0.4706  -0.0064

          k = 0.6149-0.4100 0.8199 (  1618 PWs)   bands (ev):

   -12.8060  -1.9057  -0.5814  -0.1101

          k = 0.5125-0.3075 0.7174 (  1608 PWs)   bands (ev):

   -12.7602  -2.0651  -0.6115  -0.1579

          k =-0.2050 0.6149 0.0000 (  1617 PWs)   bands (ev):

   -12.8666  -1.5251  -0.5614  -0.2777

          k = 0.7174-0.3075 0.9224 (  1621 PWs)   bands (ev):

   -12.7590  -1.7959  -0.8391  -0.3631

          k = 0.6149-0.2050 0.8199 (  1613 PWs)   bands (ev):

   -12.7017  -1.8866  -1.0698  -0.3711

          k = 0.5125-0.1025 0.7174 (  1613 PWs)   bands (ev):

   -12.7201  -1.7840  -1.1649  -0.2709

          k = 0.4100 0.0000 0.6149 (  1607 PWs)   bands (ev):

   -12.8057  -1.6329  -0.9497  -0.1196

          k = 0.8199-0.2050 1.0249 (  1621 PWs)   bands (ev):

   -12.6994  -1.9637  -0.8006  -0.5807

          k = 0.7174-0.1025 0.9224 (  1625 PWs)   bands (ev):

   -12.6524  -1.9421  -1.1201  -0.5870

          k = 0.6149 0.0000 0.8199 (  1614 PWs)   bands (ev):

   -12.6606  -1.6843  -1.4712  -0.4625

          k =-0.2050-1.0249-0.0000 (  1624 PWs)   bands (ev):

   -12.6322  -2.1332  -0.8883  -0.6939

          k = 0.6149-0.2050 1.0249 (  1616 PWs)   bands (ev):

   -12.6831  -1.7680  -1.2259  -0.4986

          k = 0.5125-0.1025 0.9224 (  1608 PWs)   bands (ev):

   -12.6535  -1.6731  -1.4430  -0.5697

          k =-0.4100-1.0249 0.0000 (  1626 PWs)   bands (ev):

   -12.6345  -1.7960  -1.3263  -0.6797

     highest occupied level (ev):     0.2452

!    total energy              =     -30.74409869 Ry
     estimated scf accuracy    <          1.1E-09 Ry

     The total energy is the sum of the following terms:
     one-electron contribution =      -6.27641995 Ry
     hartree contribution      =       6.27974241 Ry
     xc contribution           =      -6.33101192 Ry
     ewald contribution        =     -24.41640924 Ry

     convergence has been achieved in  17 iterations
     Writing meta-gga kinetic term

     Forces acting on atoms (cartesian axes, Ry/au):

     atom    1 type  1   force =    -0.00000000   -0.00000000   -0.00000000
     atom    2 type  2   force =     0.00000000    0.00000000    0.00000000

     Total force =     0.000000     Total SCF correction =     0.000000


     Computing stress (Cartesian axis) and pressure

          total   stress  (Ry/bohr**3)                   (kbar)     P=      -13.63
  -0.00009266  -0.00000000  -0.00000000          -13.63       -0.00       -0.00
  -0.00000000  -0.00009266  -0.00000000           -0.00      -13.63       -0.00
  -0.00000000  -0.00000000  -0.00009266           -0.00       -0.00      -13.63

     Energy error            =      1.1E-03 Ry
     Gradient error          =      1.3E-31 Ry/Bohr
     Cell gradient error     =      1.4E+01 kbar

     number of scf cycles    =   4
     number of bfgs steps    =   3

     enthalpy           old  =     -30.7429969996 Ry
     enthalpy           new  =     -30.7440986943 Ry

     CASE: enthalpy          _new < enthalpy          _old

     new trust radius        =       0.0558570267 bohr
     new conv_thr            =       0.0000000100 Ry

     new unit-cell volume =    237.98894 a.u.^3 (    35.26632 Ang^3 )
     density =      1.99615 g/cm^3

CELL_PARAMETERS (alat= 10.26310000)
  -0.479251744   0.000000000   0.479251744
   0.000000000   0.479251744   0.479251744
  -0.479251744   0.479251744  -0.000000000

ATOMIC_POSITIONS (alat)
Li           -0.0000000000       -0.0000000000       -0.0000000000
Cl            0.4792517435        0.4792517435        0.4792517435



     Writing config-only to output data dir ./pwscf.save/
     NEW-OLD atomic charge density approx. for the potential
     extrapolated charge    7.56184, renormalised to    8.00000

     total cpu time spent up to now is       84.1 secs

     Self-consistent Calculation

     iteration #  1     ecut=    50.00 Ry     beta= 0.01
     Davidson diagonalization with overlap
     ethr =  1.00E-06,  avg # of iterations =  5.1

     total cpu time spent up to now is       86.7 secs

     total energy              =     -30.72808840 Ry
     estimated scf accuracy    <       0.03118705 Ry

     iteration #  2     ecut=    50.00 Ry     beta= 0.01
     Davidson diagonalization with overlap
     ethr =  3.90E-04,  avg # of iterations =  2.0

     total cpu time spent up to now is       88.2 secs

     total energy              =     -30.74458689 Ry
     estimated scf accuracy    <       0.00113519 Ry

     iteration #  3     ecut=    50.00 Ry     beta= 0.01
     Davidson diagonalization with overlap
     ethr =  1.42E-05,  avg # of iterations =  1.0

     total cpu time spent up to now is       89.3 secs

     total energy              =     -30.74465594 Ry
     estimated scf accuracy    <       0.00106724 Ry

     iteration #  4     ecut=    50.00 Ry     beta= 0.01
     Davidson diagonalization with overlap
     ethr =  1.33E-05,  avg # of iterations =  1.0

     total cpu time spent up to now is       90.4 secs

     total energy              =     -30.74433673 Ry
     estimated scf accuracy    <       0.00108024 Ry

     iteration #  5     ecut=    50.00 Ry     beta= 0.01
     Davidson diagonalization with overlap
     ethr =  1.33E-05,  avg # of iterations =  1.0

     total cpu time spent up to now is       91.5 secs

     total energy              =     -30.74459559 Ry
     estimated scf accuracy    <       0.00036597 Ry

     iteration #  6     ecut=    50.00 Ry     beta= 0.01
     Davidson diagonalization with overlap
     ethr =  4.57E-06,  avg # of iterations =  2.0

     total cpu time spent up to now is       92.9 secs

     total energy              =     -30.74464105 Ry
     estimated scf accuracy    <       0.00002505 Ry

     iteration #  7     ecut=    50.00 Ry     beta= 0.01
     Davidson diagonalization with overlap
     ethr =  3.13E-07,  avg # of iterations =  1.0

     total cpu time spent up to now is       94.0 secs

     total energy              =     -30.74464177 Ry
     estimated scf accuracy    <       0.00002381 Ry

     iteration #  8     ecut=    50.00 Ry     beta= 0.01
     Davidson diagonalization with overlap
     ethr =  2.98E-07,  avg # of iterations =  1.0

     total cpu time spent up to now is       95.1 secs

     total energy              =     -30.74463519 Ry
     estimated scf accuracy    <       0.00002245 Ry

     iteration #  9     ecut=    50.00 Ry     beta= 0.01
     Davidson diagonalization with overlap
     ethr =  2.81E-07,  avg # of iterations =  2.0

     total cpu time spent up to now is       96.6 secs

     total energy              =     -30.74463997 Ry
     estimated scf accuracy    <       0.00000082 Ry

     iteration # 10     ecut=    50.00 Ry     beta= 0.01
     Davidson diagonalization with overlap
     ethr =  1.03E-08,  avg # of iterations =  1.0

     total cpu time spent up to now is       97.7 secs

     total energy              =     -30.74464022 Ry
     estimated scf accuracy    <       0.00000091 Ry

     iteration # 11     ecut=    50.00 Ry     beta= 0.01
     Davidson diagonalization with overlap
     ethr =  1.03E-08,  avg # of iterations =  1.0

     total cpu time spent up to now is       98.8 secs

     total energy              =     -30.74464036 Ry
     estimated scf accuracy    <       0.00000012 Ry

     iteration # 12     ecut=    50.00 Ry     beta= 0.01
     Davidson diagonalization with overlap
     ethr =  1.48E-09,  avg # of iterations =  1.0

     total cpu time spent up to now is      100.0 secs

     total energy              =     -30.74464037 Ry
     estimated scf accuracy    <       0.00000002 Ry

     iteration # 13     ecut=    50.00 Ry     beta= 0.01
     Davidson diagonalization with overlap
     ethr =  2.66E-10,  avg # of iterations =  1.0

     total cpu time spent up to now is      101.1 secs

     total energy              =     -30.74464037 Ry
     estimated scf accuracy    <       0.00000002 Ry

     iteration # 14     ecut=    50.00 Ry     beta= 0.01
     Davidson diagonalization with overlap
     ethr =  2.53E-10,  avg # of iterations =  1.0

     total cpu time spent up to now is      102.2 secs

     total energy              =     -30.74464036 Ry
     estimated scf accuracy    <       0.00000003 Ry

     iteration # 15     ecut=    50.00 Ry     beta= 0.01
     Davidson diagonalization with overlap
     ethr =  2.53E-10,  avg # of iterations =  2.0

     total cpu time spent up to now is      103.7 secs

     End of self-consistent calculation

          k = 0.0000 0.0000 0.0000 (  1639 PWs)   bands (ev):

   -13.0769   0.6522   0.6522   0.6522

          k =-0.1043 0.1043-0.1043 (  1606 PWs)   bands (ev):

   -13.0282   0.3256   0.6267   0.6267

          k =-0.2087 0.2087-0.2087 (  1606 PWs)   bands (ev):

   -12.8968  -0.4267   0.5621   0.5621

          k =-0.3130 0.3130-0.3130 (  1615 PWs)   bands (ev):

   -12.7249  -1.2299   0.4865   0.4865

          k =-0.4173 0.4173-0.4173 (  1616 PWs)   bands (ev):

   -12.5768  -1.8179   0.4284   0.4284

          k = 0.5216-0.5216 0.5216 (  1622 PWs)   bands (ev):

   -12.5178  -2.0324   0.4069   0.4069

          k = 0.0000 0.2087 0.0000 (  1599 PWs)   bands (ev):

   -13.0117   0.3625   0.5405   0.5405

          k =-0.1043 0.3130-0.1043 (  1609 PWs)   bands (ev):

   -12.9072  -0.2145   0.4288   0.4971

          k =-0.2087 0.4173-0.2087 (  1607 PWs)   bands (ev):

   -12.7471  -0.9822   0.3360   0.4075

          k =-0.3130 0.5216-0.3130 (  1610 PWs)   bands (ev):

   -12.5885  -1.6225   0.2784   0.2955

          k = 0.6260-0.4173 0.6260 (  1609 PWs)   bands (ev):

   -12.4977  -1.9498   0.1619   0.3198

          k = 0.5216-0.3130 0.5216 (  1616 PWs)   bands (ev):

   -12.5178  -1.8762   0.1015   0.3997

          k = 0.4173-0.2087 0.4173 (  1621 PWs)   bands (ev):

   -12.6388  -1.4240   0.1217   0.5075

          k = 0.3130-0.1043 0.3130 (  1605 PWs)   bands (ev):

   -12.8054  -0.7275   0.2271   0.6041

          k = 0.2087 0.0000 0.2087 (  1592 PWs)   bands (ev):

   -12.9516  -0.0409   0.4170   0.6509

          k = 0.0000 0.4173 0.0000 (  1607 PWs)   bands (ev):

   -12.8333  -0.3467   0.2623   0.2623

          k =-0.1043 0.5216-0.1043 (  1612 PWs)   bands (ev):

   -12.6981  -0.8936   0.1153   0.1271

          k =-0.2087 0.6260-0.2087 (  1619 PWs)   bands (ev):

   -12.5484  -1.4392  -0.1032   0.0687

          k = 0.7303-0.3130 0.7303 (  1606 PWs)   bands (ev):

   -12.4439  -1.7613  -0.3490   0.1051

          k = 0.6260-0.2087 0.6260 (  1596 PWs)   bands (ev):

   -12.4317  -1.7642  -0.5191   0.2247

          k = 0.5216-0.1043 0.5216 (  1610 PWs)   bands (ev):

   -12.5177  -1.4733  -0.5209   0.3883

          k = 0.4173 0.0000 0.4173 (  1610 PWs)   bands (ev):

   -12.6620  -1.0698  -0.2549   0.5354

          k = 0.0000 0.6260 0.0000 (  1620 PWs)   bands (ev):

   -12.5934  -1.1720  -0.0569  -0.0569

          k =-0.1043 0.7303-0.1043 (  1625 PWs)   bands (ev):

   -12.4694  -1.5422  -0.2726  -0.1547

          k = 0.8346-0.2087 0.8346 (  1619 PWs)   bands (ev):

   -12.3746  -1.7225  -0.6314  -0.1382

          k = 0.7303-0.1043 0.7303 (  1621 PWs)   bands (ev):

   -12.3500  -1.6091  -1.0162  -0.0117

          k = 0.6260 0.0000 0.6260 (  1608 PWs)   bands (ev):

   -12.4061  -1.3737  -1.1240   0.1869

          k = 0.0000 0.8346 0.0000 (  1624 PWs)   bands (ev):

   -12.3801  -1.8232  -0.2981  -0.2981

          k = 0.9390-0.1043 0.9390 (  1623 PWs)   bands (ev):

   -12.3162  -1.9501  -0.4966  -0.3202

          k = 0.8346 0.0000 0.8346 (  1622 PWs)   bands (ev):

   -12.3048  -1.8144  -0.8518  -0.2151

          k = 0.0000-1.0433 0.0000 (  1604 PWs)   bands (ev):

   -12.2932  -2.0711  -0.3867  -0.3867

          k =-0.2087 0.4173 0.0000 (  1613 PWs)   bands (ev):

   -12.7873  -0.6475   0.1115   0.4649

          k =-0.3130 0.5216-0.1043 (  1609 PWs)   bands (ev):

   -12.6310  -1.2153  -0.1363   0.3757

          k = 0.6260-0.4173 0.8346 (  1618 PWs)   bands (ev):

   -12.4974  -1.6785  -0.2566   0.2619

          k = 0.5216-0.3130 0.7303 (  1608 PWs)   bands (ev):

   -12.4444  -1.8536  -0.2892   0.2096

          k =-0.2087 0.6260 0.0000 (  1617 PWs)   bands (ev):

   -12.5674  -1.2632  -0.2357   0.0772

          k = 0.7303-0.3130 0.9390 (  1621 PWs)   bands (ev):

   -12.4430  -1.5630  -0.5394  -0.0156

          k = 0.6260-0.2087 0.8346 (  1613 PWs)   bands (ev):

   -12.3764  -1.6666  -0.7895  -0.0239

          k = 0.5216-0.1043 0.7303 (  1613 PWs)   bands (ev):

   -12.3979  -1.5531  -0.8935   0.0856

          k = 0.4173 0.0000 0.6260 (  1607 PWs)   bands (ev):

   -12.4972  -1.3807  -0.6619   0.2513

          k = 0.8346-0.2087 1.0433 (  1621 PWs)   bands (ev):

   -12.3735  -1.7510  -0.4961  -0.2528

          k = 0.7303-0.1043 0.9390 (  1625 PWs)   bands (ev):

   -12.3188  -1.7337  -0.8431  -0.2589

          k = 0.6260 0.0000 0.8346 (  1614 PWs)   bands (ev):

   -12.3285  -1.4586  -1.2189  -0.1235

          k =-0.2087-1.0433 0.0000 (  1624 PWs)   bands (ev):

   -12.2951  -1.9416  -0.5914  -0.3750

          k = 0.6260-0.2087 1.0433 (  1616 PWs)   bands (ev):

   -12.3548  -1.5400  -0.9616  -0.1618

          k = 0.5216-0.1043 0.9390 (  1608 PWs)   bands (ev):

   -12.3203  -1.4421  -1.1964  -0.2381

          k =-0.4173-1.0433 0.0000 (  1626 PWs)   bands (ev):

   -12.2980  -1.5788  -1.0703  -0.3562

     highest occupied level (ev):     0.6522

!    total energy              =     -30.74464037 Ry
     estimated scf accuracy    <          7.5E-10 Ry

     The total energy is the sum of the following terms:
     one-electron contribution =      -5.56986876 Ry
     hartree contribution      =       6.02783704 Ry
     xc contribution           =      -6.34808315 Ry
     ewald contribution        =     -24.85452550 Ry

     convergence has been achieved in  15 iterations
     Writing meta-gga kinetic term

     Forces acting on atoms (cartesian axes, Ry/au):

     atom    1 type  1   force =    -0.00000000   -0.00000000   -0.00000000
     atom    2 type  2   force =     0.00000000    0.00000000    0.00000000

     Total force =     0.000000     Total SCF correction =     0.000000


     Computing stress (Cartesian axis) and pressure

          total   stress  (Ry/bohr**3)                   (kbar)     P=        2.10
   0.00001431   0.00000000   0.00000000            2.10        0.00        0.00
  -0.00000000   0.00001431  -0.00000000           -0.00        2.10       -0.00
   0.00000000  -0.00000000   0.00001431            0.00       -0.00        2.10

     Energy error            =      5.4E-04 Ry
     Gradient error          =      5.5E-31 Ry/Bohr
     Cell gradient error     =      2.1E+00 kbar

     number of scf cycles    =   5
     number of bfgs steps    =   4

     enthalpy           old  =     -30.7440986943 Ry
     enthalpy           new  =     -30.7446403691 Ry

     CASE: enthalpy          _new < enthalpy          _old

     new trust radius        =       0.0071802145 bohr
     new conv_thr            =       0.0000000100 Ry

     new unit-cell volume =    239.65434 a.u.^3 (    35.51311 Ang^3 )
     density =      1.98228 g/cm^3

CELL_PARAMETERS (alat= 10.26310000)
  -0.480367046   0.000000000   0.480367046
   0.000000000   0.480367046   0.480367046
  -0.480367046   0.480367046  -0.000000000

ATOMIC_POSITIONS (alat)
Li           -0.0000000000       -0.0000000000       -0.0000000000
Cl            0.4803670462        0.4803670462        0.4803670462



     Writing config-only to output data dir ./pwscf.save/
     NEW-OLD atomic charge density approx. for the potential
     extrapolated charge    8.05556, renormalised to    8.00000

     total cpu time spent up to now is      104.8 secs

     Self-consistent Calculation

     iteration #  1     ecut=    50.00 Ry     beta= 0.01
     Davidson diagonalization with overlap
     ethr =  1.00E-06,  avg # of iterations =  3.0

     total cpu time spent up to now is      106.5 secs

     total energy              =     -30.74434575 Ry
     estimated scf accuracy    <       0.00047288 Ry

     iteration #  2     ecut=    50.00 Ry     beta= 0.01
     Davidson diagonalization with overlap
     ethr =  5.91E-06,  avg # of iterations =  2.0

     total cpu time spent up to now is      108.0 secs

     total energy              =     -30.74462585 Ry
     estimated scf accuracy    <       0.00001958 Ry

     iteration #  3     ecut=    50.00 Ry     beta= 0.01
     Davidson diagonalization with overlap
     ethr =  2.45E-07,  avg # of iterations =  1.2

     total cpu time spent up to now is      109.1 secs

     total energy              =     -30.74462750 Ry
     estimated scf accuracy    <       0.00001967 Ry

     iteration #  4     ecut=    50.00 Ry     beta= 0.01
     Davidson diagonalization with overlap
     ethr =  2.45E-07,  avg # of iterations =  1.0

     total cpu time spent up to now is      110.2 secs

     total energy              =     -30.74464649 Ry
     estimated scf accuracy    <       0.00001922 Ry

     iteration #  5     ecut=    50.00 Ry     beta= 0.01
     Davidson diagonalization with overlap
     ethr =  2.40E-07,  avg # of iterations =  1.0

     total cpu time spent up to now is      111.4 secs

     total energy              =     -30.74465071 Ry
     estimated scf accuracy    <       0.00000304 Ry

     iteration #  6     ecut=    50.00 Ry     beta= 0.01
     Davidson diagonalization with overlap
     ethr =  3.80E-08,  avg # of iterations =  2.0

     total cpu time spent up to now is      112.9 secs

     total energy              =     -30.74465126 Ry
     estimated scf accuracy    <       0.00000023 Ry

     iteration #  7     ecut=    50.00 Ry     beta= 0.01
     Davidson diagonalization with overlap
     ethr =  2.86E-09,  avg # of iterations =  1.0

     total cpu time spent up to now is      114.0 secs

     total energy              =     -30.74465142 Ry
     estimated scf accuracy    <       0.00000025 Ry

     iteration #  8     ecut=    50.00 Ry     beta= 0.01
     Davidson diagonalization with overlap
     ethr =  2.86E-09,  avg # of iterations =  2.0

     total cpu time spent up to now is      115.5 secs

     End of self-consistent calculation

          k = 0.0000 0.0000 0.0000 (  1639 PWs)   bands (ev):

   -13.1084   0.5974   0.5974   0.5974

          k =-0.1041 0.1041-0.1041 (  1606 PWs)   bands (ev):

   -13.0605   0.2740   0.5722   0.5722

          k =-0.2082 0.2082-0.2082 (  1606 PWs)   bands (ev):

   -12.9313  -0.4709   0.5084   0.5084

          k =-0.3123 0.3123-0.3123 (  1615 PWs)   bands (ev):

   -12.7622  -1.2659   0.4336   0.4336

          k =-0.4163 0.4163-0.4163 (  1616 PWs)   bands (ev):

   -12.6167  -1.8476   0.3761   0.3761

          k = 0.5204-0.5204 0.5204 (  1622 PWs)   bands (ev):

   -12.5588  -2.0598   0.3549   0.3549

          k = 0.0000 0.2082 0.0000 (  1599 PWs)   bands (ev):

   -13.0443   0.3101   0.4872   0.4872

          k =-0.1041 0.3123-0.1041 (  1609 PWs)   bands (ev):

   -12.9415  -0.2611   0.3768   0.4441

          k =-0.2082 0.4163-0.2082 (  1607 PWs)   bands (ev):

   -12.7841  -1.0209   0.2851   0.3556

          k =-0.3123 0.5204-0.3123 (  1610 PWs)   bands (ev):

   -12.6282  -1.6542   0.2281   0.2450

          k = 0.6245-0.4163 0.6245 (  1609 PWs)   bands (ev):

   -12.5391  -1.9778   0.1131   0.2690

          k = 0.5204-0.3123 0.5204 (  1616 PWs)   bands (ev):

   -12.5588  -1.9050   0.0534   0.3479

          k = 0.4163-0.2082 0.4163 (  1621 PWs)   bands (ev):

   -12.6776  -1.4579   0.0734   0.4543

          k = 0.3123-0.1041 0.3123 (  1605 PWs)   bands (ev):

   -12.8413  -0.7689   0.1778   0.5497

          k = 0.2082 0.0000 0.2082 (  1592 PWs)   bands (ev):

   -12.9852  -0.0892   0.3653   0.5960

          k = 0.0000 0.4163 0.0000 (  1607 PWs)   bands (ev):

   -12.8688  -0.3924   0.2125   0.2125

          k =-0.1041 0.5204-0.1041 (  1612 PWs)   bands (ev):

   -12.7359  -0.9333   0.0672   0.0788

          k =-0.2082 0.6245-0.2082 (  1619 PWs)   bands (ev):

   -12.5889  -1.4726  -0.1486   0.0211

          k = 0.7286-0.3123 0.7286 (  1606 PWs)   bands (ev):

   -12.4863  -1.7907  -0.3916   0.0570

          k = 0.6245-0.2082 0.6245 (  1596 PWs)   bands (ev):

   -12.4743  -1.7935  -0.5599   0.1751

          k = 0.5204-0.1041 0.5204 (  1610 PWs)   bands (ev):

   -12.5587  -1.5063  -0.5615   0.3366

          k = 0.4163 0.0000 0.4163 (  1610 PWs)   bands (ev):

   -12.7004  -1.1079  -0.2982   0.4819

          k = 0.0000 0.6245 0.0000 (  1620 PWs)   bands (ev):

   -12.6331  -1.2083  -0.1030  -0.1030

          k =-0.1041 0.7286-0.1041 (  1625 PWs)   bands (ev):

   -12.5114  -1.5739  -0.3161  -0.1998

          k = 0.8327-0.2082 0.8327 (  1619 PWs)   bands (ev):

   -12.4184  -1.7515  -0.6710  -0.1834

          k = 0.7286-0.1041 0.7286 (  1621 PWs)   bands (ev):

   -12.3942  -1.6386  -1.0520  -0.0584

          k = 0.6245 0.0000 0.6245 (  1608 PWs)   bands (ev):

   -12.4492  -1.4072  -1.1577   0.1378

          k = 0.0000 0.8327 0.0000 (  1624 PWs)   bands (ev):

   -12.4238  -1.8512  -0.3415  -0.3415

          k = 0.9368-0.1041 0.9368 (  1623 PWs)   bands (ev):

   -12.3612  -1.9761  -0.5378  -0.3634

          k = 0.8327 0.0000 0.8327 (  1622 PWs)   bands (ev):

   -12.3499  -1.8414  -0.8894  -0.2595

          k = 0.0000-1.0409 0.0000 (  1604 PWs)   bands (ev):

   -12.3386  -2.0957  -0.4292  -0.4292

          k =-0.2082 0.4163 0.0000 (  1613 PWs)   bands (ev):

   -12.8235  -0.6899   0.0637   0.4124

          k =-0.3123 0.5204-0.1041 (  1609 PWs)   bands (ev):

   -12.6700  -1.2515  -0.1813   0.3243

          k = 0.6245-0.4163 0.8327 (  1618 PWs)   bands (ev):

   -12.5388  -1.7092  -0.3003   0.2118

          k = 0.5204-0.3123 0.7286 (  1608 PWs)   bands (ev):

   -12.4868  -1.8822  -0.3326   0.1601

          k =-0.2082 0.6245 0.0000 (  1617 PWs)   bands (ev):

   -12.6075  -1.2986  -0.2795   0.0294

          k = 0.7286-0.3123 0.9368 (  1621 PWs)   bands (ev):

   -12.4854  -1.5944  -0.5797  -0.0624

          k = 0.6245-0.2082 0.8327 (  1613 PWs)   bands (ev):

   -12.4201  -1.6962  -0.8272  -0.0706

          k = 0.5204-0.1041 0.7286 (  1613 PWs)   bands (ev):

   -12.4412  -1.5842  -0.9300   0.0376

          k = 0.4163 0.0000 0.6245 (  1607 PWs)   bands (ev):

   -12.5386  -1.4148  -0.7005   0.2014

          k = 0.8327-0.2082 1.0409 (  1621 PWs)   bands (ev):

   -12.4173  -1.7797  -0.5370  -0.2969

          k = 0.7286-0.1041 0.9368 (  1625 PWs)   bands (ev):

   -12.3637  -1.7617  -0.8804  -0.3030

          k = 0.6245 0.0000 0.8327 (  1614 PWs)   bands (ev):

   -12.3732  -1.4889  -1.2529  -0.1691

          k =-0.2082-1.0409 0.0000 (  1624 PWs)   bands (ev):

   -12.3405  -1.9674  -0.6313  -0.4179

          k = 0.6245-0.2082 1.0409 (  1616 PWs)   bands (ev):

   -12.3989  -1.5707  -0.9971  -0.2072

          k = 0.5204-0.1041 0.9368 (  1608 PWs)   bands (ev):

   -12.3651  -1.4732  -1.2296  -0.2827

          k =-0.4163-1.0409 0.0000 (  1626 PWs)   bands (ev):

   -12.3432  -1.6080  -1.1047  -0.3998

     highest occupied level (ev):     0.5974

!    total energy              =     -30.74465145 Ry
     estimated scf accuracy    <          9.9E-09 Ry

     The total energy is the sum of the following terms:
     one-electron contribution =      -5.66259704 Ry
     hartree contribution      =       6.06052576 Ry
     xc contribution           =      -6.34576120 Ry
     ewald contribution        =     -24.79681896 Ry

     convergence has been achieved in   8 iterations
     Writing meta-gga kinetic term

     Forces acting on atoms (cartesian axes, Ry/au):

     atom    1 type  1   force =    -0.00000000   -0.00000000   -0.00000000
     atom    2 type  2   force =     0.00000000    0.00000000    0.00000000

     Total force =     0.000000     Total SCF correction =     0.000000


     Computing stress (Cartesian axis) and pressure

          total   stress  (Ry/bohr**3)                   (kbar)     P=       -0.19
  -0.00000126  -0.00000000   0.00000000           -0.19       -0.00        0.00
   0.00000000  -0.00000126   0.00000000            0.00       -0.19        0.00
   0.00000000   0.00000000  -0.00000126            0.00        0.00       -0.19

     Energy error            =      1.1E-05 Ry
     Gradient error          =      2.7E-31 Ry/Bohr
     Cell gradient error     =      1.9E-01 kbar

     bfgs converged in   6 scf cycles and   5 bfgs steps
     (criteria: energy <  1.0E-04 Ry, force <  1.0E-03Ry/Bohr, cell <  5.0E-01kbar)

     End of BFGS Geometry Optimization

     Final enthalpy           =     -30.7446514522 Ry

     File ./pwscf.bfgs deleted, as requested
Begin final coordinates
     new unit-cell volume =    239.65434 a.u.^3 (    35.51311 Ang^3 )
     density =      1.98228 g/cm^3

CELL_PARAMETERS (alat= 10.26310000)
  -0.480367046   0.000000000   0.480367046
   0.000000000   0.480367046   0.480367046
  -0.480367046   0.480367046  -0.000000000

ATOMIC_POSITIONS (alat)
Li           -0.0000000000       -0.0000000000       -0.0000000000
Cl            0.4803670462        0.4803670462        0.4803670462
End final coordinates



     Writing config-only to output data dir ./pwscf.save/

     Final scf calculation at the relaxed structure.
     The G-vectors are recalculated for the final unit cell
     Results may differ from those at the preceding step.
 
     G-vector sticks info
     --------------------
     sticks:   dense  smooth     PW     G-vecs:    dense   smooth      PW
     Sum         673     673    211                11575    11575    1989
 
     Using Slab Decomposition
 


     bravais-lattice index     =            2
     lattice parameter (alat)  =      10.2631  a.u.
     unit-cell volume          =     239.6543 (a.u.)^3
     number of atoms/cell      =            2
     number of atomic types    =            2
     number of electrons       =         8.00
     number of Kohn-Sham states=            4
     kinetic-energy cutoff     =      50.0000  Ry
     charge density cutoff     =     200.0000  Ry
     scf convergence threshold =      1.0E-08
     mixing beta               =       0.0100
     number of iterations used =            8  local-TF  mixing
     press convergence thresh. =      5.0E-01
     Exchange-correlation=  SLA  PW   SCAN SCAN
                           (   0   0   0   0   0 263 267)

     celldm(1)=  10.263100  celldm(2)=   0.000000  celldm(3)=   0.000000
     celldm(4)=   0.000000  celldm(5)=   0.000000  celldm(6)=   0.000000

     crystal axes: (cart. coord. in units of alat)
               a(1) = (  -0.480367   0.000000   0.480367 )  
               a(2) = (   0.000000   0.480367   0.480367 )  
               a(3) = (  -0.480367   0.480367  -0.000000 )  

     reciprocal axes: (cart. coord. in units 2 pi/alat)
               b(1) = ( -1.040871 -1.040871  1.040871 )  
               b(2) = (  1.040871  1.040871  1.040871 )  
               b(3) = ( -1.040871  1.040871 -1.040871 )  


     PseudoPot. # 1 for Li read from file:
[...]
     MD5 check sum: Not computed, couldn't open file
     Pseudo is Norm-conserving, Zval =  1.0
     Generated by new atomic code, or converted to UPF format
     Using radial grid of 1321 points,  1 beta functions with: 
                l(1) =   0

     PseudoPot. # 2 for Cl read from file:
     ~/Documents/PWDFT.jl/pseudopotentials/scan_upf/Cl.SCAN.UPF
     MD5 check sum: Not computed, couldn't open file
     Pseudo is Norm-conserving, Zval =  7.0
     Generated by new atomic code, or converted to UPF format
     Using radial grid of 1493 points,  2 beta functions with: 
                l(1) =   0
                l(2) =   1

     atomic species   valence    mass     pseudopotential
        Li             1.00     6.94100     Li( 1.00)
        Cl             7.00    35.45300     Cl( 1.00)

     48 Sym. Ops., with inversion, found



   Cartesian axes

     site n.     atom                  positions (alat units)
         1           Li  tau(   1) = (  -0.0000000  -0.0000000  -0.0000000  )
         2           Cl  tau(   2) = (   0.4803670   0.4803670   0.4803670  )

     number of k points=    47
                       cart. coord. in units 2pi/alat
        k(    1) = (   0.0000000   0.0000000   0.0000000), wk =   0.0020000
        k(    2) = (  -0.1040871   0.1040871  -0.1040871), wk =   0.0160000
        k(    3) = (  -0.2081741   0.2081741  -0.2081741), wk =   0.0160000
        k(    4) = (  -0.3122612   0.3122612  -0.3122612), wk =   0.0160000
        k(    5) = (  -0.4163483   0.4163483  -0.4163483), wk =   0.0160000
        k(    6) = (   0.5204354  -0.5204354   0.5204354), wk =   0.0080000
        k(    7) = (   0.0000000   0.2081741   0.0000000), wk =   0.0120000
        k(    8) = (  -0.1040871   0.3122612  -0.1040871), wk =   0.0480000
        k(    9) = (  -0.2081741   0.4163483  -0.2081741), wk =   0.0480000
        k(   10) = (  -0.3122612   0.5204354  -0.3122612), wk =   0.0480000
        k(   11) = (   0.6245224  -0.4163483   0.6245224), wk =   0.0480000
        k(   12) = (   0.5204354  -0.3122612   0.5204354), wk =   0.0480000
        k(   13) = (   0.4163483  -0.2081741   0.4163483), wk =   0.0480000
        k(   14) = (   0.3122612  -0.1040871   0.3122612), wk =   0.0480000
        k(   15) = (   0.2081741   0.0000000   0.2081741), wk =   0.0240000
        k(   16) = (   0.0000000   0.4163483   0.0000000), wk =   0.0120000
        k(   17) = (  -0.1040871   0.5204354  -0.1040871), wk =   0.0480000
        k(   18) = (  -0.2081741   0.6245224  -0.2081741), wk =   0.0480000
        k(   19) = (   0.7286095  -0.3122612   0.7286095), wk =   0.0480000
        k(   20) = (   0.6245224  -0.2081741   0.6245224), wk =   0.0480000
        k(   21) = (   0.5204354  -0.1040871   0.5204354), wk =   0.0480000
        k(   22) = (   0.4163483   0.0000000   0.4163483), wk =   0.0240000
        k(   23) = (   0.0000000   0.6245224   0.0000000), wk =   0.0120000
        k(   24) = (  -0.1040871   0.7286095  -0.1040871), wk =   0.0480000
        k(   25) = (   0.8326966  -0.2081741   0.8326966), wk =   0.0480000
        k(   26) = (   0.7286095  -0.1040871   0.7286095), wk =   0.0480000
        k(   27) = (   0.6245224   0.0000000   0.6245224), wk =   0.0240000
        k(   28) = (   0.0000000   0.8326966   0.0000000), wk =   0.0120000
        k(   29) = (   0.9367837  -0.1040871   0.9367837), wk =   0.0480000
        k(   30) = (   0.8326966   0.0000000   0.8326966), wk =   0.0240000
        k(   31) = (   0.0000000  -1.0408707   0.0000000), wk =   0.0060000
        k(   32) = (  -0.2081741   0.4163483   0.0000000), wk =   0.0480000
        k(   33) = (  -0.3122612   0.5204354  -0.1040871), wk =   0.0960000
        k(   34) = (   0.6245224  -0.4163483   0.8326966), wk =   0.0960000
        k(   35) = (   0.5204354  -0.3122612   0.7286095), wk =   0.0480000
        k(   36) = (  -0.2081741   0.6245224   0.0000000), wk =   0.0480000
        k(   37) = (   0.7286095  -0.3122612   0.9367837), wk =   0.0960000
        k(   38) = (   0.6245224  -0.2081741   0.8326966), wk =   0.0960000
        k(   39) = (   0.5204354  -0.1040871   0.7286095), wk =   0.0960000
        k(   40) = (   0.4163483   0.0000000   0.6245224), wk =   0.0480000
        k(   41) = (   0.8326966  -0.2081741   1.0408707), wk =   0.0480000
        k(   42) = (   0.7286095  -0.1040871   0.9367837), wk =   0.0960000
        k(   43) = (   0.6245224   0.0000000   0.8326966), wk =   0.0480000
        k(   44) = (  -0.2081741  -1.0408707   0.0000000), wk =   0.0240000
        k(   45) = (   0.6245224  -0.2081741   1.0408707), wk =   0.0480000
        k(   46) = (   0.5204354  -0.1040871   0.9367837), wk =   0.0480000
        k(   47) = (  -0.4163483  -1.0408707   0.0000000), wk =   0.0240000

     Dense  grid:    11575 G-vectors     FFT dimensions: (  32,  32,  32)

     Estimated max dynamical RAM per process >      22.11 MB

     WARNING: libxc functional with ID  263 depends
      on external parameters: check the user_guide of
      QE if you need to modify them or to check their
      default values.

     Initial potential from superposition of free atoms

     starting charge       7.9953, renormalised to       8.0000
     Starting wfcs are   13 randomized atomic wfcs

     total cpu time spent up to now is      117.2 secs

     Self-consistent Calculation

     iteration #  1     ecut=    50.00 Ry     beta= 0.01
     Davidson diagonalization with overlap
     ethr =  1.00E-06,  avg # of iterations =  6.9

     total cpu time spent up to now is      118.8 secs

     total energy              =     -30.66113738 Ry
     estimated scf accuracy    <       0.34207070 Ry

     iteration #  2     ecut=    50.00 Ry     beta= 0.01
     Davidson diagonalization with overlap
     ethr =  4.28E-03,  avg # of iterations =  1.0

     total cpu time spent up to now is      119.4 secs

     total energy              =     -30.74353671 Ry
     estimated scf accuracy    <       0.33485700 Ry

     iteration #  3     ecut=    50.00 Ry     beta= 0.01
     Davidson diagonalization with overlap
     ethr =  4.19E-03,  avg # of iterations =  1.0

     total cpu time spent up to now is      120.0 secs

     total energy              =     -30.74564893 Ry
     estimated scf accuracy    <       0.00669238 Ry

     iteration #  4     ecut=    50.00 Ry     beta= 0.01
     Davidson diagonalization with overlap
     ethr =  8.37E-05,  avg # of iterations =  1.0

     total cpu time spent up to now is      120.6 secs

     total energy              =     -30.74593578 Ry
     estimated scf accuracy    <       0.00593889 Ry

     iteration #  5     ecut=    50.00 Ry     beta= 0.01
     Davidson diagonalization with overlap
     ethr =  7.42E-05,  avg # of iterations =  1.0

     total cpu time spent up to now is      121.1 secs

     total energy              =     -30.74445988 Ry
     estimated scf accuracy    <       0.00684476 Ry

     iteration #  6     ecut=    50.00 Ry     beta= 0.01
     Davidson diagonalization with overlap
     ethr =  7.42E-05,  avg # of iterations =  1.0

     total cpu time spent up to now is      121.7 secs

     total energy              =     -30.74389486 Ry
     estimated scf accuracy    <       0.00195599 Ry

     iteration #  7     ecut=    50.00 Ry     beta= 0.01
     Davidson diagonalization with overlap
     ethr =  2.44E-05,  avg # of iterations =  2.0

     total cpu time spent up to now is      122.5 secs

     total energy              =     -30.74587907 Ry
     estimated scf accuracy    <       0.01216018 Ry

     iteration #  8     ecut=    50.00 Ry     beta= 0.01
     Davidson diagonalization with overlap
     ethr =  2.44E-05,  avg # of iterations =  1.0

     total cpu time spent up to now is      123.1 secs

     total energy              =     -30.74394331 Ry
     estimated scf accuracy    <       0.00959122 Ry

     iteration #  9     ecut=    50.00 Ry     beta= 0.01
     Davidson diagonalization with overlap
     ethr =  2.44E-05,  avg # of iterations =  2.0

     total cpu time spent up to now is      123.8 secs

     total energy              =     -30.74445648 Ry
     estimated scf accuracy    <       0.00059574 Ry

     iteration # 10     ecut=    50.00 Ry     beta= 0.01
     Davidson diagonalization with overlap
     ethr =  7.45E-06,  avg # of iterations =  1.0

     total cpu time spent up to now is      124.4 secs

     total energy              =     -30.74446786 Ry
     estimated scf accuracy    <       0.00005879 Ry

     iteration # 11     ecut=    50.00 Ry     beta= 0.01
     Davidson diagonalization with overlap
     ethr =  7.35E-07,  avg # of iterations =  1.0

     total cpu time spent up to now is      125.0 secs

     total energy              =     -30.74447696 Ry
     estimated scf accuracy    <       0.00005333 Ry

     iteration # 12     ecut=    50.00 Ry     beta= 0.01
     Davidson diagonalization with overlap
     ethr =  6.67E-07,  avg # of iterations =  1.0

     total cpu time spent up to now is      125.5 secs

     total energy              =     -30.74444870 Ry
     estimated scf accuracy    <       0.00008869 Ry

     iteration # 13     ecut=    50.00 Ry     beta= 0.01
     Davidson diagonalization with overlap
     ethr =  6.67E-07,  avg # of iterations =  2.0

     total cpu time spent up to now is      126.3 secs

     total energy              =     -30.74446180 Ry
     estimated scf accuracy    <       0.00000189 Ry

     iteration # 14     ecut=    50.00 Ry     beta= 0.01
     Davidson diagonalization with overlap
     ethr =  2.37E-08,  avg # of iterations =  1.9

     total cpu time spent up to now is      127.0 secs

     total energy              =     -30.74446175 Ry
     estimated scf accuracy    <       0.00000281 Ry

     iteration # 15     ecut=    50.00 Ry     beta= 0.01
     Davidson diagonalization with overlap
     ethr =  2.37E-08,  avg # of iterations =  1.0

     total cpu time spent up to now is      127.5 secs

     total energy              =     -30.74446188 Ry
     estimated scf accuracy    <       0.00000226 Ry

     iteration # 16     ecut=    50.00 Ry     beta= 0.01
     Davidson diagonalization with overlap
     ethr =  2.37E-08,  avg # of iterations =  1.0

     total cpu time spent up to now is      128.1 secs

     total energy              =     -30.74446175 Ry
     estimated scf accuracy    <       0.00000166 Ry

     iteration # 17     ecut=    50.00 Ry     beta= 0.01
     Davidson diagonalization with overlap
     ethr =  2.08E-08,  avg # of iterations =  1.0

     total cpu time spent up to now is      128.7 secs

     total energy              =     -30.74446175 Ry
     estimated scf accuracy    <       0.00000060 Ry

     iteration # 18     ecut=    50.00 Ry     beta= 0.01
     Davidson diagonalization with overlap
     ethr =  7.46E-09,  avg # of iterations =  1.0

     total cpu time spent up to now is      129.3 secs

     total energy              =     -30.74446177 Ry
     estimated scf accuracy    <       0.00000056 Ry

     iteration # 19     ecut=    50.00 Ry     beta= 0.01
     Davidson diagonalization with overlap
     ethr =  6.95E-09,  avg # of iterations =  1.0

     total cpu time spent up to now is      129.9 secs

     total energy              =     -30.74446167 Ry
     estimated scf accuracy    <       0.00000065 Ry

     iteration # 20     ecut=    50.00 Ry     beta= 0.01
     Davidson diagonalization with overlap
     ethr =  6.95E-09,  avg # of iterations =  2.0

     total cpu time spent up to now is      130.7 secs

     End of self-consistent calculation

          k = 0.0000 0.0000 0.0000 (  1459 PWs)   bands (ev):

   -13.1024   0.5964   0.5964   0.5964

          k =-0.1041 0.1041-0.1041 (  1429 PWs)   bands (ev):

   -13.0542   0.2731   0.5712   0.5712

          k =-0.2082 0.2082-0.2082 (  1414 PWs)   bands (ev):

   -12.9245  -0.4716   0.5074   0.5074

          k =-0.3123 0.3123-0.3123 (  1429 PWs)   bands (ev):

   -12.7555  -1.2666   0.4325   0.4325

          k =-0.4163 0.4163-0.4163 (  1423 PWs)   bands (ev):

   -12.6097  -1.8483   0.3750   0.3750

          k = 0.5204-0.5204 0.5204 (  1458 PWs)   bands (ev):

   -12.5523  -2.0605   0.3538   0.3538

          k = 0.0000 0.2082 0.0000 (  1427 PWs)   bands (ev):

   -13.0380   0.3092   0.4862   0.4862

          k =-0.1041 0.3123-0.1041 (  1423 PWs)   bands (ev):

   -12.9349  -0.2618   0.3758   0.4431

          k =-0.2082 0.4163-0.2082 (  1418 PWs)   bands (ev):

   -12.7772  -1.0215   0.2841   0.3546

          k =-0.3123 0.5204-0.3123 (  1430 PWs)   bands (ev):

   -12.6213  -1.6549   0.2271   0.2440

          k = 0.6245-0.4163 0.6245 (  1440 PWs)   bands (ev):

   -12.5323  -1.9786   0.1120   0.2679

          k = 0.5204-0.3123 0.5204 (  1433 PWs)   bands (ev):

   -12.5518  -1.9057   0.0524   0.3468

          k = 0.4163-0.2082 0.4163 (  1432 PWs)   bands (ev):

   -12.6708  -1.4586   0.0724   0.4532

          k = 0.3123-0.1041 0.3123 (  1418 PWs)   bands (ev):

   -12.8345  -0.7695   0.1768   0.5486

          k = 0.2082 0.0000 0.2082 (  1428 PWs)   bands (ev):

   -12.9788  -0.0900   0.3643   0.5950

          k = 0.0000 0.4163 0.0000 (  1427 PWs)   bands (ev):

   -12.8622  -0.3931   0.2115   0.2115

          k =-0.1041 0.5204-0.1041 (  1431 PWs)   bands (ev):

   -12.7292  -0.9340   0.0663   0.0778

          k =-0.2082 0.6245-0.2082 (  1429 PWs)   bands (ev):

   -12.5819  -1.4733  -0.1496   0.0201

          k = 0.7286-0.3123 0.7286 (  1437 PWs)   bands (ev):

   -12.4793  -1.7914  -0.3926   0.0559

          k = 0.6245-0.2082 0.6245 (  1440 PWs)   bands (ev):

   -12.4675  -1.7942  -0.5609   0.1740

          k = 0.5204-0.1041 0.5204 (  1434 PWs)   bands (ev):

   -12.5517  -1.5070  -0.5624   0.3355

          k = 0.4163 0.0000 0.4163 (  1412 PWs)   bands (ev):

   -12.6933  -1.1085  -0.2991   0.4808

          k = 0.0000 0.6245 0.0000 (  1435 PWs)   bands (ev):

   -12.6262  -1.2090  -0.1039  -0.1039

          k =-0.1041 0.7286-0.1041 (  1424 PWs)   bands (ev):

   -12.5042  -1.5747  -0.3171  -0.2007

          k = 0.8327-0.2082 0.8327 (  1440 PWs)   bands (ev):

   -12.4113  -1.7523  -0.6719  -0.1844

          k = 0.7286-0.1041 0.7286 (  1439 PWs)   bands (ev):

   -12.3871  -1.6395  -1.0528  -0.0594

          k = 0.6245 0.0000 0.6245 (  1448 PWs)   bands (ev):

   -12.4423  -1.4080  -1.1586   0.1367

          k = 0.0000 0.8327 0.0000 (  1423 PWs)   bands (ev):

   -12.4165  -1.8520  -0.3424  -0.3424

          k = 0.9368-0.1041 0.9368 (  1422 PWs)   bands (ev):

   -12.3537  -1.9769  -0.5387  -0.3643

          k = 0.8327 0.0000 0.8327 (  1432 PWs)   bands (ev):

   -12.3426  -1.8422  -0.8903  -0.2604

          k = 0.0000-1.0409 0.0000 (  1428 PWs)   bands (ev):

   -12.3313  -2.0966  -0.4301  -0.4301

          k =-0.2082 0.4163 0.0000 (  1424 PWs)   bands (ev):

   -12.8167  -0.6906   0.0627   0.4113

          k =-0.3123 0.5204-0.1041 (  1422 PWs)   bands (ev):

   -12.6630  -1.2521  -0.1822   0.3232

          k = 0.6245-0.4163 0.8327 (  1439 PWs)   bands (ev):

   -12.5319  -1.7099  -0.3012   0.2108

          k = 0.5204-0.3123 0.7286 (  1432 PWs)   bands (ev):

   -12.4798  -1.8829  -0.3335   0.1591

          k =-0.2082 0.6245 0.0000 (  1423 PWs)   bands (ev):

   -12.6004  -1.2993  -0.2804   0.0284

          k = 0.7286-0.3123 0.9368 (  1433 PWs)   bands (ev):

   -12.4783  -1.5952  -0.5806  -0.0634

          k = 0.6245-0.2082 0.8327 (  1427 PWs)   bands (ev):

   -12.4129  -1.6970  -0.8281  -0.0716

          k = 0.5204-0.1041 0.7286 (  1438 PWs)   bands (ev):

   -12.4341  -1.5850  -0.9309   0.0366

          k = 0.4163 0.0000 0.6245 (  1433 PWs)   bands (ev):

   -12.5316  -1.4155  -0.7014   0.2003

          k = 0.8327-0.2082 1.0409 (  1437 PWs)   bands (ev):

   -12.4102  -1.7805  -0.5380  -0.2978

          k = 0.7286-0.1041 0.9368 (  1433 PWs)   bands (ev):

   -12.3564  -1.7626  -0.8812  -0.3039

          k = 0.6245 0.0000 0.8327 (  1438 PWs)   bands (ev):

   -12.3660  -1.4898  -1.2537  -0.1701

          k =-0.2082-1.0409 0.0000 (  1424 PWs)   bands (ev):

   -12.3330  -1.9683  -0.6322  -0.4188

          k = 0.6245-0.2082 1.0409 (  1436 PWs)   bands (ev):

   -12.3918  -1.5715  -0.9980  -0.2081

          k = 0.5204-0.1041 0.9368 (  1434 PWs)   bands (ev):

   -12.3580  -1.4740  -1.2305  -0.2836

          k =-0.4163-1.0409 0.0000 (  1436 PWs)   bands (ev):

   -12.3360  -1.6089  -1.1056  -0.4007

     highest occupied level (ev):     0.5964

!    total energy              =     -30.74446177 Ry
     estimated scf accuracy    <          4.1E-09 Ry

     The total energy is the sum of the following terms:
     one-electron contribution =      -5.66193845 Ry
     hartree contribution      =       6.06028755 Ry
     xc contribution           =      -6.34599186 Ry
     ewald contribution        =     -24.79681900 Ry

     convergence has been achieved in  20 iterations
     Writing meta-gga kinetic term

     Forces acting on atoms (cartesian axes, Ry/au):

     atom    1 type  1   force =     0.00000000    0.00000000    0.00000000
     atom    2 type  2   force =    -0.00000000   -0.00000000   -0.00000000

     Total force =     0.000000     Total SCF correction =     0.000000


     Computing stress (Cartesian axis) and pressure

          total   stress  (Ry/bohr**3)                   (kbar)     P=       -2.07
  -0.00001409  -0.00000000   0.00000000           -2.07       -0.00        0.00
   0.00000000  -0.00001409   0.00000000            0.00       -2.07        0.00
   0.00000000  -0.00000000  -0.00001409            0.00       -0.00       -2.07


     Writing all to output data dir ./pwscf.save/
     Writing meta-gga kinetic term
 
     init_run     :      2.80s CPU      2.87s WALL (       2 calls)
     electrons    :    120.88s CPU    121.71s WALL (       7 calls)
     update_pot   :      1.99s CPU      2.01s WALL (       5 calls)
     forces       :      1.01s CPU      1.02s WALL (       7 calls)
     stress       :      3.43s CPU      3.46s WALL (       7 calls)

     Called by init_run:
     wfcinit      :      2.11s CPU      2.12s WALL (       2 calls)
     potinit      :      0.28s CPU      0.29s WALL (       2 calls)
     hinit0       :      0.39s CPU      0.44s WALL (       2 calls)

     Called by electrons:
     c_bands      :     96.28s CPU     96.94s WALL (     105 calls)
     sum_band     :     21.58s CPU     21.69s WALL (     105 calls)
     v_of_rho     :      1.85s CPU      1.89s WALL (     112 calls)
     mix_rho      :      1.22s CPU      1.24s WALL (     105 calls)

     Called by c_bands:
     init_us_2    :      1.10s CPU      1.11s WALL (   10622 calls)
     init_us_2:cp :      1.08s CPU      1.09s WALL (   10622 calls)
     cegterg      :     95.33s CPU     95.99s WALL (    4935 calls)

     Called by *egterg:
     cdiaghg      :      0.23s CPU      0.24s WALL (   12042 calls)
     h_psi        :     95.92s CPU     96.57s WALL (   12371 calls)
     g_psi        :      0.09s CPU      0.09s WALL (    7342 calls)

     Called by h_psi:
     h_psi:calbec :      0.21s CPU      0.21s WALL (   12371 calls)
     vloc_psi     :     23.72s CPU     23.91s WALL (   12371 calls)
     add_vuspsi   :      0.23s CPU      0.24s WALL (   12371 calls)
     h_psi_meta   :     71.61s CPU     72.08s WALL (   12371 calls)

     General routines
     calbec       :      0.21s CPU      0.21s WALL (   14016 calls)
     fft          :      0.30s CPU      0.36s WALL (    1379 calls)
     ffts         :      0.57s CPU      0.58s WALL (    2602 calls)
     fftw         :    103.74s CPU    104.42s WALL (  473052 calls)
     interpolate  :      0.00s CPU      0.00s WALL (     112 calls)
 
     Parallel routines
 
     PWSCF        :   2m10.24s CPU   2m11.21s WALL

 
   This run was terminated on:  14:41:26  18Feb2023            

=------------------------------------------------------------------------------=
   JOB DONE.
=------------------------------------------------------------------------------=
