
     Program PWSCF v.7.0 starts on 10Apr2023 at  9:43:44 

     This program is part of the open-source Quantum ESPRESSO suite
     for quantum simulation of materials; please cite
         "P. Giannozzi et al., J. Phys.:Condens. Matter 21 395502 (2009);
         "P. Giannozzi et al., J. Phys.:Condens. Matter 29 465901 (2017);
         "P. Giannozzi et al., J. Chem. Phys. 152 154105 (2020);
          URL http://www.quantum-espresso.org", 
     in publications or presentations arising from this work. More details at
     http://www.quantum-espresso.org/quote

     Parallel version (MPI), running on     1 processors

     MPI processes distributed on     1 nodes
     19579 MiB available memory on the printing compute node when the environment starts
 
     Waiting for input...
     Reading input from standard input
Warning: card &CELL ignored
Warning: card / ignored

     Current dimensions of program PWSCF are:
     Max number of different atomic species (ntypx) = 10
     Max number of k-points (npk) =  40000
     Max angular momentum in pseudopotentials (lmaxx) =  4

     WARNING: the MGGA functional with ID    5 has been 
     read together with other dft terms, but it should 
     stand alone in order to work properly. The other 
     terms will be ignored.

     WARNING: the MGGA functional with ID    5 has been 
     read together with other dft terms, but it should 
     stand alone in order to work properly. The other 
     terms will be ignored.

     Subspace diagonalization in iterative solution of the eigenvalue problem:
     a serial algorithm will be used

 
     G-vector sticks info
     --------------------
     sticks:   dense  smooth     PW     G-vecs:    dense   smooth      PW
     Sum         253     253     85                 2733     2733     537
 
     Using Slab Decomposition
 


     bravais-lattice index     =            2
     lattice parameter (alat)  =       6.0925  a.u.
     unit-cell volume          =      56.5356 (a.u.)^3
     number of atoms/cell      =            2
     number of atomic types    =            2
     number of electrons       =         8.00
     number of Kohn-Sham states=            4
     kinetic-energy cutoff     =      50.0000  Ry
     charge density cutoff     =     200.0000  Ry
     scf convergence threshold =      1.0E-06
     mixing beta               =       0.0100
     number of iterations used =            8  local-TF  mixing
     Exchange-correlation= SLA  PW   SCAN SCAN
                           (   0   0   0   0   0 263 267)

     celldm(1)=   6.092477  celldm(2)=   0.000000  celldm(3)=   0.000000
     celldm(4)=   0.000000  celldm(5)=   0.000000  celldm(6)=   0.000000

     crystal axes: (cart. coord. in units of alat)
               a(1) = (  -0.500000   0.000000   0.500000 )  
               a(2) = (   0.000000   0.500000   0.500000 )  
               a(3) = (  -0.500000   0.500000   0.000000 )  

     reciprocal axes: (cart. coord. in units 2 pi/alat)
               b(1) = ( -1.000000 -1.000000  1.000000 )  
               b(2) = (  1.000000  1.000000  1.000000 )  
               b(3) = ( -1.000000  1.000000 -1.000000 )  


     PseudoPot. # 1 for Li read from file:
     ~/Documents/TA/PWDFT.jl/pseudopotentials/scan_upf/Li.SCAN.UPF2
     MD5 check sum: Not computed, couldn't open file
     Pseudo is Norm-conserving, Zval =  1.0
     Generated by new atomic code, or converted to UPF format
     Using radial grid of 1321 points,  1 beta functions with: 
                l(1) =   0

     PseudoPot. # 2 for F  read from file:
     ~/Documents/TA/PWDFT.jl/pseudopotentials/scan_upf/F.SCAN.UPF2
     MD5 check sum: Not computed, couldn't open file
     Pseudo is Norm-conserving, Zval =  7.0
     Generated by new atomic code, or converted to UPF format
     Using radial grid of 1431 points,  1 beta functions with: 
                l(1) =   0

     atomic species   valence    mass     pseudopotential
        Li             1.00     6.94100     Li( 1.00)
        F              7.00    18.99800     F ( 1.00)

     48 Sym. Ops., with inversion, found



   Cartesian axes

     site n.     atom                  positions (alat units)
         1           Li  tau(   1) = (   0.0000000   0.0000000   0.0000000  )
         2           F   tau(   2) = (   0.5000000   0.5000000   0.5000000  )

     number of k points=    47
                       cart. coord. in units 2pi/alat
        k(    1) = (   0.0000000   0.0000000   0.0000000), wk =   0.0020000
        k(    2) = (  -0.1000000   0.1000000  -0.1000000), wk =   0.0160000
        k(    3) = (  -0.2000000   0.2000000  -0.2000000), wk =   0.0160000
        k(    4) = (  -0.3000000   0.3000000  -0.3000000), wk =   0.0160000
        k(    5) = (  -0.4000000   0.4000000  -0.4000000), wk =   0.0160000
        k(    6) = (   0.5000000  -0.5000000   0.5000000), wk =   0.0080000
        k(    7) = (   0.0000000   0.2000000   0.0000000), wk =   0.0120000
        k(    8) = (  -0.1000000   0.3000000  -0.1000000), wk =   0.0480000
        k(    9) = (  -0.2000000   0.4000000  -0.2000000), wk =   0.0480000
        k(   10) = (  -0.3000000   0.5000000  -0.3000000), wk =   0.0480000
        k(   11) = (   0.6000000  -0.4000000   0.6000000), wk =   0.0480000
        k(   12) = (   0.5000000  -0.3000000   0.5000000), wk =   0.0480000
        k(   13) = (   0.4000000  -0.2000000   0.4000000), wk =   0.0480000
        k(   14) = (   0.3000000  -0.1000000   0.3000000), wk =   0.0480000
        k(   15) = (   0.2000000   0.0000000   0.2000000), wk =   0.0240000
        k(   16) = (   0.0000000   0.4000000   0.0000000), wk =   0.0120000
        k(   17) = (  -0.1000000   0.5000000  -0.1000000), wk =   0.0480000
        k(   18) = (  -0.2000000   0.6000000  -0.2000000), wk =   0.0480000
        k(   19) = (   0.7000000  -0.3000000   0.7000000), wk =   0.0480000
        k(   20) = (   0.6000000  -0.2000000   0.6000000), wk =   0.0480000
        k(   21) = (   0.5000000  -0.1000000   0.5000000), wk =   0.0480000
        k(   22) = (   0.4000000   0.0000000   0.4000000), wk =   0.0240000
        k(   23) = (   0.0000000   0.6000000   0.0000000), wk =   0.0120000
        k(   24) = (  -0.1000000   0.7000000  -0.1000000), wk =   0.0480000
        k(   25) = (   0.8000000  -0.2000000   0.8000000), wk =   0.0480000
        k(   26) = (   0.7000000  -0.1000000   0.7000000), wk =   0.0480000
        k(   27) = (   0.6000000  -0.0000000   0.6000000), wk =   0.0240000
        k(   28) = (   0.0000000   0.8000000   0.0000000), wk =   0.0120000
        k(   29) = (   0.9000000  -0.1000000   0.9000000), wk =   0.0480000
        k(   30) = (   0.8000000   0.0000000   0.8000000), wk =   0.0240000
        k(   31) = (   0.0000000  -1.0000000   0.0000000), wk =   0.0060000
        k(   32) = (  -0.2000000   0.4000000   0.0000000), wk =   0.0480000
        k(   33) = (  -0.3000000   0.5000000  -0.1000000), wk =   0.0960000
        k(   34) = (   0.6000000  -0.4000000   0.8000000), wk =   0.0960000
        k(   35) = (   0.5000000  -0.3000000   0.7000000), wk =   0.0480000
        k(   36) = (  -0.2000000   0.6000000   0.0000000), wk =   0.0480000
        k(   37) = (   0.7000000  -0.3000000   0.9000000), wk =   0.0960000
        k(   38) = (   0.6000000  -0.2000000   0.8000000), wk =   0.0960000
        k(   39) = (   0.5000000  -0.1000000   0.7000000), wk =   0.0960000
        k(   40) = (   0.4000000   0.0000000   0.6000000), wk =   0.0480000
        k(   41) = (   0.8000000  -0.2000000   1.0000000), wk =   0.0480000
        k(   42) = (   0.7000000  -0.1000000   0.9000000), wk =   0.0960000
        k(   43) = (   0.6000000   0.0000000   0.8000000), wk =   0.0480000
        k(   44) = (  -0.2000000  -1.0000000   0.0000000), wk =   0.0240000
        k(   45) = (   0.6000000  -0.2000000   1.0000000), wk =   0.0480000
        k(   46) = (   0.5000000  -0.1000000   0.9000000), wk =   0.0480000
        k(   47) = (  -0.4000000  -1.0000000   0.0000000), wk =   0.0240000

     Dense  grid:     2733 G-vectors     FFT dimensions: (  20,  20,  20)

     Estimated max dynamical RAM per process >       5.12 MB

     WARNING: libxc functional with ID  263 depends
      on external parameters: check the user_guide of
      QE if you need to modify them or to check their
      default values.

     Initial potential from superposition of free atoms

     starting charge       7.9953, renormalised to       8.0000
     Starting wfcs are    8 randomized atomic wfcs

     total cpu time spent up to now is        1.1 secs

     Self-consistent Calculation

     iteration #  1     ecut=    50.00 Ry     beta= 0.01
     Davidson diagonalization with overlap
     ethr =  1.00E-02,  avg # of iterations =  2.0

     total cpu time spent up to now is        2.1 secs

     total energy              =     -48.14677485 Ry
     estimated scf accuracy    <      18.38408544 Ry

     iteration #  2     ecut=    50.00 Ry     beta= 0.01
     Davidson diagonalization with overlap
     ethr =  1.00E-02,  avg # of iterations =  1.0

     total cpu time spent up to now is        2.9 secs

     total energy              =     -48.21363631 Ry
     estimated scf accuracy    <      17.90435994 Ry

     iteration #  3     ecut=    50.00 Ry     beta= 0.01
     Davidson diagonalization with overlap
     ethr =  1.00E-02,  avg # of iterations =  1.0

     total cpu time spent up to now is        3.6 secs

     total energy              =     -48.22365866 Ry
     estimated scf accuracy    <       2.43588841 Ry

     iteration #  4     ecut=    50.00 Ry     beta= 0.01
     Davidson diagonalization with overlap
     ethr =  1.00E-02,  avg # of iterations =  1.0

     total cpu time spent up to now is        4.5 secs

     total energy              =     -48.22396138 Ry
     estimated scf accuracy    <       0.00528257 Ry

     iteration #  5     ecut=    50.00 Ry     beta= 0.01
     Davidson diagonalization with overlap
     ethr =  6.60E-05,  avg # of iterations =  1.0

     total cpu time spent up to now is        5.4 secs

     total energy              =     -48.22397666 Ry
     estimated scf accuracy    <       0.00505317 Ry

     iteration #  6     ecut=    50.00 Ry     beta= 0.01
     Davidson diagonalization with overlap
     ethr =  6.32E-05,  avg # of iterations =  1.0

     total cpu time spent up to now is        6.3 secs

     total energy              =     -48.22296617 Ry
     estimated scf accuracy    <       0.00517015 Ry

     iteration #  7     ecut=    50.00 Ry     beta= 0.01
     Davidson diagonalization with overlap
     ethr =  6.32E-05,  avg # of iterations =  2.0

     total cpu time spent up to now is        7.6 secs

     total energy              =     -48.22411402 Ry
     estimated scf accuracy    <       0.02128194 Ry

     iteration #  8     ecut=    50.00 Ry     beta= 0.01
     Davidson diagonalization with overlap
     ethr =  6.32E-05,  avg # of iterations =  1.0

     total cpu time spent up to now is        8.5 secs

     total energy              =     -48.22447856 Ry
     estimated scf accuracy    <       0.02768379 Ry

     iteration #  9     ecut=    50.00 Ry     beta= 0.01
     Davidson diagonalization with overlap
     ethr =  6.32E-05,  avg # of iterations =  1.0

     total cpu time spent up to now is        9.4 secs

     total energy              =     -48.22376340 Ry
     estimated scf accuracy    <       0.04935414 Ry

     iteration # 10     ecut=    50.00 Ry     beta= 0.01
     Davidson diagonalization with overlap
     ethr =  6.32E-05,  avg # of iterations =  1.0

     total cpu time spent up to now is       10.2 secs

     total energy              =     -48.22392841 Ry
     estimated scf accuracy    <       0.00419906 Ry

     iteration # 11     ecut=    50.00 Ry     beta= 0.01
     Davidson diagonalization with overlap
     ethr =  5.25E-05,  avg # of iterations =  1.0

     total cpu time spent up to now is       11.0 secs

     total energy              =     -48.22391925 Ry
     estimated scf accuracy    <       0.00300014 Ry

     iteration # 12     ecut=    50.00 Ry     beta= 0.01
     Davidson diagonalization with overlap
     ethr =  3.75E-05,  avg # of iterations =  1.0

     total cpu time spent up to now is       11.8 secs

     total energy              =     -48.22391536 Ry
     estimated scf accuracy    <       0.00198881 Ry

     iteration # 13     ecut=    50.00 Ry     beta= 0.01
     Davidson diagonalization with overlap
     ethr =  2.49E-05,  avg # of iterations =  1.0

     total cpu time spent up to now is       12.7 secs

     total energy              =     -48.22389400 Ry
     estimated scf accuracy    <       0.00140950 Ry

     iteration # 14     ecut=    50.00 Ry     beta= 0.01
     Davidson diagonalization with overlap
     ethr =  1.76E-05,  avg # of iterations =  1.0

     total cpu time spent up to now is       13.6 secs

     total energy              =     -48.22395639 Ry
     estimated scf accuracy    <       0.00003836 Ry

     iteration # 15     ecut=    50.00 Ry     beta= 0.01
     Davidson diagonalization with overlap
     ethr =  4.79E-07,  avg # of iterations =  2.0

     total cpu time spent up to now is       14.8 secs

     total energy              =     -48.22398651 Ry
     estimated scf accuracy    <       0.00424287 Ry

     iteration # 16     ecut=    50.00 Ry     beta= 0.01
     Davidson diagonalization with overlap
     ethr =  4.79E-07,  avg # of iterations =  1.0

     total cpu time spent up to now is       15.8 secs

     total energy              =     -48.22390405 Ry
     estimated scf accuracy    <       0.00442815 Ry

     iteration # 17     ecut=    50.00 Ry     beta= 0.01
     Davidson diagonalization with overlap
     ethr =  4.79E-07,  avg # of iterations =  2.0

     total cpu time spent up to now is       16.9 secs

     total energy              =     -48.22390772 Ry
     estimated scf accuracy    <       0.00084445 Ry

     iteration # 18     ecut=    50.00 Ry     beta= 0.01
     Davidson diagonalization with overlap
     ethr =  4.79E-07,  avg # of iterations =  1.0

     total cpu time spent up to now is       17.9 secs

     total energy              =     -48.22390972 Ry
     estimated scf accuracy    <       0.00023538 Ry

     iteration # 19     ecut=    50.00 Ry     beta= 0.01
     Davidson diagonalization with overlap
     ethr =  4.79E-07,  avg # of iterations =  1.0

     total cpu time spent up to now is       18.8 secs

     total energy              =     -48.22390753 Ry
     estimated scf accuracy    <       0.00017149 Ry

     iteration # 20     ecut=    50.00 Ry     beta= 0.01
     Davidson diagonalization with overlap
     ethr =  4.79E-07,  avg # of iterations =  1.0

     total cpu time spent up to now is       19.6 secs

     End of self-consistent calculation

          k = 0.0000 0.0000 0.0000 (   331 PWs)   bands (ev):

   -17.5515   7.6189   7.6189   7.6189

          k =-0.1000 0.1000-0.1000 (   332 PWs)   bands (ev):

   -17.4407   7.0426   7.5575   7.5575

          k =-0.2000 0.2000-0.2000 (   332 PWs)   bands (ev):

   -17.1357   5.7301   7.3639   7.3639

          k =-0.3000 0.3000-0.3000 (   338 PWs)   bands (ev):

   -16.7247   3.9714   7.1529   7.1529

          k =-0.4000 0.4000-0.4000 (   344 PWs)   bands (ev):

   -16.3570   2.5865   6.9826   6.9826

          k = 0.5000-0.5000 0.5000 (   344 PWs)   bands (ev):

   -16.2063   2.1114   6.9132   6.9132

          k = 0.0000 0.2000 0.0000 (   335 PWs)   bands (ev):

   -17.3992   7.2181   7.2863   7.2863

          k =-0.1000 0.3000-0.1000 (   335 PWs)   bands (ev):

   -17.1443   6.0702   6.9964   7.2412

          k =-0.2000 0.4000-0.2000 (   334 PWs)   bands (ev):

   -16.7450   4.4607   6.7762   6.9836

          k =-0.3000 0.5000-0.3000 (   337 PWs)   bands (ev):

   -16.3342   2.9865   6.6040   6.6564

          k = 0.6000-0.4000 0.6000 (   339 PWs)   bands (ev):

   -16.0924   2.2016   6.2729   6.7204

          k = 0.5000-0.3000 0.5000 (   340 PWs)   bands (ev):

   -16.1506   2.3648   6.1437   6.9190

          k = 0.4000-0.2000 0.4000 (   344 PWs)   bands (ev):

   -16.4760   3.4516   6.1666   7.1020

          k = 0.3000-0.1000 0.3000 (   333 PWs)   bands (ev):

   -16.9014   5.0891   6.5137   7.4930

          k = 0.2000 0.0000 0.2000 (   329 PWs)   bands (ev):

   -17.2589   6.5415   6.9822   7.6541

          k = 0.0000 0.4000 0.0000 (   331 PWs)   bands (ev):

   -16.9240   5.8560   6.5863   6.5863

          k =-0.1000 0.5000-0.1000 (   331 PWs)   bands (ev):

   -16.5331   4.4196   6.2232   6.2361

          k =-0.2000 0.6000-0.2000 (   334 PWs)   bands (ev):

   -16.0926   2.9950   5.5839   6.0851

          k = 0.7000-0.3000 0.7000 (   337 PWs)   bands (ev):

   -15.7839   2.1490   4.9715   6.1444

          k = 0.6000-0.2000 0.6000 (   336 PWs)   bands (ev):

   -15.7698   2.1900   4.5927   6.5012

          k = 0.5000-0.1000 0.5000 (   339 PWs)   bands (ev):

   -16.0602   3.1339   4.5224   6.8690

          k = 0.4000 0.0000 0.4000 (   333 PWs)   bands (ev):

   -16.4992   4.4328   5.1305   7.3034

          k = 0.0000 0.6000 0.0000 (   339 PWs)   bands (ev):

   -16.1464   3.3051   5.6605   5.6605

          k =-0.1000 0.7000-0.1000 (   333 PWs)   bands (ev):

   -15.6987   2.0588   5.1667   5.4860

          k = 0.8000-0.2000 0.8000 (   340 PWs)   bands (ev):

   -15.3740   1.3028   4.3804   5.4931

          k = 0.7000-0.1000 0.7000 (   343 PWs)   bands (ev):

   -15.3397   1.5046   3.6586   5.8052

          k = 0.6000-0.0000 0.6000 (   339 PWs)   bands (ev):

   -15.6166   2.5500   3.4158   6.3277

          k = 0.0000 0.8000 0.0000 (   327 PWs)   bands (ev):

   -15.2773   0.9026   5.1249   5.1249

          k = 0.9000-0.1000 0.9000 (   338 PWs)   bands (ev):

   -15.0104   0.2062   4.6602   5.0047

          k = 0.8000 0.0000 0.8000 (   341 PWs)   bands (ev):

   -15.0341   0.5004   4.0061   5.2988

          k = 0.0000-1.0000 0.0000 (   342 PWs)   bands (ev):

   -14.8633  -0.3053   4.8155   4.8155

          k =-0.2000 0.4000 0.0000 (   335 PWs)   bands (ev):

   -16.8252   5.2153   6.1273   7.1209

          k =-0.3000 0.5000-0.1000 (   334 PWs)   bands (ev):

   -16.3910   3.8615   5.4938   6.8786

          k = 0.6000-0.4000 0.8000 (   341 PWs)   bands (ev):

   -16.0023   2.5857   5.0860   6.6039

          k = 0.5000-0.3000 0.7000 (   342 PWs)   bands (ev):

   -15.8425   2.0876   4.9970   6.4942

          k =-0.2000 0.6000 0.0000 (   331 PWs)   bands (ev):

   -16.1057   3.3054   5.2020   6.1590

          k = 0.7000-0.3000 0.9000 (   337 PWs)   bands (ev):

   -15.6895   2.2700   4.3268   6.0080

          k = 0.6000-0.2000 0.8000 (   340 PWs)   bands (ev):

   -15.4736   1.8504   3.7141   6.0857

          k = 0.5000-0.1000 0.7000 (   338 PWs)   bands (ev):

   -15.5778   2.3768   3.4566   6.3166

          k = 0.4000 0.0000 0.6000 (   337 PWs)   bands (ev):

   -15.9450   3.3263   3.9127   6.6300

          k = 0.8000-0.2000 1.0000 (   334 PWs)   bands (ev):

   -15.3100   1.1202   4.4873   5.4408

          k = 0.7000-0.1000 0.9000 (   343 PWs)   bands (ev):

   -15.1185   0.8766   3.6317   5.5200

          k = 0.6000 0.0000 0.8000 (   342 PWs)   bands (ev):

   -15.2271   1.5567   3.0401   5.8679

          k =-0.2000-1.0000 0.0000 (   340 PWs)   bands (ev):

   -14.9320   0.1160   4.1898   5.1920

          k = 0.6000-0.2000 1.0000 (   343 PWs)   bands (ev):

   -15.3302   1.8677   3.0143   5.9729

          k = 0.5000-0.1000 0.9000 (   338 PWs)   bands (ev):

   -15.1826   1.9938   2.3668   5.9931

          k =-0.4000-1.0000 0.0000 (   344 PWs)   bands (ev):

   -15.0418   1.1708   2.7320   5.7406

     highest occupied level (ev):     7.6541

!    total energy              =     -48.22390866 Ry
     estimated scf accuracy    <       0.00000089 Ry

     The total energy is the sum of the following terms:
     one-electron contribution =      -9.40367788 Ry
     hartree contribution      =      11.53424244 Ry
     xc contribution           =     -10.22311725 Ry
     ewald contribution        =     -40.13135598 Ry

     convergence has been achieved in  20 iterations
     Writing meta-gga kinetic term

     Writing all to output data dir ./input_pw/LiF/1/pwscf.save/
     Writing meta-gga kinetic term
 
     init_run     :      0.41s CPU      0.98s WALL (       1 calls)
     electrons    :      8.60s CPU     18.56s WALL (       1 calls)

     Called by init_run:
     wfcinit      :      0.34s CPU      0.81s WALL (       1 calls)
     potinit      :      0.01s CPU      0.01s WALL (       1 calls)
     hinit0       :      0.06s CPU      0.16s WALL (       1 calls)

     Called by electrons:
     c_bands      :      6.79s CPU     14.70s WALL (      20 calls)
     sum_band     :      1.63s CPU      3.47s WALL (      20 calls)
     v_of_rho     :      0.11s CPU      0.21s WALL (      21 calls)
     mix_rho      :      0.08s CPU      0.15s WALL (      20 calls)

     Called by c_bands:
     init_us_2    :      0.04s CPU      0.11s WALL (    1927 calls)
     init_us_2:cp :      0.04s CPU      0.10s WALL (    1927 calls)
     cegterg      :      6.73s CPU     14.54s WALL (     940 calls)

     Called by *egterg:
     cdiaghg      :      0.08s CPU      0.12s WALL (    2068 calls)
     h_psi        :      6.85s CPU     14.92s WALL (    2115 calls)
     g_psi        :      0.01s CPU      0.01s WALL (    1128 calls)

     Called by h_psi:
     h_psi:calbec :      0.02s CPU      0.05s WALL (    2115 calls)
     vloc_psi     :      1.68s CPU      3.59s WALL (    2115 calls)
     add_vuspsi   :      0.02s CPU      0.02s WALL (    2115 calls)
     h_psi_meta   :      5.10s CPU     11.23s WALL (    2115 calls)

     General routines
     calbec       :      0.01s CPU      0.03s WALL (    2115 calls)
     fft          :      0.02s CPU      0.09s WALL (     249 calls)
     ffts         :      0.04s CPU      0.06s WALL (     477 calls)
     fftw         :      7.53s CPU     16.46s WALL (   83920 calls)
     interpolate  :      0.00s CPU      0.00s WALL (      21 calls)
 
     Parallel routines
 
     PWSCF        :      9.07s CPU     19.70s WALL

 
   This run was terminated on:   9:44: 4  10Apr2023            

=------------------------------------------------------------------------------=
   JOB DONE.
=------------------------------------------------------------------------------=
