
     Program PWSCF v.7.0 starts on  7Jul2023 at 14:23:45 

     This program is part of the open-source Quantum ESPRESSO suite
     for quantum simulation of materials; please cite
         "P. Giannozzi et al., J. Phys.:Condens. Matter 21 395502 (2009);
         "P. Giannozzi et al., J. Phys.:Condens. Matter 29 465901 (2017);
         "P. Giannozzi et al., J. Chem. Phys. 152 154105 (2020);
          URL http://www.quantum-espresso.org", 
     in publications or presentations arising from this work. More details at
     http://www.quantum-espresso.org/quote

     Parallel version (MPI), running on     1 processors

     MPI processes distributed on     1 nodes
     27043 MiB available memory on the printing compute node when the environment starts
 
     Waiting for input...
     Reading input from standard input
Warning: card &CELL ignored
Warning: card / ignored

     Current dimensions of program PWSCF are:
     Max number of different atomic species (ntypx) = 10
     Max number of k-points (npk) =  40000
     Max angular momentum in pseudopotentials (lmaxx) =  4

     WARNING: the MGGA functional with ID    5 has been 
     read together with other dft terms, but it should 
     stand alone in order to work properly. The other 
     terms will be ignored.

     WARNING: the MGGA functional with ID    5 has been 
     read together with other dft terms, but it should 
     stand alone in order to work properly. The other 
     terms will be ignored.

     Subspace diagonalization in iterative solution of the eigenvalue problem:
     a serial algorithm will be used

 
     G-vector sticks info
     --------------------
     sticks:   dense  smooth     PW     G-vecs:    dense   smooth      PW
     Sum         313     313    109                 3695     3695     725
 
     Using Slab Decomposition
 


     bravais-lattice index     =            2
     lattice parameter (alat)  =       6.7173  a.u.
     unit-cell volume          =      75.7763 (a.u.)^3
     number of atoms/cell      =            2
     number of atomic types    =            2
     number of electrons       =         8.00
     number of Kohn-Sham states=            4
     kinetic-energy cutoff     =      50.0000  Ry
     charge density cutoff     =     200.0000  Ry
     scf convergence threshold =      2.0E-05
     mixing beta               =       0.2000
     number of iterations used =            8  local-TF  mixing
     Exchange-correlation= SLA  PW   SCAN SCAN
                           (   0   0   0   0   0 263 267)

     celldm(1)=   6.717346  celldm(2)=   0.000000  celldm(3)=   0.000000
     celldm(4)=   0.000000  celldm(5)=   0.000000  celldm(6)=   0.000000

     crystal axes: (cart. coord. in units of alat)
               a(1) = (  -0.500000   0.000000   0.500000 )  
               a(2) = (   0.000000   0.500000   0.500000 )  
               a(3) = (  -0.500000   0.500000   0.000000 )  

     reciprocal axes: (cart. coord. in units 2 pi/alat)
               b(1) = ( -1.000000 -1.000000  1.000000 )  
               b(2) = (  1.000000  1.000000  1.000000 )  
               b(3) = ( -1.000000  1.000000 -1.000000 )  


     PseudoPot. # 1 for Li read from file:
     ~/Documents/TA/PWDFT.jl/pseudopotentials/scan_upf/Li.SCAN.UPF2
     MD5 check sum: Not computed, couldn't open file
     Pseudo is Norm-conserving, Zval =  1.0
     Generated by new atomic code, or converted to UPF format
     Using radial grid of 1321 points,  1 beta functions with: 
                l(1) =   0

     PseudoPot. # 2 for F  read from file:
     ~/Documents/TA/PWDFT.jl/pseudopotentials/scan_upf/F.SCAN.UPF2
     MD5 check sum: Not computed, couldn't open file
     Pseudo is Norm-conserving, Zval =  7.0
     Generated by new atomic code, or converted to UPF format
     Using radial grid of 1431 points,  1 beta functions with: 
                l(1) =   0

     atomic species   valence    mass     pseudopotential
        Li             1.00     6.94100     Li( 1.00)
        F              7.00    18.99800     F ( 1.00)

     48 Sym. Ops., with inversion, found



   Cartesian axes

     site n.     atom                  positions (alat units)
         1           Li  tau(   1) = (   0.0000000   0.0000000   0.0000000  )
         2           F   tau(   2) = (   0.5000000   0.5000000   0.5000000  )

     number of k points=    47
                       cart. coord. in units 2pi/alat
        k(    1) = (   0.0000000   0.0000000   0.0000000), wk =   0.0020000
        k(    2) = (  -0.1000000   0.1000000  -0.1000000), wk =   0.0160000
        k(    3) = (  -0.2000000   0.2000000  -0.2000000), wk =   0.0160000
        k(    4) = (  -0.3000000   0.3000000  -0.3000000), wk =   0.0160000
        k(    5) = (  -0.4000000   0.4000000  -0.4000000), wk =   0.0160000
        k(    6) = (   0.5000000  -0.5000000   0.5000000), wk =   0.0080000
        k(    7) = (   0.0000000   0.2000000   0.0000000), wk =   0.0120000
        k(    8) = (  -0.1000000   0.3000000  -0.1000000), wk =   0.0480000
        k(    9) = (  -0.2000000   0.4000000  -0.2000000), wk =   0.0480000
        k(   10) = (  -0.3000000   0.5000000  -0.3000000), wk =   0.0480000
        k(   11) = (   0.6000000  -0.4000000   0.6000000), wk =   0.0480000
        k(   12) = (   0.5000000  -0.3000000   0.5000000), wk =   0.0480000
        k(   13) = (   0.4000000  -0.2000000   0.4000000), wk =   0.0480000
        k(   14) = (   0.3000000  -0.1000000   0.3000000), wk =   0.0480000
        k(   15) = (   0.2000000   0.0000000   0.2000000), wk =   0.0240000
        k(   16) = (   0.0000000   0.4000000   0.0000000), wk =   0.0120000
        k(   17) = (  -0.1000000   0.5000000  -0.1000000), wk =   0.0480000
        k(   18) = (  -0.2000000   0.6000000  -0.2000000), wk =   0.0480000
        k(   19) = (   0.7000000  -0.3000000   0.7000000), wk =   0.0480000
        k(   20) = (   0.6000000  -0.2000000   0.6000000), wk =   0.0480000
        k(   21) = (   0.5000000  -0.1000000   0.5000000), wk =   0.0480000
        k(   22) = (   0.4000000   0.0000000   0.4000000), wk =   0.0240000
        k(   23) = (   0.0000000   0.6000000   0.0000000), wk =   0.0120000
        k(   24) = (  -0.1000000   0.7000000  -0.1000000), wk =   0.0480000
        k(   25) = (   0.8000000  -0.2000000   0.8000000), wk =   0.0480000
        k(   26) = (   0.7000000  -0.1000000   0.7000000), wk =   0.0480000
        k(   27) = (   0.6000000  -0.0000000   0.6000000), wk =   0.0240000
        k(   28) = (   0.0000000   0.8000000   0.0000000), wk =   0.0120000
        k(   29) = (   0.9000000  -0.1000000   0.9000000), wk =   0.0480000
        k(   30) = (   0.8000000   0.0000000   0.8000000), wk =   0.0240000
        k(   31) = (   0.0000000  -1.0000000   0.0000000), wk =   0.0060000
        k(   32) = (  -0.2000000   0.4000000   0.0000000), wk =   0.0480000
        k(   33) = (  -0.3000000   0.5000000  -0.1000000), wk =   0.0960000
        k(   34) = (   0.6000000  -0.4000000   0.8000000), wk =   0.0960000
        k(   35) = (   0.5000000  -0.3000000   0.7000000), wk =   0.0480000
        k(   36) = (  -0.2000000   0.6000000   0.0000000), wk =   0.0480000
        k(   37) = (   0.7000000  -0.3000000   0.9000000), wk =   0.0960000
        k(   38) = (   0.6000000  -0.2000000   0.8000000), wk =   0.0960000
        k(   39) = (   0.5000000  -0.1000000   0.7000000), wk =   0.0960000
        k(   40) = (   0.4000000   0.0000000   0.6000000), wk =   0.0480000
        k(   41) = (   0.8000000  -0.2000000   1.0000000), wk =   0.0480000
        k(   42) = (   0.7000000  -0.1000000   0.9000000), wk =   0.0960000
        k(   43) = (   0.6000000   0.0000000   0.8000000), wk =   0.0480000
        k(   44) = (  -0.2000000  -1.0000000   0.0000000), wk =   0.0240000
        k(   45) = (   0.6000000  -0.2000000   1.0000000), wk =   0.0480000
        k(   46) = (   0.5000000  -0.1000000   0.9000000), wk =   0.0480000
        k(   47) = (  -0.4000000  -1.0000000   0.0000000), wk =   0.0240000

     Dense  grid:     3695 G-vectors     FFT dimensions: (  24,  24,  24)

     Estimated max dynamical RAM per process >       7.24 MB

     WARNING: libxc functional with ID  263 depends
      on external parameters: check the user_guide of
      QE if you need to modify them or to check their
      default values.

     Initial potential from superposition of free atoms

     starting charge       7.9953, renormalised to       8.0000
     Starting wfcs are    8 randomized atomic wfcs

     total cpu time spent up to now is        1.4 secs

     Self-consistent Calculation

     iteration #  1     ecut=    50.00 Ry     beta= 0.20
     Davidson diagonalization with overlap
     ethr =  1.00E-02,  avg # of iterations =  2.0

     total cpu time spent up to now is        3.1 secs

     total energy              =     -48.43723134 Ry
     estimated scf accuracy    <      18.06260539 Ry

     iteration #  2     ecut=    50.00 Ry     beta= 0.20
     Davidson diagonalization with overlap
     ethr =  1.00E-02,  avg # of iterations =  1.0

     total cpu time spent up to now is        4.4 secs

     total energy              =     -48.45479280 Ry
     estimated scf accuracy    <      11.62417355 Ry

     iteration #  3     ecut=    50.00 Ry     beta= 0.20
     Davidson diagonalization with overlap
     ethr =  1.00E-02,  avg # of iterations =  1.0

     total cpu time spent up to now is        5.6 secs

     total energy              =     -48.45751342 Ry
     estimated scf accuracy    <       0.00700768 Ry

     iteration #  4     ecut=    50.00 Ry     beta= 0.20
     Davidson diagonalization with overlap
     ethr =  8.76E-05,  avg # of iterations =  1.0

     total cpu time spent up to now is        6.9 secs

     total energy              =     -48.45797146 Ry
     estimated scf accuracy    <       0.00594458 Ry

     iteration #  5     ecut=    50.00 Ry     beta= 0.20
     Davidson diagonalization with overlap
     ethr =  7.43E-05,  avg # of iterations =  1.0

     total cpu time spent up to now is        8.2 secs

     total energy              =     -48.45818674 Ry
     estimated scf accuracy    <       0.00133807 Ry

     iteration #  6     ecut=    50.00 Ry     beta= 0.20
     Davidson diagonalization with overlap
     ethr =  1.67E-05,  avg # of iterations =  1.0

     total cpu time spent up to now is        9.5 secs

     total energy              =     -48.45824389 Ry
     estimated scf accuracy    <       0.00002753 Ry

     iteration #  7     ecut=    50.00 Ry     beta= 0.20
     Davidson diagonalization with overlap
     ethr =  3.44E-07,  avg # of iterations =  1.7

     total cpu time spent up to now is       10.7 secs

     End of self-consistent calculation

          k = 0.0000 0.0000 0.0000 (   459 PWs)   bands (ev):

   -19.9459   3.5385   3.5385   3.5385

          k =-0.1000 0.1000-0.1000 (   456 PWs)   bands (ev):

   -19.8589   3.1080   3.5238   3.5238

          k =-0.2000 0.2000-0.2000 (   465 PWs)   bands (ev):

   -19.6244   1.9490   3.3436   3.3436

          k =-0.3000 0.3000-0.3000 (   456 PWs)   bands (ev):

   -19.3129   0.8247   3.2329   3.2329

          k =-0.4000 0.4000-0.4000 (   464 PWs)   bands (ev):

   -19.0451  -0.1026   3.0214   3.0214

          k = 0.5000-0.5000 0.5000 (   464 PWs)   bands (ev):

   -18.9378  -0.4858   2.9929   2.9929

          k = 0.0000 0.2000 0.0000 (   459 PWs)   bands (ev):

   -19.8285   3.1358   3.3714   3.3714

          k =-0.1000 0.3000-0.1000 (   462 PWs)   bands (ev):

   -19.6371   2.2588   3.1591   3.2514

          k =-0.2000 0.4000-0.2000 (   459 PWs)   bands (ev):

   -19.3420   1.1565   2.9338   3.0840

          k =-0.3000 0.5000-0.3000 (   447 PWs)   bands (ev):

   -19.0472   0.1905   2.9098   2.9272

          k = 0.6000-0.4000 0.6000 (   451 PWs)   bands (ev):

   -18.8793  -0.4103   2.6760   2.9712

          k = 0.5000-0.3000 0.5000 (   450 PWs)   bands (ev):

   -18.9179  -0.2702   2.5916   3.1090

          k = 0.4000-0.2000 0.4000 (   449 PWs)   bands (ev):

   -19.1436   0.5248   2.6355   3.3000

          k = 0.3000-0.1000 0.3000 (   464 PWs)   bands (ev):

   -19.4535   1.5399   2.7674   3.3683

          k = 0.2000 0.0000 0.2000 (   461 PWs)   bands (ev):

   -19.7210   2.5399   3.1590   3.5121

          k = 0.0000 0.4000 0.0000 (   463 PWs)   bands (ev):

   -19.4885   2.0135   2.8350   2.8350

          k =-0.1000 0.5000-0.1000 (   451 PWs)   bands (ev):

   -19.2212   1.1834   2.5842   2.6472

          k =-0.2000 0.6000-0.2000 (   452 PWs)   bands (ev):

   -18.9278   0.2227   2.1918   2.5076

          k = 0.7000-0.3000 0.7000 (   449 PWs)   bands (ev):

   -18.7257  -0.3393   1.8176   2.5844

          k = 0.6000-0.2000 0.6000 (   453 PWs)   bands (ev):

   -18.7104  -0.2993   1.4632   2.7982

          k = 0.5000-0.1000 0.5000 (   448 PWs)   bands (ev):

   -18.8877   0.3663   1.4595   3.1142

          k = 0.4000 0.0000 0.4000 (   453 PWs)   bands (ev):

   -19.1748   1.0897   1.9068   3.3539

          k = 0.0000 0.6000 0.0000 (   444 PWs)   bands (ev):

   -18.9879   0.5360   2.3237   2.3237

          k =-0.1000 0.7000-0.1000 (   450 PWs)   bands (ev):

   -18.7217  -0.3187   1.9273   2.1228

          k = 0.8000-0.2000 0.8000 (   451 PWs)   bands (ev):

   -18.5273  -0.7522   1.4168   2.1396

          k = 0.7000-0.1000 0.7000 (   451 PWs)   bands (ev):

   -18.4934  -0.5465   0.8238   2.3936

          k = 0.6000-0.0000 0.6000 (   447 PWs)   bands (ev):

   -18.6358   0.2704   0.4794   2.7699

          k = 0.0000 0.8000 0.0000 (   452 PWs)   bands (ev):

   -18.5025  -1.0963   1.8578   1.8578

          k = 0.9000-0.1000 0.9000 (   454 PWs)   bands (ev):

   -18.3586  -1.4285   1.5315   1.8123

          k = 0.8000 0.0000 0.8000 (   458 PWs)   bands (ev):

   -18.3558  -1.2159   1.0803   1.9736

          k = 0.0000-1.0000 0.0000 (   460 PWs)   bands (ev):

   -18.2924  -1.7799   1.6682   1.6682

          k =-0.2000 0.4000 0.0000 (   457 PWs)   bands (ev):

   -19.4083   1.6879   2.5773   3.1845

          k =-0.3000 0.5000-0.1000 (   450 PWs)   bands (ev):

   -19.1078   0.7620   2.1740   3.0679

          k = 0.6000-0.4000 0.8000 (   445 PWs)   bands (ev):

   -18.8481  -0.0261   1.9400   2.9358

          k = 0.5000-0.3000 0.7000 (   452 PWs)   bands (ev):

   -18.7457  -0.3947   1.8233   2.8259

          k =-0.2000 0.6000 0.0000 (   451 PWs)   bands (ev):

   -18.9503   0.4466   1.9397   2.5510

          k = 0.7000-0.3000 0.9000 (   452 PWs)   bands (ev):

   -18.6940  -0.1993   1.3852   2.4680

          k = 0.6000-0.2000 0.8000 (   455 PWs)   bands (ev):

   -18.5617  -0.3988   0.9194   2.4592

          k = 0.5000-0.1000 0.7000 (   447 PWs)   bands (ev):

   -18.6150  -0.0567   0.7772   2.6969

          k = 0.4000 0.0000 0.6000 (   450 PWs)   bands (ev):

   -18.8297   0.4367   1.1290   2.9139

          k = 0.8000-0.2000 1.0000 (   453 PWs)   bands (ev):

   -18.5064  -0.8874   1.4471   2.0614

          k = 0.7000-0.1000 0.9000 (   450 PWs)   bands (ev):

   -18.3942  -0.9366   0.9112   2.1642

          k = 0.6000 0.0000 0.8000 (   451 PWs)   bands (ev):

   -18.4379  -0.4419   0.4256   2.3616

          k =-0.2000-1.0000 0.0000 (   456 PWs)   bands (ev):

   -18.3150  -1.4449   1.2570   1.8493

          k = 0.6000-0.2000 1.0000 (   450 PWs)   bands (ev):

   -18.4949  -0.3214   0.5393   2.4219

          k = 0.5000-0.1000 0.9000 (   454 PWs)   bands (ev):

   -18.4170  -0.2372   0.0669   2.3388

          k =-0.4000-1.0000 0.0000 (   454 PWs)   bands (ev):

   -18.3516  -0.7074   0.3250   2.2065

     highest occupied level (ev):     3.5385

!    total energy              =     -48.45824800 Ry
     estimated scf accuracy    <       0.00000950 Ry

     The total energy is the sum of the following terms:
     one-electron contribution =     -15.64005820 Ry
     hartree contribution      =      13.61884534 Ry
     xc contribution           =     -10.03882855 Ry
     ewald contribution        =     -36.39820659 Ry

     convergence has been achieved in   7 iterations
     Writing meta-gga kinetic term

     Writing all to output data dir ./input_pw/LiF/1/pwscf.save/
     Writing meta-gga kinetic term
 
     init_run     :      0.57s CPU      1.36s WALL (       1 calls)
     electrons    :      4.65s CPU      9.29s WALL (       1 calls)

     Called by init_run:
     wfcinit      :      0.49s CPU      1.22s WALL (       1 calls)
     potinit      :      0.01s CPU      0.01s WALL (       1 calls)
     hinit0       :      0.06s CPU      0.11s WALL (       1 calls)

     Called by electrons:
     c_bands      :      3.67s CPU      7.31s WALL (       7 calls)
     sum_band     :      0.88s CPU      1.79s WALL (       7 calls)
     v_of_rho     :      0.06s CPU      0.13s WALL (       8 calls)
     mix_rho      :      0.04s CPU      0.06s WALL (       7 calls)

     Called by c_bands:
     init_us_2    :      0.02s CPU      0.05s WALL (     705 calls)
     init_us_2:cp :      0.02s CPU      0.05s WALL (     705 calls)
     cegterg      :      3.65s CPU      7.26s WALL (     329 calls)

     Called by *egterg:
     cdiaghg      :      0.03s CPU      0.03s WALL (     736 calls)
     h_psi        :      4.05s CPU      8.32s WALL (     783 calls)
     g_psi        :      0.00s CPU      0.00s WALL (     407 calls)

     Called by h_psi:
     h_psi:calbec :      0.01s CPU      0.01s WALL (     783 calls)
     vloc_psi     :      1.00s CPU      1.98s WALL (     783 calls)
     add_vuspsi   :      0.01s CPU      0.01s WALL (     783 calls)
     h_psi_meta   :      3.02s CPU      6.30s WALL (     783 calls)

     General routines
     calbec       :      0.01s CPU      0.01s WALL (     783 calls)
     fft          :      0.01s CPU      0.02s WALL (      93 calls)
     ffts         :      0.02s CPU      0.05s WALL (     160 calls)
     fftw         :      4.40s CPU      9.03s WALL (   30856 calls)
     interpolate  :      0.00s CPU      0.00s WALL (       8 calls)
 
     Parallel routines
 
     PWSCF        :      5.27s CPU     10.75s WALL

 
   This run was terminated on:  14:23:56   7Jul2023            

=------------------------------------------------------------------------------=
   JOB DONE.
=------------------------------------------------------------------------------=
