
     Program PWSCF v.7.0 starts on 14Mar2023 at 11:48:16 

     This program is part of the open-source Quantum ESPRESSO suite
     for quantum simulation of materials; please cite
         "P. Giannozzi et al., J. Phys.:Condens. Matter 21 395502 (2009);
         "P. Giannozzi et al., J. Phys.:Condens. Matter 29 465901 (2017);
         "P. Giannozzi et al., J. Chem. Phys. 152 154105 (2020);
          URL http://www.quantum-espresso.org", 
     in publications or presentations arising from this work. More details at
     http://www.quantum-espresso.org/quote

     Parallel version (MPI), running on     1 processors

     MPI processes distributed on     1 nodes
     27165 MiB available memory on the printing compute node when the environment starts
 
     Waiting for input...
     Reading input from standard input
Warning: card &CELL ignored
Warning: card / ignored

     Current dimensions of program PWSCF are:
     Max number of different atomic species (ntypx) = 10
     Max number of k-points (npk) =  40000
     Max angular momentum in pseudopotentials (lmaxx) =  4

     WARNING: the MGGA functional with ID    5 has been 
     read together with other dft terms, but it should 
     stand alone in order to work properly. The other 
     terms will be ignored.

     Subspace diagonalization in iterative solution of the eigenvalue problem:
     a serial algorithm will be used

 
     G-vector sticks info
     --------------------
     sticks:   dense  smooth     PW     G-vecs:    dense   smooth      PW
     Sum         475     475    151                 6879     6879    1243
 
     Using Slab Decomposition
 


     bravais-lattice index     =            2
     lattice parameter (alat)  =       8.3710  a.u.
     unit-cell volume          =     146.6481 (a.u.)^3
     number of atoms/cell      =            2
     number of atomic types    =            1
     number of electrons       =         8.00
     number of Kohn-Sham states=            4
     kinetic-energy cutoff     =      50.0000  Ry
     charge density cutoff     =     200.0000  Ry
     scf convergence threshold =      1.0E-06
     mixing beta               =       0.0100
     number of iterations used =            8  local-TF  mixing
     Exchange-correlation= SLA  PW   SCAN SCAN
                           (   0   0   0   0   0 263 267)

     celldm(1)=   8.371029  celldm(2)=   0.000000  celldm(3)=   0.000000
     celldm(4)=   0.000000  celldm(5)=   0.000000  celldm(6)=   0.000000

     crystal axes: (cart. coord. in units of alat)
               a(1) = (  -0.500000   0.000000   0.500000 )  
               a(2) = (   0.000000   0.500000   0.500000 )  
               a(3) = (  -0.500000   0.500000   0.000000 )  

     reciprocal axes: (cart. coord. in units 2 pi/alat)
               b(1) = ( -1.000000 -1.000000  1.000000 )  
               b(2) = (  1.000000  1.000000  1.000000 )  
               b(3) = ( -1.000000  1.000000 -1.000000 )  


     PseudoPot. # 1 for C  read from file:
     ~/Documents/TA/PWDFT.jl/pseudopotentials/scan_upf/C.SCAN.UPF2
     MD5 check sum: Not computed, couldn't open file
     Pseudo is Norm-conserving, Zval =  4.0
     Generated by new atomic code, or converted to UPF format
     Using radial grid of 1389 points,  1 beta functions with: 
                l(1) =   0

     atomic species   valence    mass     pseudopotential
        C              4.00    12.01100     C ( 1.00)

     48 Sym. Ops., with inversion, found (24 have fractional translation)



   Cartesian axes

     site n.     atom                  positions (alat units)
         1           C   tau(   1) = (   0.0000000   0.0000000   0.0000000  )
         2           C   tau(   2) = (   0.2500000   0.2500000   0.2500000  )

     number of k points=    47
                       cart. coord. in units 2pi/alat
        k(    1) = (   0.0000000   0.0000000   0.0000000), wk =   0.0020000
        k(    2) = (  -0.1000000   0.1000000  -0.1000000), wk =   0.0160000
        k(    3) = (  -0.2000000   0.2000000  -0.2000000), wk =   0.0160000
        k(    4) = (  -0.3000000   0.3000000  -0.3000000), wk =   0.0160000
        k(    5) = (  -0.4000000   0.4000000  -0.4000000), wk =   0.0160000
        k(    6) = (   0.5000000  -0.5000000   0.5000000), wk =   0.0080000
        k(    7) = (   0.0000000   0.2000000   0.0000000), wk =   0.0120000
        k(    8) = (  -0.1000000   0.3000000  -0.1000000), wk =   0.0480000
        k(    9) = (  -0.2000000   0.4000000  -0.2000000), wk =   0.0480000
        k(   10) = (  -0.3000000   0.5000000  -0.3000000), wk =   0.0480000
        k(   11) = (   0.6000000  -0.4000000   0.6000000), wk =   0.0480000
        k(   12) = (   0.5000000  -0.3000000   0.5000000), wk =   0.0480000
        k(   13) = (   0.4000000  -0.2000000   0.4000000), wk =   0.0480000
        k(   14) = (   0.3000000  -0.1000000   0.3000000), wk =   0.0480000
        k(   15) = (   0.2000000   0.0000000   0.2000000), wk =   0.0240000
        k(   16) = (   0.0000000   0.4000000   0.0000000), wk =   0.0120000
        k(   17) = (  -0.1000000   0.5000000  -0.1000000), wk =   0.0480000
        k(   18) = (  -0.2000000   0.6000000  -0.2000000), wk =   0.0480000
        k(   19) = (   0.7000000  -0.3000000   0.7000000), wk =   0.0480000
        k(   20) = (   0.6000000  -0.2000000   0.6000000), wk =   0.0480000
        k(   21) = (   0.5000000  -0.1000000   0.5000000), wk =   0.0480000
        k(   22) = (   0.4000000   0.0000000   0.4000000), wk =   0.0240000
        k(   23) = (   0.0000000   0.6000000   0.0000000), wk =   0.0120000
        k(   24) = (  -0.1000000   0.7000000  -0.1000000), wk =   0.0480000
        k(   25) = (   0.8000000  -0.2000000   0.8000000), wk =   0.0480000
        k(   26) = (   0.7000000  -0.1000000   0.7000000), wk =   0.0480000
        k(   27) = (   0.6000000  -0.0000000   0.6000000), wk =   0.0240000
        k(   28) = (   0.0000000   0.8000000   0.0000000), wk =   0.0120000
        k(   29) = (   0.9000000  -0.1000000   0.9000000), wk =   0.0480000
        k(   30) = (   0.8000000   0.0000000   0.8000000), wk =   0.0240000
        k(   31) = (   0.0000000  -1.0000000   0.0000000), wk =   0.0060000
        k(   32) = (  -0.2000000   0.4000000   0.0000000), wk =   0.0480000
        k(   33) = (  -0.3000000   0.5000000  -0.1000000), wk =   0.0960000
        k(   34) = (   0.6000000  -0.4000000   0.8000000), wk =   0.0960000
        k(   35) = (   0.5000000  -0.3000000   0.7000000), wk =   0.0480000
        k(   36) = (  -0.2000000   0.6000000   0.0000000), wk =   0.0480000
        k(   37) = (   0.7000000  -0.3000000   0.9000000), wk =   0.0960000
        k(   38) = (   0.6000000  -0.2000000   0.8000000), wk =   0.0960000
        k(   39) = (   0.5000000  -0.1000000   0.7000000), wk =   0.0960000
        k(   40) = (   0.4000000   0.0000000   0.6000000), wk =   0.0480000
        k(   41) = (   0.8000000  -0.2000000   1.0000000), wk =   0.0480000
        k(   42) = (   0.7000000  -0.1000000   0.9000000), wk =   0.0960000
        k(   43) = (   0.6000000   0.0000000   0.8000000), wk =   0.0480000
        k(   44) = (  -0.2000000  -1.0000000   0.0000000), wk =   0.0240000
        k(   45) = (   0.6000000  -0.2000000   1.0000000), wk =   0.0480000
        k(   46) = (   0.5000000  -0.1000000   0.9000000), wk =   0.0480000
        k(   47) = (  -0.4000000  -1.0000000   0.0000000), wk =   0.0240000

     Dense  grid:     6879 G-vectors     FFT dimensions: (  32,  32,  32)

     Estimated max dynamical RAM per process >      14.15 MB

     WARNING: libxc functional with ID  263 depends
      on external parameters: check the user_guide of
      QE if you need to modify them or to check their
      default values.

     Initial potential from superposition of free atoms

     starting charge       7.9999, renormalised to       8.0000
     Starting wfcs are    8 randomized atomic wfcs

     total cpu time spent up to now is        1.8 secs

     Self-consistent Calculation

     iteration #  1     ecut=    50.00 Ry     beta= 0.01
     Davidson diagonalization with overlap
     ethr =  1.00E-02,  avg # of iterations =  1.8

     total cpu time spent up to now is        4.0 secs

     total energy              =     -22.36957109 Ry
     estimated scf accuracy    <       0.90689886 Ry

     iteration #  2     ecut=    50.00 Ry     beta= 0.01
     Davidson diagonalization with overlap
     ethr =  1.00E-02,  avg # of iterations =  1.0

     total cpu time spent up to now is        5.9 secs

     total energy              =     -22.29252281 Ry
     estimated scf accuracy    <       0.93151762 Ry

     iteration #  3     ecut=    50.00 Ry     beta= 0.01
     Davidson diagonalization with overlap
     ethr =  1.00E-02,  avg # of iterations =  1.0

     total cpu time spent up to now is        7.8 secs

     total energy              =     -22.39855853 Ry
     estimated scf accuracy    <       1.55312793 Ry

     iteration #  4     ecut=    50.00 Ry     beta= 0.01
     Davidson diagonalization with overlap
     ethr =  1.00E-02,  avg # of iterations =  1.0

     total cpu time spent up to now is        9.7 secs

     total energy              =     -22.40452272 Ry
     estimated scf accuracy    <       0.00444188 Ry

     iteration #  5     ecut=    50.00 Ry     beta= 0.01
     Davidson diagonalization with overlap
     ethr =  5.55E-05,  avg # of iterations =  1.4

     total cpu time spent up to now is       11.7 secs

     total energy              =     -22.40488949 Ry
     estimated scf accuracy    <       0.00327730 Ry

     iteration #  6     ecut=    50.00 Ry     beta= 0.01
     Davidson diagonalization with overlap
     ethr =  4.10E-05,  avg # of iterations =  1.0

     total cpu time spent up to now is       13.3 secs

     total energy              =     -22.40453498 Ry
     estimated scf accuracy    <       0.00393145 Ry

     iteration #  7     ecut=    50.00 Ry     beta= 0.01
     Davidson diagonalization with overlap
     ethr =  4.10E-05,  avg # of iterations =  1.0

     total cpu time spent up to now is       14.6 secs

     total energy              =     -22.40466430 Ry
     estimated scf accuracy    <       0.00013805 Ry

     iteration #  8     ecut=    50.00 Ry     beta= 0.01
     Davidson diagonalization with overlap
     ethr =  1.73E-06,  avg # of iterations =  2.1

     total cpu time spent up to now is       16.7 secs

     total energy              =     -22.40470139 Ry
     estimated scf accuracy    <       0.00018535 Ry

     iteration #  9     ecut=    50.00 Ry     beta= 0.01
     Davidson diagonalization with overlap
     ethr =  1.73E-06,  avg # of iterations =  1.0

     total cpu time spent up to now is       17.8 secs

     total energy              =     -22.40472094 Ry
     estimated scf accuracy    <       0.00016140 Ry

     iteration # 10     ecut=    50.00 Ry     beta= 0.01
     Davidson diagonalization with overlap
     ethr =  1.73E-06,  avg # of iterations =  1.0

     total cpu time spent up to now is       18.8 secs

     total energy              =     -22.40472460 Ry
     estimated scf accuracy    <       0.00000185 Ry

     iteration # 11     ecut=    50.00 Ry     beta= 0.01
     Davidson diagonalization with overlap
     ethr =  2.32E-08,  avg # of iterations =  3.0

     total cpu time spent up to now is       20.1 secs

     total energy              =     -22.40472506 Ry
     estimated scf accuracy    <       0.00000221 Ry

     iteration # 12     ecut=    50.00 Ry     beta= 0.01
     Davidson diagonalization with overlap
     ethr =  2.32E-08,  avg # of iterations =  1.0

     total cpu time spent up to now is       21.1 secs

     total energy              =     -22.40472528 Ry
     estimated scf accuracy    <       0.00000148 Ry

     iteration # 13     ecut=    50.00 Ry     beta= 0.01
     Davidson diagonalization with overlap
     ethr =  1.85E-08,  avg # of iterations =  1.0

     total cpu time spent up to now is       22.0 secs

     End of self-consistent calculation

          k = 0.0000 0.0000 0.0000 (   893 PWs)   bands (ev):

   -11.3617   4.1977   4.1977   4.1977

          k =-0.1000 0.1000-0.1000 (   887 PWs)   bands (ev):

   -11.1861   2.6895   3.9739   3.9739

          k =-0.2000 0.2000-0.2000 (   887 PWs)   bands (ev):

   -10.6697   0.4176   3.5004   3.5004

          k =-0.3000 0.3000-0.3000 (   887 PWs)   bands (ev):

    -9.8544  -1.7982   3.0429   3.0429

          k =-0.4000 0.4000-0.4000 (   869 PWs)   bands (ev):

    -8.8827  -3.6548   2.7403   2.7403

          k = 0.5000-0.5000 0.5000 (   862 PWs)   bands (ev):

    -8.3167  -4.5212   2.6318   2.6318

          k = 0.0000 0.2000 0.0000 (   889 PWs)   bands (ev):

   -11.1272   2.7225   3.6081   3.6081

          k =-0.1000 0.3000-0.1000 (   889 PWs)   bands (ev):

   -10.7231   0.9841   3.0851   3.2164

          k =-0.2000 0.4000-0.2000 (   876 PWs)   bands (ev):

   -10.0011  -1.1324   2.6495   2.6878

          k =-0.3000 0.5000-0.3000 (   872 PWs)   bands (ev):

    -9.0534  -3.0820   2.1835   2.4087

          k = 0.6000-0.4000 0.6000 (   871 PWs)   bands (ev):

    -8.2418  -4.3685   1.8359   2.3922

          k = 0.5000-0.3000 0.5000 (   872 PWs)   bands (ev):

    -8.4499  -4.0619   1.7122   2.6044

          k = 0.4000-0.2000 0.4000 (   879 PWs)   bands (ev):

    -9.3857  -2.4669   1.8446   3.0012

          k = 0.3000-0.1000 0.3000 (   883 PWs)   bands (ev):

   -10.2759  -0.4436   2.2569   3.4978

          k = 0.2000 0.0000 0.2000 (   895 PWs)   bands (ev):

   -10.8965   1.4969   3.0203   3.9127

          k = 0.0000 0.4000 0.0000 (   869 PWs)   bands (ev):

   -10.4321   0.5610   2.5343   2.5343

          k =-0.1000 0.5000-0.1000 (   870 PWs)   bands (ev):

    -9.8142  -0.9155   1.9372   2.0791

          k =-0.2000 0.6000-0.2000 (   886 PWs)   bands (ev):

    -8.9289  -2.6360   1.2074   1.8357

          k = 0.7000-0.3000 0.7000 (   875 PWs)   bands (ev):

    -7.9952  -4.0690   0.5996   1.8484

          k = 0.6000-0.2000 0.6000 (   857 PWs)   bands (ev):

    -7.8080  -4.3132   0.2647   2.1097

          k = 0.5000-0.1000 0.5000 (   876 PWs)   bands (ev):

    -8.6339  -3.1231   0.3030   2.5600

          k = 0.4000 0.0000 0.4000 (   871 PWs)   bands (ev):

    -9.5685  -1.6095   0.9181   3.0972

          k = 0.0000 0.6000 0.0000 (   866 PWs)   bands (ev):

    -9.3008  -1.6712   1.5888   1.5888

          k =-0.1000 0.7000-0.1000 (   873 PWs)   bands (ev):

    -8.4985  -2.9174   0.9386   1.3076

          k = 0.8000-0.2000 0.8000 (   879 PWs)   bands (ev):

    -7.5363  -4.1562   0.0535   1.2902

          k = 0.7000-0.1000 0.7000 (   879 PWs)   bands (ev):

    -7.0264  -4.7195  -0.5720   1.5354

          k = 0.6000-0.0000 0.6000 (   877 PWs)   bands (ev):

    -7.7030  -3.9825  -0.5839   1.9969

          k = 0.0000 0.8000 0.0000 (   886 PWs)   bands (ev):

    -7.7803  -3.8686   0.9719   0.9719

          k = 0.9000-0.1000 0.9000 (   873 PWs)   bands (ev):

    -6.8433  -4.9308   0.4199   0.8999

          k = 0.8000 0.0000 0.8000 (   870 PWs)   bands (ev):

    -6.2725  -5.4449  -0.3636   1.0997

          k = 0.0000-1.0000 0.0000 (   846 PWs)   bands (ev):

    -5.9365  -5.9365   0.7667   0.7667

          k =-0.2000 0.4000 0.0000 (   877 PWs)   bands (ev):

   -10.2129  -0.2469   1.9545   3.0196

          k =-0.3000 0.5000-0.1000 (   871 PWs)   bands (ev):

    -9.4060  -1.9507   1.2058   2.5885

          k = 0.6000-0.4000 0.8000 (   877 PWs)   bands (ev):

    -8.4402  -3.6068   0.8543   2.1856

          k = 0.5000-0.3000 0.7000 (   868 PWs)   bands (ev):

    -7.8674  -4.4277   0.7569   2.0253

          k =-0.2000 0.6000 0.0000 (   872 PWs)   bands (ev):

    -9.1060  -2.0826   1.0454   1.7934

          k = 0.7000-0.3000 0.9000 (   875 PWs)   bands (ev):

    -8.1719  -3.4355   0.3297   1.4370

          k = 0.6000-0.2000 0.8000 (   870 PWs)   bands (ev):

    -7.3569  -4.4672  -0.1566   1.3677

          k = 0.5000-0.1000 0.7000 (   871 PWs)   bands (ev):

    -7.6093  -4.1544  -0.3066   1.6348

          k = 0.4000 0.0000 0.6000 (   882 PWs)   bands (ev):

    -8.5459  -2.9901   0.0881   2.1188

          k = 0.8000-0.2000 1.0000 (   872 PWs)   bands (ev):

    -7.6325  -3.9867   0.5124   0.8738

          k = 0.7000-0.1000 0.9000 (   874 PWs)   bands (ev):

    -6.7009  -4.9614  -0.2034   0.7775

          k = 0.6000 0.0000 0.8000 (   875 PWs)   bands (ev):

    -6.7294  -4.9061  -0.6576   1.0904

          k =-0.2000-1.0000 0.0000 (   874 PWs)   bands (ev):

    -5.8829  -5.8829   0.4417   0.4417

          k = 0.6000-0.2000 1.0000 (   878 PWs)   bands (ev):

    -7.2367  -4.3598  -0.2686   0.8578

          k = 0.5000-0.1000 0.9000 (   880 PWs)   bands (ev):

    -6.6003  -4.9964  -0.4406   0.5806

          k =-0.4000-1.0000 0.0000 (   880 PWs)   bands (ev):

    -5.7887  -5.7887  -0.0215  -0.0215

     highest occupied level (ev):     4.1977

!    total energy              =     -22.40472537 Ry
     estimated scf accuracy    <       0.00000011 Ry

     The total energy is the sum of the following terms:
     one-electron contribution =       1.64992894 Ry
     hartree contribution      =       2.72517649 Ry
     xc contribution           =      -6.18767448 Ry
     ewald contribution        =     -20.59215632 Ry

     convergence has been achieved in  13 iterations
     Writing meta-gga kinetic term

     Writing all to output data dir ./input_pw/C/13/pwscf.save/
     Writing meta-gga kinetic term
 
     init_run     :      0.78s CPU      1.78s WALL (       1 calls)
     electrons    :     13.26s CPU     20.21s WALL (       1 calls)

     Called by init_run:
     wfcinit      :      0.72s CPU      1.63s WALL (       1 calls)
     potinit      :      0.02s CPU      0.07s WALL (       1 calls)
     hinit0       :      0.03s CPU      0.05s WALL (       1 calls)

     Called by electrons:
     c_bands      :     10.38s CPU     15.80s WALL (      13 calls)
     sum_band     :      2.54s CPU      3.89s WALL (      13 calls)
     v_of_rho     :      0.25s CPU      0.42s WALL (      14 calls)
     mix_rho      :      0.10s CPU      0.17s WALL (      13 calls)

     Called by c_bands:
     init_us_2    :      0.04s CPU      0.05s WALL (    1269 calls)
     init_us_2:cp :      0.04s CPU      0.05s WALL (    1269 calls)
     cegterg      :     10.34s CPU     15.70s WALL (     611 calls)

     Called by *egterg:
     cdiaghg      :      0.06s CPU      0.10s WALL (    1425 calls)
     h_psi        :     10.81s CPU     16.91s WALL (    1472 calls)
     g_psi        :      0.01s CPU      0.02s WALL (     814 calls)

     Called by h_psi:
     h_psi:calbec :      0.02s CPU      0.04s WALL (    1472 calls)
     vloc_psi     :      2.67s CPU      3.89s WALL (    1472 calls)
     add_vuspsi   :      0.03s CPU      0.04s WALL (    1472 calls)
     h_psi_meta   :      8.07s CPU     12.91s WALL (    1472 calls)

     General routines
     calbec       :      0.02s CPU      0.03s WALL (    1472 calls)
     fft          :      0.03s CPU      0.05s WALL (     165 calls)
     ffts         :      0.05s CPU      0.10s WALL (     248 calls)
     fftw         :     11.25s CPU     17.55s WALL (   55736 calls)
     interpolate  :      0.00s CPU      0.00s WALL (      14 calls)
 
     Parallel routines
 
     PWSCF        :     14.07s CPU     22.06s WALL

 
   This run was terminated on:  11:48:38  14Mar2023            

=------------------------------------------------------------------------------=
   JOB DONE.
=------------------------------------------------------------------------------=
