
     Program PWSCF v.7.0 starts on  7Jul2023 at 14:25:23 

     This program is part of the open-source Quantum ESPRESSO suite
     for quantum simulation of materials; please cite
         "P. Giannozzi et al., J. Phys.:Condens. Matter 21 395502 (2009);
         "P. Giannozzi et al., J. Phys.:Condens. Matter 29 465901 (2017);
         "P. Giannozzi et al., J. Chem. Phys. 152 154105 (2020);
          URL http://www.quantum-espresso.org", 
     in publications or presentations arising from this work. More details at
     http://www.quantum-espresso.org/quote

     Parallel version (MPI), running on     1 processors

     MPI processes distributed on     1 nodes
     27028 MiB available memory on the printing compute node when the environment starts
 
     Waiting for input...
     Reading input from standard input
Warning: card &CELL ignored
Warning: card / ignored

     Current dimensions of program PWSCF are:
     Max number of different atomic species (ntypx) = 10
     Max number of k-points (npk) =  40000
     Max angular momentum in pseudopotentials (lmaxx) =  4

     WARNING: the MGGA functional with ID    5 has been 
     read together with other dft terms, but it should 
     stand alone in order to work properly. The other 
     terms will be ignored.

     Subspace diagonalization in iterative solution of the eigenvalue problem:
     a serial algorithm will be used

 
     G-vector sticks info
     --------------------
     sticks:   dense  smooth     PW     G-vecs:    dense   smooth      PW
     Sum         463     463    151                 6615     6615    1243
 
     Using Slab Decomposition
 


     bravais-lattice index     =            2
     lattice parameter (alat)  =       8.1941  a.u.
     unit-cell volume          =     137.5436 (a.u.)^3
     number of atoms/cell      =            2
     number of atomic types    =            1
     number of electrons       =         8.00
     number of Kohn-Sham states=            4
     kinetic-energy cutoff     =      50.0000  Ry
     charge density cutoff     =     200.0000  Ry
     scf convergence threshold =      2.0E-05
     mixing beta               =       0.2000
     number of iterations used =            8  local-TF  mixing
     Exchange-correlation= SLA  PW   SCAN SCAN
                           (   0   0   0   0   0 263 267)

     celldm(1)=   8.194079  celldm(2)=   0.000000  celldm(3)=   0.000000
     celldm(4)=   0.000000  celldm(5)=   0.000000  celldm(6)=   0.000000

     crystal axes: (cart. coord. in units of alat)
               a(1) = (  -0.500000   0.000000   0.500000 )  
               a(2) = (   0.000000   0.500000   0.500000 )  
               a(3) = (  -0.500000   0.500000   0.000000 )  

     reciprocal axes: (cart. coord. in units 2 pi/alat)
               b(1) = ( -1.000000 -1.000000  1.000000 )  
               b(2) = (  1.000000  1.000000  1.000000 )  
               b(3) = ( -1.000000  1.000000 -1.000000 )  


     PseudoPot. # 1 for C  read from file:
     ~/Documents/TA/PWDFT.jl/pseudopotentials/scan_upf/C.SCAN.UPF2
     MD5 check sum: Not computed, couldn't open file
     Pseudo is Norm-conserving, Zval =  4.0
     Generated by new atomic code, or converted to UPF format
     Using radial grid of 1389 points,  1 beta functions with: 
                l(1) =   0

     atomic species   valence    mass     pseudopotential
        C              4.00    12.01100     C ( 1.00)

     48 Sym. Ops., with inversion, found (24 have fractional translation)



   Cartesian axes

     site n.     atom                  positions (alat units)
         1           C   tau(   1) = (   0.0000000   0.0000000   0.0000000  )
         2           C   tau(   2) = (   0.2500000   0.2500000   0.2500000  )

     number of k points=    47
                       cart. coord. in units 2pi/alat
        k(    1) = (   0.0000000   0.0000000   0.0000000), wk =   0.0020000
        k(    2) = (  -0.1000000   0.1000000  -0.1000000), wk =   0.0160000
        k(    3) = (  -0.2000000   0.2000000  -0.2000000), wk =   0.0160000
        k(    4) = (  -0.3000000   0.3000000  -0.3000000), wk =   0.0160000
        k(    5) = (  -0.4000000   0.4000000  -0.4000000), wk =   0.0160000
        k(    6) = (   0.5000000  -0.5000000   0.5000000), wk =   0.0080000
        k(    7) = (   0.0000000   0.2000000   0.0000000), wk =   0.0120000
        k(    8) = (  -0.1000000   0.3000000  -0.1000000), wk =   0.0480000
        k(    9) = (  -0.2000000   0.4000000  -0.2000000), wk =   0.0480000
        k(   10) = (  -0.3000000   0.5000000  -0.3000000), wk =   0.0480000
        k(   11) = (   0.6000000  -0.4000000   0.6000000), wk =   0.0480000
        k(   12) = (   0.5000000  -0.3000000   0.5000000), wk =   0.0480000
        k(   13) = (   0.4000000  -0.2000000   0.4000000), wk =   0.0480000
        k(   14) = (   0.3000000  -0.1000000   0.3000000), wk =   0.0480000
        k(   15) = (   0.2000000   0.0000000   0.2000000), wk =   0.0240000
        k(   16) = (   0.0000000   0.4000000   0.0000000), wk =   0.0120000
        k(   17) = (  -0.1000000   0.5000000  -0.1000000), wk =   0.0480000
        k(   18) = (  -0.2000000   0.6000000  -0.2000000), wk =   0.0480000
        k(   19) = (   0.7000000  -0.3000000   0.7000000), wk =   0.0480000
        k(   20) = (   0.6000000  -0.2000000   0.6000000), wk =   0.0480000
        k(   21) = (   0.5000000  -0.1000000   0.5000000), wk =   0.0480000
        k(   22) = (   0.4000000   0.0000000   0.4000000), wk =   0.0240000
        k(   23) = (   0.0000000   0.6000000   0.0000000), wk =   0.0120000
        k(   24) = (  -0.1000000   0.7000000  -0.1000000), wk =   0.0480000
        k(   25) = (   0.8000000  -0.2000000   0.8000000), wk =   0.0480000
        k(   26) = (   0.7000000  -0.1000000   0.7000000), wk =   0.0480000
        k(   27) = (   0.6000000  -0.0000000   0.6000000), wk =   0.0240000
        k(   28) = (   0.0000000   0.8000000   0.0000000), wk =   0.0120000
        k(   29) = (   0.9000000  -0.1000000   0.9000000), wk =   0.0480000
        k(   30) = (   0.8000000   0.0000000   0.8000000), wk =   0.0240000
        k(   31) = (   0.0000000  -1.0000000   0.0000000), wk =   0.0060000
        k(   32) = (  -0.2000000   0.4000000   0.0000000), wk =   0.0480000
        k(   33) = (  -0.3000000   0.5000000  -0.1000000), wk =   0.0960000
        k(   34) = (   0.6000000  -0.4000000   0.8000000), wk =   0.0960000
        k(   35) = (   0.5000000  -0.3000000   0.7000000), wk =   0.0480000
        k(   36) = (  -0.2000000   0.6000000   0.0000000), wk =   0.0480000
        k(   37) = (   0.7000000  -0.3000000   0.9000000), wk =   0.0960000
        k(   38) = (   0.6000000  -0.2000000   0.8000000), wk =   0.0960000
        k(   39) = (   0.5000000  -0.1000000   0.7000000), wk =   0.0960000
        k(   40) = (   0.4000000   0.0000000   0.6000000), wk =   0.0480000
        k(   41) = (   0.8000000  -0.2000000   1.0000000), wk =   0.0480000
        k(   42) = (   0.7000000  -0.1000000   0.9000000), wk =   0.0960000
        k(   43) = (   0.6000000   0.0000000   0.8000000), wk =   0.0480000
        k(   44) = (  -0.2000000  -1.0000000   0.0000000), wk =   0.0240000
        k(   45) = (   0.6000000  -0.2000000   1.0000000), wk =   0.0480000
        k(   46) = (   0.5000000  -0.1000000   0.9000000), wk =   0.0480000
        k(   47) = (  -0.4000000  -1.0000000   0.0000000), wk =   0.0240000

     Dense  grid:     6615 G-vectors     FFT dimensions: (  32,  32,  32)

     Estimated max dynamical RAM per process >      13.69 MB

     WARNING: libxc functional with ID  263 depends
      on external parameters: check the user_guide of
      QE if you need to modify them or to check their
      default values.

     Initial potential from superposition of free atoms

     starting charge       7.9999, renormalised to       8.0000
     Starting wfcs are    8 randomized atomic wfcs

     total cpu time spent up to now is        1.6 secs

     Self-consistent Calculation

     iteration #  1     ecut=    50.00 Ry     beta= 0.20
     Davidson diagonalization with overlap
     ethr =  1.00E-02,  avg # of iterations =  1.9

     total cpu time spent up to now is        3.8 secs

     total energy              =     -22.39488437 Ry
     estimated scf accuracy    <       0.98441884 Ry

     iteration #  2     ecut=    50.00 Ry     beta= 0.20
     Davidson diagonalization with overlap
     ethr =  1.00E-02,  avg # of iterations =  1.0

     total cpu time spent up to now is        5.8 secs

     total energy              =     -22.45212854 Ry
     estimated scf accuracy    <       0.66364049 Ry

     iteration #  3     ecut=    50.00 Ry     beta= 0.20
     Davidson diagonalization with overlap
     ethr =  8.30E-03,  avg # of iterations =  1.0

     total cpu time spent up to now is        7.7 secs

     total energy              =     -22.45382195 Ry
     estimated scf accuracy    <       0.00554129 Ry

     iteration #  4     ecut=    50.00 Ry     beta= 0.20
     Davidson diagonalization with overlap
     ethr =  6.93E-05,  avg # of iterations =  1.0

     total cpu time spent up to now is        9.3 secs

     total energy              =     -22.45372431 Ry
     estimated scf accuracy    <       0.00224645 Ry

     iteration #  5     ecut=    50.00 Ry     beta= 0.20
     Davidson diagonalization with overlap
     ethr =  2.81E-05,  avg # of iterations =  1.3

     total cpu time spent up to now is       10.8 secs

     total energy              =     -22.45387791 Ry
     estimated scf accuracy    <       0.00017044 Ry

     iteration #  6     ecut=    50.00 Ry     beta= 0.20
     Davidson diagonalization with overlap
     ethr =  2.13E-06,  avg # of iterations =  2.3

     total cpu time spent up to now is       12.1 secs

     total energy              =     -22.45391732 Ry
     estimated scf accuracy    <       0.00002094 Ry

     iteration #  7     ecut=    50.00 Ry     beta= 0.20
     Davidson diagonalization with overlap
     ethr =  2.62E-07,  avg # of iterations =  2.6

     total cpu time spent up to now is       12.8 secs

     End of self-consistent calculation

          k = 0.0000 0.0000 0.0000 (   869 PWs)   bands (ev):

   -11.2028   4.8677   4.8677   4.8677

          k =-0.1000 0.1000-0.1000 (   845 PWs)   bands (ev):

   -11.0175   3.4447   4.6372   4.6372

          k =-0.2000 0.2000-0.2000 (   827 PWs)   bands (ev):

   -10.4711   1.0876   4.1332   4.1332

          k =-0.3000 0.3000-0.3000 (   827 PWs)   bands (ev):

    -9.6046  -1.2507   3.6475   3.6475

          k =-0.4000 0.4000-0.4000 (   820 PWs)   bands (ev):

    -8.5613  -3.2251   3.3209   3.3209

          k = 0.5000-0.5000 0.5000 (   832 PWs)   bands (ev):

    -7.9388  -4.1688   3.2082   3.2082

          k = 0.0000 0.2000 0.0000 (   833 PWs)   bands (ev):

   -10.9552   3.5622   4.2387   4.2387

          k =-0.1000 0.3000-0.1000 (   830 PWs)   bands (ev):

   -10.5278   1.7233   3.6813   3.8582

          k =-0.2000 0.4000-0.2000 (   822 PWs)   bands (ev):

    -9.7623  -0.5211   3.2167   3.3104

          k =-0.3000 0.5000-0.3000 (   823 PWs)   bands (ev):

    -8.7497  -2.5935   2.7715   2.9568

          k = 0.6000-0.4000 0.6000 (   821 PWs)   bands (ev):

    -7.8648  -3.9826   2.4032   2.9489

          k = 0.5000-0.3000 0.5000 (   822 PWs)   bands (ev):

    -8.0943  -3.6485   2.2672   3.1759

          k = 0.4000-0.2000 0.4000 (   820 PWs)   bands (ev):

    -9.1059  -1.9369   2.3962   3.6034

          k = 0.3000-0.1000 0.3000 (   830 PWs)   bands (ev):

   -10.0540   0.2106   2.8139   4.1379

          k = 0.2000 0.0000 0.2000 (   835 PWs)   bands (ev):

   -10.7112   2.2534   3.6076   4.5846

          k = 0.0000 0.4000 0.0000 (   833 PWs)   bands (ev):

   -10.2208   1.3585   3.0881   3.0881

          k =-0.1000 0.5000-0.1000 (   830 PWs)   bands (ev):

    -9.5670  -0.2112   2.4734   2.6047

          k =-0.2000 0.6000-0.2000 (   816 PWs)   bands (ev):

    -8.6243  -2.0487   1.7232   2.3517

          k = 0.7000-0.3000 0.7000 (   816 PWs)   bands (ev):

    -7.6166  -3.5955   1.0840   2.3657

          k = 0.6000-0.2000 0.6000 (   827 PWs)   bands (ev):

    -7.4094  -3.8665   0.7168   2.6383

          k = 0.5000-0.1000 0.5000 (   819 PWs)   bands (ev):

    -8.3054  -2.5739   0.7383   3.1270

          k = 0.4000 0.0000 0.4000 (   831 PWs)   bands (ev):

    -9.3037  -0.9676   1.3687   3.7025

          k = 0.0000 0.6000 0.0000 (   829 PWs)   bands (ev):

    -9.0255  -0.9663   2.0804   2.0804

          k =-0.1000 0.7000-0.1000 (   821 PWs)   bands (ev):

    -8.1746  -2.2796   1.3902   1.7851

          k = 0.8000-0.2000 0.8000 (   814 PWs)   bands (ev):

    -7.1441  -3.5993   0.4503   1.7695

          k = 0.7000-0.1000 0.7000 (   821 PWs)   bands (ev):

    -6.5828  -4.2144  -0.2226   2.0300

          k = 0.6000-0.0000 0.6000 (   812 PWs)   bands (ev):

    -7.3100  -3.4325  -0.2392   2.5238

          k = 0.0000 0.8000 0.0000 (   806 PWs)   bands (ev):

    -7.4150  -3.2762   1.4312   1.4312

          k = 0.9000-0.1000 0.9000 (   813 PWs)   bands (ev):

    -6.4200  -4.3979   0.8325   1.3520

          k = 0.8000 0.0000 0.8000 (   810 PWs)   bands (ev):

    -5.7920  -4.9528  -0.0168   1.5657

          k = 0.0000-1.0000 0.0000 (   806 PWs)   bands (ev):

    -5.4655  -5.4655   1.2075   1.2075

          k =-0.2000 0.4000 0.0000 (   833 PWs)   bands (ev):

    -9.9880   0.4647   2.4726   3.6307

          k =-0.3000 0.5000-0.1000 (   824 PWs)   bands (ev):

    -9.1312  -1.3403   1.6998   3.1641

          k = 0.6000-0.4000 0.8000 (   817 PWs)   bands (ev):

    -8.0945  -3.1158   1.3544   2.7290

          k = 0.5000-0.3000 0.7000 (   824 PWs)   bands (ev):

    -7.4674  -4.0123   1.2600   2.5557

          k =-0.2000 0.6000 0.0000 (   826 PWs)   bands (ev):

    -8.8166  -1.4170   1.5056   2.3085

          k = 0.7000-0.3000 0.9000 (   822 PWs)   bands (ev):

    -7.8200  -2.8520   0.7545   1.9214

          k = 0.6000-0.2000 0.8000 (   817 PWs)   bands (ev):

    -6.9358  -3.9704   0.2464   1.8461

          k = 0.5000-0.1000 0.7000 (   819 PWs)   bands (ev):

    -7.2084  -3.6310   0.0753   2.1340

          k = 0.4000 0.0000 0.6000 (   818 PWs)   bands (ev):

    -8.2152  -2.3889   0.4861   2.6589

          k = 0.8000-0.2000 1.0000 (   815 PWs)   bands (ev):

    -7.2545  -3.4003   0.9355   1.3156

          k = 0.7000-0.1000 0.9000 (   814 PWs)   bands (ev):

    -6.2547  -4.4305   0.1616   1.2136

          k = 0.6000 0.0000 0.8000 (   818 PWs)   bands (ev):

    -6.2707  -4.3843  -0.3291   1.5497

          k =-0.2000-1.0000 0.0000 (   804 PWs)   bands (ev):

    -5.4000  -5.4000   0.8572   0.8572

          k = 0.6000-0.2000 1.0000 (   828 PWs)   bands (ev):

    -6.8214  -3.7987   0.0936   1.2942

          k = 0.5000-0.1000 0.9000 (   812 PWs)   bands (ev):

    -6.1359  -4.4718  -0.0893   0.9997

          k =-0.4000-1.0000 0.0000 (   812 PWs)   bands (ev):

    -5.2877  -5.2877   0.3524   0.3524

     highest occupied level (ev):     4.8677

!    total energy              =     -22.45392272 Ry
     estimated scf accuracy    <       0.00000589 Ry

     The total energy is the sum of the following terms:
     one-electron contribution =       2.21067100 Ry
     hartree contribution      =       2.63006258 Ry
     xc contribution           =      -6.25781584 Ry
     ewald contribution        =     -21.03684045 Ry

     convergence has been achieved in   7 iterations
     Writing meta-gga kinetic term

     Writing all to output data dir ./input_pw/C/13/pwscf.save/
     Writing meta-gga kinetic term
 
     init_run     :      0.77s CPU      1.55s WALL (       1 calls)
     electrons    :      6.73s CPU     11.23s WALL (       1 calls)

     Called by init_run:
     wfcinit      :      0.72s CPU      1.45s WALL (       1 calls)
     potinit      :      0.02s CPU      0.05s WALL (       1 calls)
     hinit0       :      0.03s CPU      0.04s WALL (       1 calls)

     Called by electrons:
     c_bands      :      5.36s CPU      8.89s WALL (       7 calls)
     sum_band     :      1.20s CPU      2.04s WALL (       7 calls)
     v_of_rho     :      0.15s CPU      0.24s WALL (       8 calls)
     mix_rho      :      0.05s CPU      0.07s WALL (       7 calls)

     Called by c_bands:
     init_us_2    :      0.02s CPU      0.04s WALL (     705 calls)
     init_us_2:cp :      0.02s CPU      0.04s WALL (     705 calls)
     cegterg      :      5.33s CPU      8.86s WALL (     329 calls)

     Called by *egterg:
     cdiaghg      :      0.03s CPU      0.05s WALL (     850 calls)
     h_psi        :      5.91s CPU     10.08s WALL (     897 calls)
     g_psi        :      0.00s CPU      0.01s WALL (     521 calls)

     Called by h_psi:
     h_psi:calbec :      0.01s CPU      0.01s WALL (     897 calls)
     vloc_psi     :      1.46s CPU      2.48s WALL (     897 calls)
     add_vuspsi   :      0.02s CPU      0.03s WALL (     897 calls)
     h_psi_meta   :      4.41s CPU      7.54s WALL (     897 calls)

     General routines
     calbec       :      0.01s CPU      0.01s WALL (     897 calls)
     fft          :      0.02s CPU      0.03s WALL (      93 calls)
     ffts         :      0.02s CPU      0.04s WALL (     126 calls)
     fftw         :      6.02s CPU     10.22s WALL (   32568 calls)
     interpolate  :      0.00s CPU      0.00s WALL (       8 calls)
 
     Parallel routines
 
     PWSCF        :      7.54s CPU     12.81s WALL

 
   This run was terminated on:  14:25:36   7Jul2023            

=------------------------------------------------------------------------------=
   JOB DONE.
=------------------------------------------------------------------------------=
