
     Program PWSCF v.7.0 starts on 29Mar2023 at 12:34:19 

     This program is part of the open-source Quantum ESPRESSO suite
     for quantum simulation of materials; please cite
         "P. Giannozzi et al., J. Phys.:Condens. Matter 21 395502 (2009);
         "P. Giannozzi et al., J. Phys.:Condens. Matter 29 465901 (2017);
         "P. Giannozzi et al., J. Chem. Phys. 152 154105 (2020);
          URL http://www.quantum-espresso.org", 
     in publications or presentations arising from this work. More details at
     http://www.quantum-espresso.org/quote

     Parallel version (MPI), running on     1 processors

     MPI processes distributed on     1 nodes
     23071 MiB available memory on the printing compute node when the environment starts
 
     Waiting for input...
     Reading input from standard input
Warning: card &CELL ignored
Warning: card / ignored

     Current dimensions of program PWSCF are:
     Max number of different atomic species (ntypx) = 10
     Max number of k-points (npk) =  40000
     Max angular momentum in pseudopotentials (lmaxx) =  4

     WARNING: the MGGA functional with ID    5 has been 
     read together with other dft terms, but it should 
     stand alone in order to work properly. The other 
     terms will be ignored.

     Subspace diagonalization in iterative solution of the eigenvalue problem:
     a serial algorithm will be used

 
     G-vector sticks info
     --------------------
     sticks:   dense  smooth     PW     G-vecs:    dense   smooth      PW
     Sum         463     463    151                 6615     6615    1243
 
     Using Slab Decomposition
 


     bravais-lattice index     =            2
     lattice parameter (alat)  =       8.1941  a.u.
     unit-cell volume          =     137.5436 (a.u.)^3
     number of atoms/cell      =            2
     number of atomic types    =            1
     number of electrons       =         8.00
     number of Kohn-Sham states=            4
     kinetic-energy cutoff     =      50.0000  Ry
     charge density cutoff     =     200.0000  Ry
     scf convergence threshold =      1.0E-06
     mixing beta               =       0.0100
     number of iterations used =            8  local-TF  mixing
     Exchange-correlation= SLA  PW   SCAN SCAN
                           (   0   0   0   0   0 263 267)

     celldm(1)=   8.194079  celldm(2)=   0.000000  celldm(3)=   0.000000
     celldm(4)=   0.000000  celldm(5)=   0.000000  celldm(6)=   0.000000

     crystal axes: (cart. coord. in units of alat)
               a(1) = (  -0.500000   0.000000   0.500000 )  
               a(2) = (   0.000000   0.500000   0.500000 )  
               a(3) = (  -0.500000   0.500000   0.000000 )  

     reciprocal axes: (cart. coord. in units 2 pi/alat)
               b(1) = ( -1.000000 -1.000000  1.000000 )  
               b(2) = (  1.000000  1.000000  1.000000 )  
               b(3) = ( -1.000000  1.000000 -1.000000 )  


     PseudoPot. # 1 for C  read from file:
     ~/Documents/TA/PWDFT.jl/pseudopotentials/scan_upf/C.SCAN.UPF2
     MD5 check sum: Not computed, couldn't open file
     Pseudo is Norm-conserving, Zval =  4.0
     Generated by new atomic code, or converted to UPF format
     Using radial grid of 1389 points,  1 beta functions with: 
                l(1) =   0

     atomic species   valence    mass     pseudopotential
        C              4.00    12.01100     C ( 1.00)

     48 Sym. Ops., with inversion, found (24 have fractional translation)



   Cartesian axes

     site n.     atom                  positions (alat units)
         1           C   tau(   1) = (   0.0000000   0.0000000   0.0000000  )
         2           C   tau(   2) = (   0.2500000   0.2500000   0.2500000  )

     number of k points=    47
                       cart. coord. in units 2pi/alat
        k(    1) = (   0.0000000   0.0000000   0.0000000), wk =   0.0020000
        k(    2) = (  -0.1000000   0.1000000  -0.1000000), wk =   0.0160000
        k(    3) = (  -0.2000000   0.2000000  -0.2000000), wk =   0.0160000
        k(    4) = (  -0.3000000   0.3000000  -0.3000000), wk =   0.0160000
        k(    5) = (  -0.4000000   0.4000000  -0.4000000), wk =   0.0160000
        k(    6) = (   0.5000000  -0.5000000   0.5000000), wk =   0.0080000
        k(    7) = (   0.0000000   0.2000000   0.0000000), wk =   0.0120000
        k(    8) = (  -0.1000000   0.3000000  -0.1000000), wk =   0.0480000
        k(    9) = (  -0.2000000   0.4000000  -0.2000000), wk =   0.0480000
        k(   10) = (  -0.3000000   0.5000000  -0.3000000), wk =   0.0480000
        k(   11) = (   0.6000000  -0.4000000   0.6000000), wk =   0.0480000
        k(   12) = (   0.5000000  -0.3000000   0.5000000), wk =   0.0480000
        k(   13) = (   0.4000000  -0.2000000   0.4000000), wk =   0.0480000
        k(   14) = (   0.3000000  -0.1000000   0.3000000), wk =   0.0480000
        k(   15) = (   0.2000000   0.0000000   0.2000000), wk =   0.0240000
        k(   16) = (   0.0000000   0.4000000   0.0000000), wk =   0.0120000
        k(   17) = (  -0.1000000   0.5000000  -0.1000000), wk =   0.0480000
        k(   18) = (  -0.2000000   0.6000000  -0.2000000), wk =   0.0480000
        k(   19) = (   0.7000000  -0.3000000   0.7000000), wk =   0.0480000
        k(   20) = (   0.6000000  -0.2000000   0.6000000), wk =   0.0480000
        k(   21) = (   0.5000000  -0.1000000   0.5000000), wk =   0.0480000
        k(   22) = (   0.4000000   0.0000000   0.4000000), wk =   0.0240000
        k(   23) = (   0.0000000   0.6000000   0.0000000), wk =   0.0120000
        k(   24) = (  -0.1000000   0.7000000  -0.1000000), wk =   0.0480000
        k(   25) = (   0.8000000  -0.2000000   0.8000000), wk =   0.0480000
        k(   26) = (   0.7000000  -0.1000000   0.7000000), wk =   0.0480000
        k(   27) = (   0.6000000  -0.0000000   0.6000000), wk =   0.0240000
        k(   28) = (   0.0000000   0.8000000   0.0000000), wk =   0.0120000
        k(   29) = (   0.9000000  -0.1000000   0.9000000), wk =   0.0480000
        k(   30) = (   0.8000000   0.0000000   0.8000000), wk =   0.0240000
        k(   31) = (   0.0000000  -1.0000000   0.0000000), wk =   0.0060000
        k(   32) = (  -0.2000000   0.4000000   0.0000000), wk =   0.0480000
        k(   33) = (  -0.3000000   0.5000000  -0.1000000), wk =   0.0960000
        k(   34) = (   0.6000000  -0.4000000   0.8000000), wk =   0.0960000
        k(   35) = (   0.5000000  -0.3000000   0.7000000), wk =   0.0480000
        k(   36) = (  -0.2000000   0.6000000   0.0000000), wk =   0.0480000
        k(   37) = (   0.7000000  -0.3000000   0.9000000), wk =   0.0960000
        k(   38) = (   0.6000000  -0.2000000   0.8000000), wk =   0.0960000
        k(   39) = (   0.5000000  -0.1000000   0.7000000), wk =   0.0960000
        k(   40) = (   0.4000000   0.0000000   0.6000000), wk =   0.0480000
        k(   41) = (   0.8000000  -0.2000000   1.0000000), wk =   0.0480000
        k(   42) = (   0.7000000  -0.1000000   0.9000000), wk =   0.0960000
        k(   43) = (   0.6000000   0.0000000   0.8000000), wk =   0.0480000
        k(   44) = (  -0.2000000  -1.0000000   0.0000000), wk =   0.0240000
        k(   45) = (   0.6000000  -0.2000000   1.0000000), wk =   0.0480000
        k(   46) = (   0.5000000  -0.1000000   0.9000000), wk =   0.0480000
        k(   47) = (  -0.4000000  -1.0000000   0.0000000), wk =   0.0240000

     Dense  grid:     6615 G-vectors     FFT dimensions: (  32,  32,  32)

     Estimated max dynamical RAM per process >      13.69 MB

     WARNING: libxc functional with ID  263 depends
      on external parameters: check the user_guide of
      QE if you need to modify them or to check their
      default values.

     Initial potential from superposition of free atoms

     starting charge       7.9999, renormalised to       8.0000
     Starting wfcs are    8 randomized atomic wfcs

     total cpu time spent up to now is        1.8 secs

     Self-consistent Calculation

     iteration #  1     ecut=    50.00 Ry     beta= 0.01
     Davidson diagonalization with overlap
     ethr =  1.00E-02,  avg # of iterations =  1.9

     total cpu time spent up to now is        4.0 secs

     total energy              =     -22.41050654 Ry
     estimated scf accuracy    <       0.98441884 Ry

     iteration #  2     ecut=    50.00 Ry     beta= 0.01
     Davidson diagonalization with overlap
     ethr =  1.00E-02,  avg # of iterations =  1.0

     total cpu time spent up to now is        5.9 secs

     total energy              =     -22.33092160 Ry
     estimated scf accuracy    <       1.00835594 Ry

     iteration #  3     ecut=    50.00 Ry     beta= 0.01
     Davidson diagonalization with overlap
     ethr =  1.00E-02,  avg # of iterations =  1.0

     total cpu time spent up to now is        7.7 secs

     total energy              =     -22.44829645 Ry
     estimated scf accuracy    <       1.83414173 Ry

     iteration #  4     ecut=    50.00 Ry     beta= 0.01
     Davidson diagonalization with overlap
     ethr =  1.00E-02,  avg # of iterations =  1.0

     total cpu time spent up to now is        9.7 secs

     total energy              =     -22.45390883 Ry
     estimated scf accuracy    <       0.00441126 Ry

     iteration #  5     ecut=    50.00 Ry     beta= 0.01
     Davidson diagonalization with overlap
     ethr =  5.51E-05,  avg # of iterations =  1.0

     total cpu time spent up to now is       11.6 secs

     total energy              =     -22.45419802 Ry
     estimated scf accuracy    <       0.00449061 Ry

     iteration #  6     ecut=    50.00 Ry     beta= 0.01
     Davidson diagonalization with overlap
     ethr =  5.51E-05,  avg # of iterations =  1.0

     total cpu time spent up to now is       13.5 secs

     total energy              =     -22.45364748 Ry
     estimated scf accuracy    <       0.00560058 Ry

     iteration #  7     ecut=    50.00 Ry     beta= 0.01
     Davidson diagonalization with overlap
     ethr =  5.51E-05,  avg # of iterations =  1.0

     total cpu time spent up to now is       14.8 secs

     total energy              =     -22.45382757 Ry
     estimated scf accuracy    <       0.00021791 Ry

     iteration #  8     ecut=    50.00 Ry     beta= 0.01
     Davidson diagonalization with overlap
     ethr =  2.72E-06,  avg # of iterations =  2.0

     total cpu time spent up to now is       16.5 secs

     total energy              =     -22.45389862 Ry
     estimated scf accuracy    <       0.00078985 Ry

     iteration #  9     ecut=    50.00 Ry     beta= 0.01
     Davidson diagonalization with overlap
     ethr =  2.72E-06,  avg # of iterations =  1.0

     total cpu time spent up to now is       18.1 secs

     total energy              =     -22.45391078 Ry
     estimated scf accuracy    <       0.00077702 Ry

     iteration # 10     ecut=    50.00 Ry     beta= 0.01
     Davidson diagonalization with overlap
     ethr =  2.72E-06,  avg # of iterations =  1.0

     total cpu time spent up to now is       19.9 secs

     total energy              =     -22.45392131 Ry
     estimated scf accuracy    <       0.00007873 Ry

     iteration # 11     ecut=    50.00 Ry     beta= 0.01
     Davidson diagonalization with overlap
     ethr =  9.84E-07,  avg # of iterations =  1.0

     total cpu time spent up to now is       21.1 secs

     total energy              =     -22.45392250 Ry
     estimated scf accuracy    <       0.00000271 Ry

     iteration # 12     ecut=    50.00 Ry     beta= 0.01
     Davidson diagonalization with overlap
     ethr =  3.38E-08,  avg # of iterations =  1.7

     total cpu time spent up to now is       22.2 secs

     total energy              =     -22.45392335 Ry
     estimated scf accuracy    <       0.00000453 Ry

     iteration # 13     ecut=    50.00 Ry     beta= 0.01
     Davidson diagonalization with overlap
     ethr =  3.38E-08,  avg # of iterations =  1.0

     total cpu time spent up to now is       23.0 secs

     total energy              =     -22.45392358 Ry
     estimated scf accuracy    <       0.00000383 Ry

     iteration # 14     ecut=    50.00 Ry     beta= 0.01
     Davidson diagonalization with overlap
     ethr =  3.38E-08,  avg # of iterations =  1.0

     total cpu time spent up to now is       23.5 secs

     End of self-consistent calculation

          k = 0.0000 0.0000 0.0000 (   869 PWs)   bands (ev):

   -11.2033   4.8692   4.8692   4.8692

          k =-0.1000 0.1000-0.1000 (   845 PWs)   bands (ev):

   -11.0180   3.4458   4.6386   4.6386

          k =-0.2000 0.2000-0.2000 (   827 PWs)   bands (ev):

   -10.4716   1.0883   4.1345   4.1345

          k =-0.3000 0.3000-0.3000 (   827 PWs)   bands (ev):

    -9.6051  -1.2503   3.6486   3.6486

          k =-0.4000 0.4000-0.4000 (   820 PWs)   bands (ev):

    -8.5617  -3.2248   3.3219   3.3219

          k = 0.5000-0.5000 0.5000 (   832 PWs)   bands (ev):

    -7.9392  -4.1686   3.2092   3.2092

          k = 0.0000 0.2000 0.0000 (   833 PWs)   bands (ev):

   -10.9557   3.5633   4.2400   4.2400

          k =-0.1000 0.3000-0.1000 (   830 PWs)   bands (ev):

   -10.5283   1.7240   3.6823   3.8594

          k =-0.2000 0.4000-0.2000 (   822 PWs)   bands (ev):

    -9.7627  -0.5206   3.2176   3.3114

          k =-0.3000 0.5000-0.3000 (   823 PWs)   bands (ev):

    -8.7501  -2.5932   2.7724   2.9577

          k = 0.6000-0.4000 0.6000 (   821 PWs)   bands (ev):

    -7.8652  -3.9824   2.4041   2.9498

          k = 0.5000-0.3000 0.5000 (   822 PWs)   bands (ev):

    -8.0948  -3.6482   2.2680   3.1769

          k = 0.4000-0.2000 0.4000 (   820 PWs)   bands (ev):

    -9.1063  -1.9366   2.3971   3.6045

          k = 0.3000-0.1000 0.3000 (   830 PWs)   bands (ev):

   -10.0545   0.2112   2.8148   4.1392

          k = 0.2000 0.0000 0.2000 (   835 PWs)   bands (ev):

   -10.7117   2.2542   3.6086   4.5860

          k = 0.0000 0.4000 0.0000 (   833 PWs)   bands (ev):

   -10.2213   1.3592   3.0890   3.0890

          k =-0.1000 0.5000-0.1000 (   830 PWs)   bands (ev):

    -9.5674  -0.2108   2.4742   2.6055

          k =-0.2000 0.6000-0.2000 (   816 PWs)   bands (ev):

    -8.6247  -2.0485   1.7240   2.3525

          k = 0.7000-0.3000 0.7000 (   816 PWs)   bands (ev):

    -7.6170  -3.5953   1.0847   2.3665

          k = 0.6000-0.2000 0.6000 (   827 PWs)   bands (ev):

    -7.4098  -3.8663   0.7175   2.6392

          k = 0.5000-0.1000 0.5000 (   819 PWs)   bands (ev):

    -8.3058  -2.5737   0.7390   3.1280

          k = 0.4000 0.0000 0.4000 (   831 PWs)   bands (ev):

    -9.3042  -0.9672   1.3694   3.7036

          k = 0.0000 0.6000 0.0000 (   829 PWs)   bands (ev):

    -9.0260  -0.9660   2.0811   2.0811

          k =-0.1000 0.7000-0.1000 (   821 PWs)   bands (ev):

    -8.1750  -2.2794   1.3910   1.7858

          k = 0.8000-0.2000 0.8000 (   814 PWs)   bands (ev):

    -7.1444  -3.5993   0.4510   1.7702

          k = 0.7000-0.1000 0.7000 (   821 PWs)   bands (ev):

    -6.5832  -4.2144  -0.2219   2.0308

          k = 0.6000-0.0000 0.6000 (   812 PWs)   bands (ev):

    -7.3104  -3.4324  -0.2386   2.5246

          k = 0.0000 0.8000 0.0000 (   806 PWs)   bands (ev):

    -7.4153  -3.2761   1.4319   1.4319

          k = 0.9000-0.1000 0.9000 (   813 PWs)   bands (ev):

    -6.4202  -4.3980   0.8332   1.3527

          k = 0.8000 0.0000 0.8000 (   810 PWs)   bands (ev):

    -5.7922  -4.9529  -0.0161   1.5664

          k = 0.0000-1.0000 0.0000 (   806 PWs)   bands (ev):

    -5.4656  -5.4656   1.2081   1.2081

          k =-0.2000 0.4000 0.0000 (   833 PWs)   bands (ev):

    -9.9885   0.4653   2.4734   3.6318

          k =-0.3000 0.5000-0.1000 (   824 PWs)   bands (ev):

    -9.1317  -1.3399   1.7005   3.1651

          k = 0.6000-0.4000 0.8000 (   817 PWs)   bands (ev):

    -8.0949  -3.1156   1.3551   2.7299

          k = 0.5000-0.3000 0.7000 (   824 PWs)   bands (ev):

    -7.4678  -4.0122   1.2607   2.5566

          k =-0.2000 0.6000 0.0000 (   826 PWs)   bands (ev):

    -8.8170  -1.4168   1.5064   2.3094

          k = 0.7000-0.3000 0.9000 (   822 PWs)   bands (ev):

    -7.8203  -2.8519   0.7552   1.9222

          k = 0.6000-0.2000 0.8000 (   817 PWs)   bands (ev):

    -6.9361  -3.9703   0.2471   1.8469

          k = 0.5000-0.1000 0.7000 (   819 PWs)   bands (ev):

    -7.2088  -3.6310   0.0760   2.1348

          k = 0.4000 0.0000 0.6000 (   818 PWs)   bands (ev):

    -8.2156  -2.3888   0.4868   2.6598

          k = 0.8000-0.2000 1.0000 (   815 PWs)   bands (ev):

    -7.2548  -3.4003   0.9362   1.3163

          k = 0.7000-0.1000 0.9000 (   814 PWs)   bands (ev):

    -6.2550  -4.4306   0.1623   1.2143

          k = 0.6000 0.0000 0.8000 (   818 PWs)   bands (ev):

    -6.2710  -4.3843  -0.3284   1.5504

          k =-0.2000-1.0000 0.0000 (   804 PWs)   bands (ev):

    -5.4002  -5.4002   0.8579   0.8579

          k = 0.6000-0.2000 1.0000 (   828 PWs)   bands (ev):

    -6.8217  -3.7987   0.0943   1.2950

          k = 0.5000-0.1000 0.9000 (   812 PWs)   bands (ev):

    -6.1362  -4.4718  -0.0886   1.0004

          k =-0.4000-1.0000 0.0000 (   812 PWs)   bands (ev):

    -5.2879  -5.2879   0.3531   0.3531

     highest occupied level (ev):     4.8692

!    total energy              =     -22.45392367 Ry
     estimated scf accuracy    <       0.00000003 Ry

     The total energy is the sum of the following terms:
     one-electron contribution =       2.21079636 Ry
     hartree contribution      =       2.62983972 Ry
     xc contribution           =      -6.25771930 Ry
     ewald contribution        =     -21.03684045 Ry

     convergence has been achieved in  14 iterations
     Writing meta-gga kinetic term

     Writing all to output data dir ./input_pw/C/13/pwscf.save/
     Writing meta-gga kinetic term
 
     init_run     :      0.78s CPU      1.79s WALL (       1 calls)
     electrons    :     13.18s CPU     21.71s WALL (       1 calls)

     Called by init_run:
     wfcinit      :      0.73s CPU      1.64s WALL (       1 calls)
     potinit      :      0.02s CPU      0.06s WALL (       1 calls)
     hinit0       :      0.03s CPU      0.06s WALL (       1 calls)

     Called by electrons:
     c_bands      :     10.25s CPU     16.98s WALL (      14 calls)
     sum_band     :      2.56s CPU      4.11s WALL (      14 calls)
     v_of_rho     :      0.27s CPU      0.51s WALL (      15 calls)
     mix_rho      :      0.11s CPU      0.16s WALL (      14 calls)

     Called by c_bands:
     init_us_2    :      0.04s CPU      0.07s WALL (    1363 calls)
     init_us_2:cp :      0.04s CPU      0.07s WALL (    1363 calls)
     cegterg      :     10.20s CPU     16.91s WALL (     658 calls)

     Called by *egterg:
     cdiaghg      :      0.06s CPU      0.09s WALL (    1443 calls)
     h_psi        :     10.69s CPU     18.15s WALL (    1490 calls)
     g_psi        :      0.01s CPU      0.01s WALL (     785 calls)

     Called by h_psi:
     h_psi:calbec :      0.02s CPU      0.05s WALL (    1490 calls)
     vloc_psi     :      2.65s CPU      4.60s WALL (    1490 calls)
     add_vuspsi   :      0.03s CPU      0.06s WALL (    1490 calls)
     h_psi_meta   :      7.98s CPU     13.39s WALL (    1490 calls)

     General routines
     calbec       :      0.02s CPU      0.05s WALL (    1490 calls)
     fft          :      0.03s CPU      0.08s WALL (     177 calls)
     ffts         :      0.05s CPU      0.10s WALL (     267 calls)
     fftw         :     11.16s CPU     18.60s WALL (   58208 calls)
     interpolate  :      0.00s CPU      0.00s WALL (      15 calls)
 
     Parallel routines
 
     PWSCF        :     13.99s CPU     23.53s WALL

 
   This run was terminated on:  12:34:42  29Mar2023            

=------------------------------------------------------------------------------=
   JOB DONE.
=------------------------------------------------------------------------------=
