
     Program PWSCF v.7.0 starts on 10Apr2023 at  9:43:45 

     This program is part of the open-source Quantum ESPRESSO suite
     for quantum simulation of materials; please cite
         "P. Giannozzi et al., J. Phys.:Condens. Matter 21 395502 (2009);
         "P. Giannozzi et al., J. Phys.:Condens. Matter 29 465901 (2017);
         "P. Giannozzi et al., J. Chem. Phys. 152 154105 (2020);
          URL http://www.quantum-espresso.org", 
     in publications or presentations arising from this work. More details at
     http://www.quantum-espresso.org/quote

     Parallel version (MPI), running on     1 processors

     MPI processes distributed on     1 nodes
     18936 MiB available memory on the printing compute node when the environment starts
 
     Waiting for input...
     Reading input from standard input
Warning: card &CELL ignored
Warning: card / ignored

     Current dimensions of program PWSCF are:
     Max number of different atomic species (ntypx) = 10
     Max number of k-points (npk) =  40000
     Max angular momentum in pseudopotentials (lmaxx) =  4

     WARNING: the MGGA functional with ID    5 has been 
     read together with other dft terms, but it should 
     stand alone in order to work properly. The other 
     terms will be ignored.

     WARNING: the MGGA functional with ID    5 has been 
     read together with other dft terms, but it should 
     stand alone in order to work properly. The other 
     terms will be ignored.

     Subspace diagonalization in iterative solution of the eigenvalue problem:
     a serial algorithm will be used

 
     G-vector sticks info
     --------------------
     sticks:   dense  smooth     PW     G-vecs:    dense   smooth      PW
     Sum         499     499    163                 7239     7239    1363
 
     Using Slab Decomposition
 


     bravais-lattice index     =            2
     lattice parameter (alat)  =       8.4509  a.u.
     unit-cell volume          =     150.8836 (a.u.)^3
     number of atoms/cell      =            2
     number of atomic types    =            2
     number of electrons       =         8.00
     number of Kohn-Sham states=            4
     kinetic-energy cutoff     =      50.0000  Ry
     charge density cutoff     =     200.0000  Ry
     scf convergence threshold =      1.0E-06
     mixing beta               =       0.0100
     number of iterations used =            8  local-TF  mixing
     Exchange-correlation= SLA  PW   SCAN SCAN
                           (   0   0   0   0   0 263 267)

     celldm(1)=   8.450855  celldm(2)=   0.000000  celldm(3)=   0.000000
     celldm(4)=   0.000000  celldm(5)=   0.000000  celldm(6)=   0.000000

     crystal axes: (cart. coord. in units of alat)
               a(1) = (  -0.500000   0.000000   0.500000 )  
               a(2) = (   0.000000   0.500000   0.500000 )  
               a(3) = (  -0.500000   0.500000   0.000000 )  

     reciprocal axes: (cart. coord. in units 2 pi/alat)
               b(1) = ( -1.000000 -1.000000  1.000000 )  
               b(2) = (  1.000000  1.000000  1.000000 )  
               b(3) = ( -1.000000  1.000000 -1.000000 )  


     PseudoPot. # 1 for Li read from file:
     ~/Documents/TA/PWDFT.jl/pseudopotentials/scan_upf/Li.SCAN.UPF2
     MD5 check sum: Not computed, couldn't open file
     Pseudo is Norm-conserving, Zval =  1.0
     Generated by new atomic code, or converted to UPF format
     Using radial grid of 1321 points,  1 beta functions with: 
                l(1) =   0

     PseudoPot. # 2 for F  read from file:
     ~/Documents/TA/PWDFT.jl/pseudopotentials/scan_upf/F.SCAN.UPF2
     MD5 check sum: Not computed, couldn't open file
     Pseudo is Norm-conserving, Zval =  7.0
     Generated by new atomic code, or converted to UPF format
     Using radial grid of 1431 points,  1 beta functions with: 
                l(1) =   0

     atomic species   valence    mass     pseudopotential
        Li             1.00     6.94100     Li( 1.00)
        F              7.00    18.99800     F ( 1.00)

     48 Sym. Ops., with inversion, found



   Cartesian axes

     site n.     atom                  positions (alat units)
         1           Li  tau(   1) = (   0.0000000   0.0000000   0.0000000  )
         2           F   tau(   2) = (   0.5000000   0.5000000   0.5000000  )

     number of k points=    47
                       cart. coord. in units 2pi/alat
        k(    1) = (   0.0000000   0.0000000   0.0000000), wk =   0.0020000
        k(    2) = (  -0.1000000   0.1000000  -0.1000000), wk =   0.0160000
        k(    3) = (  -0.2000000   0.2000000  -0.2000000), wk =   0.0160000
        k(    4) = (  -0.3000000   0.3000000  -0.3000000), wk =   0.0160000
        k(    5) = (  -0.4000000   0.4000000  -0.4000000), wk =   0.0160000
        k(    6) = (   0.5000000  -0.5000000   0.5000000), wk =   0.0080000
        k(    7) = (   0.0000000   0.2000000   0.0000000), wk =   0.0120000
        k(    8) = (  -0.1000000   0.3000000  -0.1000000), wk =   0.0480000
        k(    9) = (  -0.2000000   0.4000000  -0.2000000), wk =   0.0480000
        k(   10) = (  -0.3000000   0.5000000  -0.3000000), wk =   0.0480000
        k(   11) = (   0.6000000  -0.4000000   0.6000000), wk =   0.0480000
        k(   12) = (   0.5000000  -0.3000000   0.5000000), wk =   0.0480000
        k(   13) = (   0.4000000  -0.2000000   0.4000000), wk =   0.0480000
        k(   14) = (   0.3000000  -0.1000000   0.3000000), wk =   0.0480000
        k(   15) = (   0.2000000   0.0000000   0.2000000), wk =   0.0240000
        k(   16) = (   0.0000000   0.4000000   0.0000000), wk =   0.0120000
        k(   17) = (  -0.1000000   0.5000000  -0.1000000), wk =   0.0480000
        k(   18) = (  -0.2000000   0.6000000  -0.2000000), wk =   0.0480000
        k(   19) = (   0.7000000  -0.3000000   0.7000000), wk =   0.0480000
        k(   20) = (   0.6000000  -0.2000000   0.6000000), wk =   0.0480000
        k(   21) = (   0.5000000  -0.1000000   0.5000000), wk =   0.0480000
        k(   22) = (   0.4000000   0.0000000   0.4000000), wk =   0.0240000
        k(   23) = (   0.0000000   0.6000000   0.0000000), wk =   0.0120000
        k(   24) = (  -0.1000000   0.7000000  -0.1000000), wk =   0.0480000
        k(   25) = (   0.8000000  -0.2000000   0.8000000), wk =   0.0480000
        k(   26) = (   0.7000000  -0.1000000   0.7000000), wk =   0.0480000
        k(   27) = (   0.6000000  -0.0000000   0.6000000), wk =   0.0240000
        k(   28) = (   0.0000000   0.8000000   0.0000000), wk =   0.0120000
        k(   29) = (   0.9000000  -0.1000000   0.9000000), wk =   0.0480000
        k(   30) = (   0.8000000   0.0000000   0.8000000), wk =   0.0240000
        k(   31) = (   0.0000000  -1.0000000   0.0000000), wk =   0.0060000
        k(   32) = (  -0.2000000   0.4000000   0.0000000), wk =   0.0480000
        k(   33) = (  -0.3000000   0.5000000  -0.1000000), wk =   0.0960000
        k(   34) = (   0.6000000  -0.4000000   0.8000000), wk =   0.0960000
        k(   35) = (   0.5000000  -0.3000000   0.7000000), wk =   0.0480000
        k(   36) = (  -0.2000000   0.6000000   0.0000000), wk =   0.0480000
        k(   37) = (   0.7000000  -0.3000000   0.9000000), wk =   0.0960000
        k(   38) = (   0.6000000  -0.2000000   0.8000000), wk =   0.0960000
        k(   39) = (   0.5000000  -0.1000000   0.7000000), wk =   0.0960000
        k(   40) = (   0.4000000   0.0000000   0.6000000), wk =   0.0480000
        k(   41) = (   0.8000000  -0.2000000   1.0000000), wk =   0.0480000
        k(   42) = (   0.7000000  -0.1000000   0.9000000), wk =   0.0960000
        k(   43) = (   0.6000000   0.0000000   0.8000000), wk =   0.0480000
        k(   44) = (  -0.2000000  -1.0000000   0.0000000), wk =   0.0240000
        k(   45) = (   0.6000000  -0.2000000   1.0000000), wk =   0.0480000
        k(   46) = (   0.5000000  -0.1000000   0.9000000), wk =   0.0480000
        k(   47) = (  -0.4000000  -1.0000000   0.0000000), wk =   0.0240000

     Dense  grid:     7239 G-vectors     FFT dimensions: (  27,  27,  27)

     Estimated max dynamical RAM per process >      13.36 MB

     WARNING: libxc functional with ID  263 depends
      on external parameters: check the user_guide of
      QE if you need to modify them or to check their
      default values.

     Initial potential from superposition of free atoms

     starting charge       7.9953, renormalised to       8.0000
     Starting wfcs are    8 randomized atomic wfcs

     total cpu time spent up to now is        2.0 secs

     Self-consistent Calculation

     iteration #  1     ecut=    50.00 Ry     beta= 0.01
     Davidson diagonalization with overlap
     ethr =  1.00E-02,  avg # of iterations =  2.0

     total cpu time spent up to now is        4.7 secs

     total energy              =     -48.54257653 Ry
     estimated scf accuracy    <      17.61917357 Ry

     iteration #  2     ecut=    50.00 Ry     beta= 0.01
     Davidson diagonalization with overlap
     ethr =  1.00E-02,  avg # of iterations =  1.0

     total cpu time spent up to now is        7.0 secs

     total energy              =     -48.60366251 Ry
     estimated scf accuracy    <      17.33936011 Ry

     iteration #  3     ecut=    50.00 Ry     beta= 0.01
     Davidson diagonalization with overlap
     ethr =  1.00E-02,  avg # of iterations =  1.0

     total cpu time spent up to now is        9.4 secs

     total energy              =     -48.60650461 Ry
     estimated scf accuracy    <       0.09087200 Ry

     iteration #  4     ecut=    50.00 Ry     beta= 0.01
     Davidson diagonalization with overlap
     ethr =  1.14E-03,  avg # of iterations =  1.0

     total cpu time spent up to now is       11.8 secs

     total energy              =     -48.60662432 Ry
     estimated scf accuracy    <       0.01428143 Ry

     iteration #  5     ecut=    50.00 Ry     beta= 0.01
     Davidson diagonalization with overlap
     ethr =  1.79E-04,  avg # of iterations =  1.0

     total cpu time spent up to now is       13.6 secs

     total energy              =     -48.60782693 Ry
     estimated scf accuracy    <       0.01961714 Ry

     iteration #  6     ecut=    50.00 Ry     beta= 0.01
     Davidson diagonalization with overlap
     ethr =  1.79E-04,  avg # of iterations =  1.0

     total cpu time spent up to now is       15.6 secs

     total energy              =     -48.60880443 Ry
     estimated scf accuracy    <       0.01065493 Ry

     iteration #  7     ecut=    50.00 Ry     beta= 0.01
     Davidson diagonalization with overlap
     ethr =  1.33E-04,  avg # of iterations =  1.0

     total cpu time spent up to now is       17.5 secs

     total energy              =     -48.60896956 Ry
     estimated scf accuracy    <       0.00707309 Ry

     iteration #  8     ecut=    50.00 Ry     beta= 0.01
     Davidson diagonalization with overlap
     ethr =  8.84E-05,  avg # of iterations =  1.0

     total cpu time spent up to now is       19.4 secs

     total energy              =     -48.60892111 Ry
     estimated scf accuracy    <       0.00789429 Ry

     iteration #  9     ecut=    50.00 Ry     beta= 0.01
     Davidson diagonalization with overlap
     ethr =  8.84E-05,  avg # of iterations =  1.0

     total cpu time spent up to now is       20.8 secs

     total energy              =     -48.60887744 Ry
     estimated scf accuracy    <       0.00562517 Ry

     iteration # 10     ecut=    50.00 Ry     beta= 0.01
     Davidson diagonalization with overlap
     ethr =  7.03E-05,  avg # of iterations =  1.0

     total cpu time spent up to now is       22.3 secs

     total energy              =     -48.60881446 Ry
     estimated scf accuracy    <       0.00299315 Ry

     iteration # 11     ecut=    50.00 Ry     beta= 0.01
     Davidson diagonalization with overlap
     ethr =  3.74E-05,  avg # of iterations =  1.0

     total cpu time spent up to now is       23.8 secs

     total energy              =     -48.60886318 Ry
     estimated scf accuracy    <       0.00016364 Ry

     iteration # 12     ecut=    50.00 Ry     beta= 0.01
     Davidson diagonalization with overlap
     ethr =  2.05E-06,  avg # of iterations =  1.0

     total cpu time spent up to now is       25.2 secs

     total energy              =     -48.60884643 Ry
     estimated scf accuracy    <       0.00059649 Ry

     iteration # 13     ecut=    50.00 Ry     beta= 0.01
     Davidson diagonalization with overlap
     ethr =  2.05E-06,  avg # of iterations =  1.9

     total cpu time spent up to now is       26.8 secs

     total energy              =     -48.60886181 Ry
     estimated scf accuracy    <       0.00002257 Ry

     iteration # 14     ecut=    50.00 Ry     beta= 0.01
     Davidson diagonalization with overlap
     ethr =  2.82E-07,  avg # of iterations =  1.0

     total cpu time spent up to now is       28.4 secs

     total energy              =     -48.60886214 Ry
     estimated scf accuracy    <       0.00005378 Ry

     iteration # 15     ecut=    50.00 Ry     beta= 0.01
     Davidson diagonalization with overlap
     ethr =  2.82E-07,  avg # of iterations =  1.0

     total cpu time spent up to now is       29.5 secs

     total energy              =     -48.60885907 Ry
     estimated scf accuracy    <       0.00005901 Ry

     iteration # 16     ecut=    50.00 Ry     beta= 0.01
     Davidson diagonalization with overlap
     ethr =  2.82E-07,  avg # of iterations =  1.9

     total cpu time spent up to now is       30.5 secs

     total energy              =     -48.60886043 Ry
     estimated scf accuracy    <       0.00001034 Ry

     iteration # 17     ecut=    50.00 Ry     beta= 0.01
     Davidson diagonalization with overlap
     ethr =  1.29E-07,  avg # of iterations =  1.0

     total cpu time spent up to now is       31.5 secs

     End of self-consistent calculation

          k = 0.0000 0.0000 0.0000 (   893 PWs)   bands (ev):

   -23.2577  -1.9377  -1.9377  -1.9377

          k =-0.1000 0.1000-0.1000 (   914 PWs)   bands (ev):

   -23.2373  -2.1926  -2.0343  -2.0343

          k =-0.2000 0.2000-0.2000 (   914 PWs)   bands (ev):

   -23.1798  -2.6889  -2.0611  -2.0611

          k =-0.3000 0.3000-0.3000 (   905 PWs)   bands (ev):

   -23.1073  -3.1787  -2.0726  -2.0726

          k =-0.4000 0.4000-0.4000 (   899 PWs)   bands (ev):

   -23.0478  -3.5423  -2.0874  -2.0874

          k = 0.5000-0.5000 0.5000 (   886 PWs)   bands (ev):

   -23.0243  -3.6448  -2.0616  -2.0616

          k = 0.0000 0.2000 0.0000 (   909 PWs)   bands (ev):

   -23.2295  -2.2129  -2.0379  -2.0379

          k =-0.1000 0.3000-0.1000 (   903 PWs)   bands (ev):

   -23.1833  -2.5477  -2.0734  -2.0691

          k =-0.2000 0.4000-0.2000 (   906 PWs)   bands (ev):

   -23.1157  -3.0150  -2.1558  -2.1462

          k =-0.3000 0.5000-0.3000 (   904 PWs)   bands (ev):

   -23.0517  -3.4277  -2.1993  -2.1856

          k = 0.6000-0.4000 0.6000 (   899 PWs)   bands (ev):

   -23.0161  -3.6346  -2.2524  -2.1389

          k = 0.5000-0.3000 0.5000 (   897 PWs)   bands (ev):

   -23.0238  -3.5758  -2.2784  -2.0937

          k = 0.4000-0.2000 0.4000 (   899 PWs)   bands (ev):

   -23.0715  -3.2835  -2.2613  -2.0589

          k = 0.3000-0.1000 0.3000 (   902 PWs)   bands (ev):

   -23.1400  -2.8334  -2.2004  -2.0302

          k = 0.2000 0.0000 0.2000 (   911 PWs)   bands (ev):

   -23.2033  -2.4238  -2.1271  -2.0240

          k = 0.0000 0.4000 0.0000 (   901 PWs)   bands (ev):

   -23.1508  -2.6232  -2.1944  -2.1944

          k =-0.1000 0.5000-0.1000 (   899 PWs)   bands (ev):

   -23.0935  -2.9775  -2.2941  -2.2559

          k =-0.2000 0.6000-0.2000 (   893 PWs)   bands (ev):

   -23.0328  -3.3163  -2.3882  -2.2891

          k = 0.7000-0.3000 0.7000 (   902 PWs)   bands (ev):

   -22.9929  -3.5414  -2.5682  -2.2808

          k = 0.6000-0.2000 0.6000 (   905 PWs)   bands (ev):

   -22.9888  -3.5292  -2.6752  -2.2302

          k = 0.5000-0.1000 0.5000 (   898 PWs)   bands (ev):

   -23.0220  -3.3073  -2.6844  -2.1035

          k = 0.4000 0.0000 0.4000 (   909 PWs)   bands (ev):

   -23.0807  -3.0797  -2.5360  -2.0666

          k = 0.0000 0.6000 0.0000 (   894 PWs)   bands (ev):

   -23.0491  -3.1750  -2.3735  -2.3735

          k =-0.1000 0.7000-0.1000 (   895 PWs)   bands (ev):

   -22.9996  -3.4461  -2.4979  -2.4289

          k = 0.8000-0.2000 0.8000 (   904 PWs)   bands (ev):

   -22.9638  -3.5854  -2.7360  -2.4355

          k = 0.7000-0.1000 0.7000 (   897 PWs)   bands (ev):

   -22.9548  -3.4565  -2.9814  -2.3144

          k = 0.6000-0.0000 0.6000 (   899 PWs)   bands (ev):

   -22.9774  -3.2255  -3.1031  -2.2179

          k = 0.0000 0.8000 0.0000 (   902 PWs)   bands (ev):

   -22.9641  -3.6764  -2.5428  -2.5428

          k = 0.9000-0.1000 0.9000 (   907 PWs)   bands (ev):

   -22.9400  -3.8001  -2.6422  -2.5699

          k = 0.8000 0.0000 0.8000 (   904 PWs)   bands (ev):

   -22.9363  -3.6640  -2.8924  -2.4553

          k = 0.0000-1.0000 0.0000 (   934 PWs)   bands (ev):

   -22.9324  -3.9731  -2.6727  -2.6727

          k =-0.2000 0.4000 0.0000 (   899 PWs)   bands (ev):

   -23.1315  -2.7821  -2.2733  -2.0911

          k =-0.3000 0.5000-0.1000 (   903 PWs)   bands (ev):

   -23.0674  -3.1696  -2.4346  -2.1472

          k = 0.6000-0.4000 0.8000 (   899 PWs)   bands (ev):

   -23.0143  -3.4649  -2.5001  -2.1844

          k = 0.5000-0.3000 0.7000 (   900 PWs)   bands (ev):

   -22.9940  -3.5725  -2.5427  -2.2003

          k =-0.2000 0.6000 0.0000 (   895 PWs)   bands (ev):

   -23.0396  -3.2285  -2.4773  -2.2827

          k = 0.7000-0.3000 0.9000 (   897 PWs)   bands (ev):

   -22.9907  -3.4216  -2.6871  -2.3271

          k = 0.6000-0.2000 0.8000 (   907 PWs)   bands (ev):

   -22.9660  -3.5000  -2.8788  -2.3509

          k = 0.5000-0.1000 0.7000 (   902 PWs)   bands (ev):

   -22.9743  -3.3865  -2.9436  -2.2740

          k = 0.4000 0.0000 0.6000 (   900 PWs)   bands (ev):

   -23.0132  -3.2669  -2.7821  -2.1842

          k = 0.8000-0.2000 1.0000 (   897 PWs)   bands (ev):

   -22.9621  -3.6128  -2.6474  -2.4666

          k = 0.7000-0.1000 0.9000 (   903 PWs)   bands (ev):

   -22.9419  -3.5987  -2.8923  -2.4706

          k = 0.6000 0.0000 0.8000 (   905 PWs)   bands (ev):

   -22.9467  -3.3823  -3.1462  -2.3982

          k =-0.2000-1.0000 0.0000 (   912 PWs)   bands (ev):

   -22.9325  -3.8144  -2.7318  -2.5792

          k = 0.6000-0.2000 1.0000 (   902 PWs)   bands (ev):

   -22.9565  -3.4175  -2.9856  -2.4135

          k = 0.5000-0.1000 0.9000 (   902 PWs)   bands (ev):

   -22.9432  -3.3235  -3.1877  -2.4321

          k =-0.4000-1.0000 0.0000 (   896 PWs)   bands (ev):

   -22.9337  -3.4477  -3.0485  -2.4937

     highest occupied level (ev):    -1.9377

!    total energy              =     -48.60886067 Ry
     estimated scf accuracy    <       0.00000022 Ry

     The total energy is the sum of the following terms:
     one-electron contribution =     -28.57086317 Ry
     hartree contribution      =      18.66075094 Ry
     xc contribution           =      -9.76684062 Ry
     ewald contribution        =     -28.93190782 Ry

     convergence has been achieved in  17 iterations
     Writing meta-gga kinetic term

     Writing all to output data dir ./input_pw/LiF/13/pwscf.save/
     Writing meta-gga kinetic term
 
     init_run     :      0.87s CPU      1.88s WALL (       1 calls)
     electrons    :     16.76s CPU     29.56s WALL (       1 calls)

     Called by init_run:
     wfcinit      :      0.78s CPU      1.67s WALL (       1 calls)
     potinit      :      0.02s CPU      0.07s WALL (       1 calls)
     hinit0       :      0.06s CPU      0.12s WALL (       1 calls)

     Called by electrons:
     c_bands      :     12.99s CPU     22.90s WALL (      17 calls)
     sum_band     :      3.35s CPU      5.95s WALL (      17 calls)
     v_of_rho     :      0.21s CPU      0.41s WALL (      18 calls)
     mix_rho      :      0.22s CPU      0.33s WALL (      17 calls)

     Called by c_bands:
     init_us_2    :      0.07s CPU      0.10s WALL (    1645 calls)
     init_us_2:cp :      0.07s CPU      0.10s WALL (    1645 calls)
     cegterg      :     12.92s CPU     22.76s WALL (     799 calls)

     Called by *egterg:
     cdiaghg      :      0.07s CPU      0.09s WALL (    1731 calls)
     h_psi        :     13.43s CPU     23.91s WALL (    1778 calls)
     g_psi        :      0.01s CPU      0.06s WALL (     932 calls)

     Called by h_psi:
     h_psi:calbec :      0.02s CPU      0.02s WALL (    1778 calls)
     vloc_psi     :      3.32s CPU      6.00s WALL (    1778 calls)
     add_vuspsi   :      0.04s CPU      0.05s WALL (    1778 calls)
     h_psi_meta   :     10.03s CPU     17.79s WALL (    1778 calls)

     General routines
     calbec       :      0.02s CPU      0.02s WALL (    1778 calls)
     fft          :      0.05s CPU      0.10s WALL (     213 calls)
     ffts         :      0.11s CPU      0.16s WALL (     526 calls)
     fftw         :     15.08s CPU     26.98s WALL (   68888 calls)
     interpolate  :      0.00s CPU      0.00s WALL (      18 calls)
 
     Parallel routines
 
     PWSCF        :     17.68s CPU     31.53s WALL

 
   This run was terminated on:   9:44:16  10Apr2023            

=------------------------------------------------------------------------------=
   JOB DONE.
=------------------------------------------------------------------------------=
