
     Program PWSCF v.7.0 starts on  7Jul2023 at 14:23:45 

     This program is part of the open-source Quantum ESPRESSO suite
     for quantum simulation of materials; please cite
         "P. Giannozzi et al., J. Phys.:Condens. Matter 21 395502 (2009);
         "P. Giannozzi et al., J. Phys.:Condens. Matter 29 465901 (2017);
         "P. Giannozzi et al., J. Chem. Phys. 152 154105 (2020);
          URL http://www.quantum-espresso.org", 
     in publications or presentations arising from this work. More details at
     http://www.quantum-espresso.org/quote

     Parallel version (MPI), running on     1 processors

     MPI processes distributed on     1 nodes
     27017 MiB available memory on the printing compute node when the environment starts
 
     Waiting for input...
     Reading input from standard input
Warning: card &CELL ignored
Warning: card / ignored

     Current dimensions of program PWSCF are:
     Max number of different atomic species (ntypx) = 10
     Max number of k-points (npk) =  40000
     Max angular momentum in pseudopotentials (lmaxx) =  4

     WARNING: the MGGA functional with ID    5 has been 
     read together with other dft terms, but it should 
     stand alone in order to work properly. The other 
     terms will be ignored.

     WARNING: the MGGA functional with ID    5 has been 
     read together with other dft terms, but it should 
     stand alone in order to work properly. The other 
     terms will be ignored.

     Subspace diagonalization in iterative solution of the eigenvalue problem:
     a serial algorithm will be used

 
     G-vector sticks info
     --------------------
     sticks:   dense  smooth     PW     G-vecs:    dense   smooth      PW
     Sum         595     595    187                 9577     9577    1687
 
     Using Slab Decomposition
 


     bravais-lattice index     =            2
     lattice parameter (alat)  =       9.3176  a.u.
     unit-cell volume          =     202.2337 (a.u.)^3
     number of atoms/cell      =            2
     number of atomic types    =            2
     number of electrons       =         8.00
     number of Kohn-Sham states=            4
     kinetic-energy cutoff     =      50.0000  Ry
     charge density cutoff     =     200.0000  Ry
     scf convergence threshold =      2.0E-05
     mixing beta               =       0.2000
     number of iterations used =            8  local-TF  mixing
     Exchange-correlation= SLA  PW   SCAN SCAN
                           (   0   0   0   0   0 263 267)

     celldm(1)=   9.317610  celldm(2)=   0.000000  celldm(3)=   0.000000
     celldm(4)=   0.000000  celldm(5)=   0.000000  celldm(6)=   0.000000

     crystal axes: (cart. coord. in units of alat)
               a(1) = (  -0.500000   0.000000   0.500000 )  
               a(2) = (   0.000000   0.500000   0.500000 )  
               a(3) = (  -0.500000   0.500000   0.000000 )  

     reciprocal axes: (cart. coord. in units 2 pi/alat)
               b(1) = ( -1.000000 -1.000000  1.000000 )  
               b(2) = (  1.000000  1.000000  1.000000 )  
               b(3) = ( -1.000000  1.000000 -1.000000 )  


     PseudoPot. # 1 for Li read from file:
     ~/Documents/TA/PWDFT.jl/pseudopotentials/scan_upf/Li.SCAN.UPF2
     MD5 check sum: Not computed, couldn't open file
     Pseudo is Norm-conserving, Zval =  1.0
     Generated by new atomic code, or converted to UPF format
     Using radial grid of 1321 points,  1 beta functions with: 
                l(1) =   0

     PseudoPot. # 2 for F  read from file:
     ~/Documents/TA/PWDFT.jl/pseudopotentials/scan_upf/F.SCAN.UPF2
     MD5 check sum: Not computed, couldn't open file
     Pseudo is Norm-conserving, Zval =  7.0
     Generated by new atomic code, or converted to UPF format
     Using radial grid of 1431 points,  1 beta functions with: 
                l(1) =   0

     atomic species   valence    mass     pseudopotential
        Li             1.00     6.94100     Li( 1.00)
        F              7.00    18.99800     F ( 1.00)

     48 Sym. Ops., with inversion, found



   Cartesian axes

     site n.     atom                  positions (alat units)
         1           Li  tau(   1) = (   0.0000000   0.0000000   0.0000000  )
         2           F   tau(   2) = (   0.5000000   0.5000000   0.5000000  )

     number of k points=    47
                       cart. coord. in units 2pi/alat
        k(    1) = (   0.0000000   0.0000000   0.0000000), wk =   0.0020000
        k(    2) = (  -0.1000000   0.1000000  -0.1000000), wk =   0.0160000
        k(    3) = (  -0.2000000   0.2000000  -0.2000000), wk =   0.0160000
        k(    4) = (  -0.3000000   0.3000000  -0.3000000), wk =   0.0160000
        k(    5) = (  -0.4000000   0.4000000  -0.4000000), wk =   0.0160000
        k(    6) = (   0.5000000  -0.5000000   0.5000000), wk =   0.0080000
        k(    7) = (   0.0000000   0.2000000   0.0000000), wk =   0.0120000
        k(    8) = (  -0.1000000   0.3000000  -0.1000000), wk =   0.0480000
        k(    9) = (  -0.2000000   0.4000000  -0.2000000), wk =   0.0480000
        k(   10) = (  -0.3000000   0.5000000  -0.3000000), wk =   0.0480000
        k(   11) = (   0.6000000  -0.4000000   0.6000000), wk =   0.0480000
        k(   12) = (   0.5000000  -0.3000000   0.5000000), wk =   0.0480000
        k(   13) = (   0.4000000  -0.2000000   0.4000000), wk =   0.0480000
        k(   14) = (   0.3000000  -0.1000000   0.3000000), wk =   0.0480000
        k(   15) = (   0.2000000   0.0000000   0.2000000), wk =   0.0240000
        k(   16) = (   0.0000000   0.4000000   0.0000000), wk =   0.0120000
        k(   17) = (  -0.1000000   0.5000000  -0.1000000), wk =   0.0480000
        k(   18) = (  -0.2000000   0.6000000  -0.2000000), wk =   0.0480000
        k(   19) = (   0.7000000  -0.3000000   0.7000000), wk =   0.0480000
        k(   20) = (   0.6000000  -0.2000000   0.6000000), wk =   0.0480000
        k(   21) = (   0.5000000  -0.1000000   0.5000000), wk =   0.0480000
        k(   22) = (   0.4000000   0.0000000   0.4000000), wk =   0.0240000
        k(   23) = (   0.0000000   0.6000000   0.0000000), wk =   0.0120000
        k(   24) = (  -0.1000000   0.7000000  -0.1000000), wk =   0.0480000
        k(   25) = (   0.8000000  -0.2000000   0.8000000), wk =   0.0480000
        k(   26) = (   0.7000000  -0.1000000   0.7000000), wk =   0.0480000
        k(   27) = (   0.6000000  -0.0000000   0.6000000), wk =   0.0240000
        k(   28) = (   0.0000000   0.8000000   0.0000000), wk =   0.0120000
        k(   29) = (   0.9000000  -0.1000000   0.9000000), wk =   0.0480000
        k(   30) = (   0.8000000   0.0000000   0.8000000), wk =   0.0240000
        k(   31) = (   0.0000000  -1.0000000   0.0000000), wk =   0.0060000
        k(   32) = (  -0.2000000   0.4000000   0.0000000), wk =   0.0480000
        k(   33) = (  -0.3000000   0.5000000  -0.1000000), wk =   0.0960000
        k(   34) = (   0.6000000  -0.4000000   0.8000000), wk =   0.0960000
        k(   35) = (   0.5000000  -0.3000000   0.7000000), wk =   0.0480000
        k(   36) = (  -0.2000000   0.6000000   0.0000000), wk =   0.0480000
        k(   37) = (   0.7000000  -0.3000000   0.9000000), wk =   0.0960000
        k(   38) = (   0.6000000  -0.2000000   0.8000000), wk =   0.0960000
        k(   39) = (   0.5000000  -0.1000000   0.7000000), wk =   0.0960000
        k(   40) = (   0.4000000   0.0000000   0.6000000), wk =   0.0480000
        k(   41) = (   0.8000000  -0.2000000   1.0000000), wk =   0.0480000
        k(   42) = (   0.7000000  -0.1000000   0.9000000), wk =   0.0960000
        k(   43) = (   0.6000000   0.0000000   0.8000000), wk =   0.0480000
        k(   44) = (  -0.2000000  -1.0000000   0.0000000), wk =   0.0240000
        k(   45) = (   0.6000000  -0.2000000   1.0000000), wk =   0.0480000
        k(   46) = (   0.5000000  -0.1000000   0.9000000), wk =   0.0480000
        k(   47) = (  -0.4000000  -1.0000000   0.0000000), wk =   0.0240000

     Dense  grid:     9577 G-vectors     FFT dimensions: (  30,  30,  30)

     Estimated max dynamical RAM per process >      17.83 MB

     WARNING: libxc functional with ID  263 depends
      on external parameters: check the user_guide of
      QE if you need to modify them or to check their
      default values.

     Initial potential from superposition of free atoms

     starting charge       7.9953, renormalised to       8.0000
     Starting wfcs are    8 randomized atomic wfcs

     total cpu time spent up to now is        2.5 secs

     Self-consistent Calculation

     iteration #  1     ecut=    50.00 Ry     beta= 0.20
     Davidson diagonalization with overlap
     ethr =  1.00E-02,  avg # of iterations =  2.0

     total cpu time spent up to now is        5.8 secs

     total energy              =     -48.58087831 Ry
     estimated scf accuracy    <      17.72611549 Ry

     iteration #  2     ecut=    50.00 Ry     beta= 0.20
     Davidson diagonalization with overlap
     ethr =  1.00E-02,  avg # of iterations =  1.0

     total cpu time spent up to now is        8.4 secs

     total energy              =     -48.57097459 Ry
     estimated scf accuracy    <      11.53457349 Ry

     iteration #  3     ecut=    50.00 Ry     beta= 0.20
     Davidson diagonalization with overlap
     ethr =  1.00E-02,  avg # of iterations =  1.0

     total cpu time spent up to now is       10.7 secs

     total energy              =     -48.57828692 Ry
     estimated scf accuracy    <       0.05344268 Ry

     iteration #  4     ecut=    50.00 Ry     beta= 0.20
     Davidson diagonalization with overlap
     ethr =  6.68E-04,  avg # of iterations =  1.0

     total cpu time spent up to now is       12.6 secs

     total energy              =     -48.58040867 Ry
     estimated scf accuracy    <       0.03823782 Ry

     iteration #  5     ecut=    50.00 Ry     beta= 0.20
     Davidson diagonalization with overlap
     ethr =  4.78E-04,  avg # of iterations =  1.0

     total cpu time spent up to now is       14.2 secs

     total energy              =     -48.58116650 Ry
     estimated scf accuracy    <       0.00205872 Ry

     iteration #  6     ecut=    50.00 Ry     beta= 0.20
     Davidson diagonalization with overlap
     ethr =  2.57E-05,  avg # of iterations =  1.0

     total cpu time spent up to now is       15.7 secs

     total energy              =     -48.58132631 Ry
     estimated scf accuracy    <       0.00120902 Ry

     iteration #  7     ecut=    50.00 Ry     beta= 0.20
     Davidson diagonalization with overlap
     ethr =  1.51E-05,  avg # of iterations =  1.0

     total cpu time spent up to now is       17.2 secs

     total energy              =     -48.58133702 Ry
     estimated scf accuracy    <       0.00015292 Ry

     iteration #  8     ecut=    50.00 Ry     beta= 0.20
     Davidson diagonalization with overlap
     ethr =  1.91E-06,  avg # of iterations =  1.0

     total cpu time spent up to now is       18.3 secs

     total energy              =     -48.58133529 Ry
     estimated scf accuracy    <       0.00014414 Ry

     iteration #  9     ecut=    50.00 Ry     beta= 0.20
     Davidson diagonalization with overlap
     ethr =  1.80E-06,  avg # of iterations =  1.0

     total cpu time spent up to now is       19.0 secs

     End of self-consistent calculation

          k = 0.0000 0.0000 0.0000 (  1243 PWs)   bands (ev):

   -23.9995  -3.1787  -3.1787  -3.1787

          k =-0.1000 0.1000-0.1000 (  1224 PWs)   bands (ev):

   -23.9890  -3.2280  -3.1584  -3.1584

          k =-0.2000 0.2000-0.2000 (  1215 PWs)   bands (ev):

   -23.9636  -3.5603  -3.1463  -3.1463

          k =-0.3000 0.3000-0.3000 (  1209 PWs)   bands (ev):

   -23.9323  -3.9103  -3.1574  -3.1574

          k =-0.4000 0.4000-0.4000 (  1209 PWs)   bands (ev):

   -23.9071  -4.1485  -3.1958  -3.1958

          k = 0.5000-0.5000 0.5000 (  1194 PWs)   bands (ev):

   -23.8967  -4.2202  -3.1680  -3.1680

          k = 0.0000 0.2000 0.0000 (  1227 PWs)   bands (ev):

   -23.9860  -3.2285  -3.1962  -3.1962

          k =-0.1000 0.3000-0.1000 (  1217 PWs)   bands (ev):

   -23.9655  -3.4715  -3.2016  -3.1796

          k =-0.2000 0.4000-0.2000 (  1222 PWs)   bands (ev):

   -23.9367  -3.8326  -3.2571  -3.2039

          k =-0.3000 0.5000-0.3000 (  1205 PWs)   bands (ev):

   -23.9086  -4.0606  -3.2372  -3.2278

          k = 0.6000-0.4000 0.6000 (  1200 PWs)   bands (ev):

   -23.8934  -4.1809  -3.2726  -3.2257

          k = 0.5000-0.3000 0.5000 (  1204 PWs)   bands (ev):

   -23.8969  -4.1566  -3.3223  -3.1853

          k = 0.4000-0.2000 0.4000 (  1199 PWs)   bands (ev):

   -23.9168  -3.9624  -3.2940  -3.1185

          k = 0.3000-0.1000 0.3000 (  1216 PWs)   bands (ev):

   -23.9468  -3.7057  -3.2687  -3.1319

          k = 0.2000 0.0000 0.2000 (  1219 PWs)   bands (ev):

   -23.9740  -3.3884  -3.2223  -3.1255

          k = 0.0000 0.4000 0.0000 (  1219 PWs)   bands (ev):

   -23.9518  -3.5482  -3.2701  -3.2701

          k =-0.1000 0.5000-0.1000 (  1219 PWs)   bands (ev):

   -23.9275  -3.8139  -3.3124  -3.3110

          k =-0.2000 0.6000-0.2000 (  1202 PWs)   bands (ev):

   -23.9012  -3.9811  -3.3746  -3.3105

          k = 0.7000-0.3000 0.7000 (  1211 PWs)   bands (ev):

   -23.8846  -4.1240  -3.4942  -3.3237

          k = 0.6000-0.2000 0.6000 (  1211 PWs)   bands (ev):

   -23.8827  -4.1032  -3.5811  -3.2764

          k = 0.5000-0.1000 0.5000 (  1199 PWs)   bands (ev):

   -23.8961  -3.9782  -3.5459  -3.1658

          k = 0.4000 0.0000 0.4000 (  1207 PWs)   bands (ev):

   -23.9210  -3.8493  -3.4425  -3.1155

          k = 0.0000 0.6000 0.0000 (  1214 PWs)   bands (ev):

   -23.9090  -3.9197  -3.3805  -3.3805

          k =-0.1000 0.7000-0.1000 (  1214 PWs)   bands (ev):

   -23.8883  -4.0772  -3.4631  -3.4275

          k = 0.8000-0.2000 0.8000 (  1207 PWs)   bands (ev):

   -23.8728  -4.1219  -3.5886  -3.4117

          k = 0.7000-0.1000 0.7000 (  1205 PWs)   bands (ev):

   -23.8689  -4.0307  -3.7665  -3.3514

          k = 0.6000-0.0000 0.6000 (  1204 PWs)   bands (ev):

   -23.8780  -3.9206  -3.8216  -3.2618

          k = 0.0000 0.8000 0.0000 (  1202 PWs)   bands (ev):

   -23.8731  -4.1837  -3.4553  -3.4553

          k = 0.9000-0.1000 0.9000 (  1201 PWs)   bands (ev):

   -23.8630  -4.2177  -3.5346  -3.4734

          k = 0.8000 0.0000 0.8000 (  1212 PWs)   bands (ev):

   -23.8618  -4.1480  -3.6964  -3.4694

          k = 0.0000-1.0000 0.0000 (  1186 PWs)   bands (ev):

   -23.8586  -4.2191  -3.4796  -3.4796

          k =-0.2000 0.4000 0.0000 (  1214 PWs)   bands (ev):

   -23.9433  -3.6871  -3.3028  -3.1668

          k =-0.3000 0.5000-0.1000 (  1215 PWs)   bands (ev):

   -23.9159  -3.9083  -3.4203  -3.2149

          k = 0.6000-0.4000 0.8000 (  1203 PWs)   bands (ev):

   -23.8930  -4.0751  -3.4427  -3.2342

          k = 0.5000-0.3000 0.7000 (  1200 PWs)   bands (ev):

   -23.8844  -4.1318  -3.4565  -3.2559

          k =-0.2000 0.6000 0.0000 (  1214 PWs)   bands (ev):

   -23.9047  -3.9539  -3.4430  -3.3270

          k = 0.7000-0.3000 0.9000 (  1211 PWs)   bands (ev):

   -23.8841  -4.0563  -3.5686  -3.3606

          k = 0.6000-0.2000 0.8000 (  1207 PWs)   bands (ev):

   -23.8733  -4.0618  -3.6795  -3.3565

          k = 0.5000-0.1000 0.7000 (  1208 PWs)   bands (ev):

   -23.8768  -4.0115  -3.7243  -3.3148

          k = 0.4000 0.0000 0.6000 (  1203 PWs)   bands (ev):

   -23.8928  -3.9564  -3.6022  -3.2299

          k = 0.8000-0.2000 1.0000 (  1205 PWs)   bands (ev):

   -23.8724  -4.1389  -3.5409  -3.4449

          k = 0.7000-0.1000 0.9000 (  1196 PWs)   bands (ev):

   -23.8634  -4.0986  -3.6755  -3.4079

          k = 0.6000 0.0000 0.8000 (  1193 PWs)   bands (ev):

   -23.8649  -3.9585  -3.8204  -3.3513

          k =-0.2000-1.0000 0.0000 (  1206 PWs)   bands (ev):

   -23.8600  -4.2060  -3.5905  -3.5096

          k = 0.6000-0.2000 1.0000 (  1203 PWs)   bands (ev):

   -23.8695  -4.0126  -3.7193  -3.4139

          k = 0.5000-0.1000 0.9000 (  1204 PWs)   bands (ev):

   -23.8641  -3.9575  -3.8480  -3.4241

          k =-0.4000-1.0000 0.0000 (  1202 PWs)   bands (ev):

   -23.8604  -4.0137  -3.8008  -3.4600

     highest occupied level (ev):    -3.1155

!    total energy              =     -48.58133652 Ry
     estimated scf accuracy    <       0.00000392 Ry

     The total energy is the sum of the following terms:
     one-electron contribution =     -33.44525298 Ry
     hartree contribution      =      20.81486005 Ry
     xc contribution           =      -9.71037601 Ry
     ewald contribution        =     -26.24056757 Ry

     convergence has been achieved in   9 iterations
     Writing meta-gga kinetic term

     Writing all to output data dir ./input_pw/LiF/13/pwscf.save/
     Writing meta-gga kinetic term
 
     init_run     :      1.08s CPU      2.43s WALL (       1 calls)
     electrons    :     11.19s CPU     16.48s WALL (       1 calls)

     Called by init_run:
     wfcinit      :      0.99s CPU      2.21s WALL (       1 calls)
     potinit      :      0.02s CPU      0.05s WALL (       1 calls)
     hinit0       :      0.06s CPU      0.16s WALL (       1 calls)

     Called by electrons:
     c_bands      :      8.75s CPU     12.91s WALL (       9 calls)
     sum_band     :      2.16s CPU      3.16s WALL (       9 calls)
     v_of_rho     :      0.15s CPU      0.24s WALL (      10 calls)
     mix_rho      :      0.14s CPU      0.21s WALL (       9 calls)

     Called by c_bands:
     init_us_2    :      0.05s CPU      0.10s WALL (     893 calls)
     init_us_2:cp :      0.05s CPU      0.10s WALL (     893 calls)
     cegterg      :      8.70s CPU     12.83s WALL (     423 calls)

     Called by *egterg:
     cdiaghg      :      0.04s CPU      0.07s WALL (     893 calls)
     h_psi        :      9.50s CPU     14.70s WALL (     940 calls)
     g_psi        :      0.01s CPU      0.01s WALL (     470 calls)

     Called by h_psi:
     h_psi:calbec :      0.02s CPU      0.02s WALL (     940 calls)
     vloc_psi     :      2.34s CPU      3.68s WALL (     940 calls)
     add_vuspsi   :      0.02s CPU      0.04s WALL (     940 calls)
     h_psi_meta   :      7.11s CPU     10.94s WALL (     940 calls)

     General routines
     calbec       :      0.01s CPU      0.01s WALL (     940 calls)
     fft          :      0.03s CPU      0.07s WALL (     117 calls)
     ffts         :      0.07s CPU      0.14s WALL (     270 calls)
     fftw         :     10.41s CPU     15.88s WALL (   37864 calls)
     interpolate  :      0.00s CPU      0.00s WALL (      10 calls)
 
     Parallel routines
 
     PWSCF        :     12.31s CPU     19.04s WALL

 
   This run was terminated on:  14:24: 4   7Jul2023            

=------------------------------------------------------------------------------=
   JOB DONE.
=------------------------------------------------------------------------------=
