
     Program PWSCF v.7.0 starts on 29Mar2023 at 11:45:51 

     This program is part of the open-source Quantum ESPRESSO suite
     for quantum simulation of materials; please cite
         "P. Giannozzi et al., J. Phys.:Condens. Matter 21 395502 (2009);
         "P. Giannozzi et al., J. Phys.:Condens. Matter 29 465901 (2017);
         "P. Giannozzi et al., J. Chem. Phys. 152 154105 (2020);
          URL http://www.quantum-espresso.org", 
     in publications or presentations arising from this work. More details at
     http://www.quantum-espresso.org/quote

     Parallel version (MPI), running on     1 processors

     MPI processes distributed on     1 nodes
     23517 MiB available memory on the printing compute node when the environment starts
 
     Waiting for input...
     Reading input from standard input
Warning: card &CELL ignored
Warning: card / ignored

     Current dimensions of program PWSCF are:
     Max number of different atomic species (ntypx) = 10
     Max number of k-points (npk) =  40000
     Max angular momentum in pseudopotentials (lmaxx) =  4
     file Ge.SCAN.UPF2: wavefunction(s)  0D renormalized

     WARNING: the MGGA functional with ID    5 has been 
     read together with other dft terms, but it should 
     stand alone in order to work properly. The other 
     terms will be ignored.

     Subspace diagonalization in iterative solution of the eigenvalue problem:
     a serial algorithm will be used

 
     G-vector sticks info
     --------------------
     sticks:   dense  smooth     PW     G-vecs:    dense   smooth      PW
     Sum         931     931    283                18907    18907    3143
 
     Using Slab Decomposition
 


     bravais-lattice index     =            2
     lattice parameter (alat)  =      11.6739  a.u.
     unit-cell volume          =     397.7339 (a.u.)^3
     number of atoms/cell      =            2
     number of atomic types    =            1
     number of electrons       =         8.00
     number of Kohn-Sham states=            4
     kinetic-energy cutoff     =      50.0000  Ry
     charge density cutoff     =     200.0000  Ry
     scf convergence threshold =      1.0E-06
     mixing beta               =       0.0100
     number of iterations used =            8  local-TF  mixing
     Exchange-correlation= SLA  PW  SCAN SCAN
                           (   0   0   0   0   0 263 267)

     celldm(1)=  11.673942  celldm(2)=   0.000000  celldm(3)=   0.000000
     celldm(4)=   0.000000  celldm(5)=   0.000000  celldm(6)=   0.000000

     crystal axes: (cart. coord. in units of alat)
               a(1) = (  -0.500000   0.000000   0.500000 )  
               a(2) = (   0.000000   0.500000   0.500000 )  
               a(3) = (  -0.500000   0.500000   0.000000 )  

     reciprocal axes: (cart. coord. in units 2 pi/alat)
               b(1) = ( -1.000000 -1.000000  1.000000 )  
               b(2) = (  1.000000  1.000000  1.000000 )  
               b(3) = ( -1.000000  1.000000 -1.000000 )  


     PseudoPot. # 1 for Ge read from file:
     ~/Documents/TA/PWDFT.jl/pseudopotentials/scan_upf/Ge.SCAN.UPF2
     MD5 check sum: Not computed, couldn't open file
     Pseudo is Norm-conserving, Zval =  4.0
     Generated by new atomic code, or converted to UPF format
     Using radial grid of 1557 points,  2 beta functions with: 
                l(1) =   0
                l(2) =   1

     atomic species   valence    mass     pseudopotential
        Ge             4.00    72.64000     Ge( 1.00)

     48 Sym. Ops., with inversion, found (24 have fractional translation)



   Cartesian axes

     site n.     atom                  positions (alat units)
         1           Ge  tau(   1) = (   0.0000000   0.0000000   0.0000000  )
         2           Ge  tau(   2) = (   0.2500000   0.2500000   0.2500000  )

     number of k points=    47
                       cart. coord. in units 2pi/alat
        k(    1) = (   0.0000000   0.0000000   0.0000000), wk =   0.0020000
        k(    2) = (  -0.1000000   0.1000000  -0.1000000), wk =   0.0160000
        k(    3) = (  -0.2000000   0.2000000  -0.2000000), wk =   0.0160000
        k(    4) = (  -0.3000000   0.3000000  -0.3000000), wk =   0.0160000
        k(    5) = (  -0.4000000   0.4000000  -0.4000000), wk =   0.0160000
        k(    6) = (   0.5000000  -0.5000000   0.5000000), wk =   0.0080000
        k(    7) = (   0.0000000   0.2000000   0.0000000), wk =   0.0120000
        k(    8) = (  -0.1000000   0.3000000  -0.1000000), wk =   0.0480000
        k(    9) = (  -0.2000000   0.4000000  -0.2000000), wk =   0.0480000
        k(   10) = (  -0.3000000   0.5000000  -0.3000000), wk =   0.0480000
        k(   11) = (   0.6000000  -0.4000000   0.6000000), wk =   0.0480000
        k(   12) = (   0.5000000  -0.3000000   0.5000000), wk =   0.0480000
        k(   13) = (   0.4000000  -0.2000000   0.4000000), wk =   0.0480000
        k(   14) = (   0.3000000  -0.1000000   0.3000000), wk =   0.0480000
        k(   15) = (   0.2000000   0.0000000   0.2000000), wk =   0.0240000
        k(   16) = (   0.0000000   0.4000000   0.0000000), wk =   0.0120000
        k(   17) = (  -0.1000000   0.5000000  -0.1000000), wk =   0.0480000
        k(   18) = (  -0.2000000   0.6000000  -0.2000000), wk =   0.0480000
        k(   19) = (   0.7000000  -0.3000000   0.7000000), wk =   0.0480000
        k(   20) = (   0.6000000  -0.2000000   0.6000000), wk =   0.0480000
        k(   21) = (   0.5000000  -0.1000000   0.5000000), wk =   0.0480000
        k(   22) = (   0.4000000   0.0000000   0.4000000), wk =   0.0240000
        k(   23) = (   0.0000000   0.6000000   0.0000000), wk =   0.0120000
        k(   24) = (  -0.1000000   0.7000000  -0.1000000), wk =   0.0480000
        k(   25) = (   0.8000000  -0.2000000   0.8000000), wk =   0.0480000
        k(   26) = (   0.7000000  -0.1000000   0.7000000), wk =   0.0480000
        k(   27) = (   0.6000000  -0.0000000   0.6000000), wk =   0.0240000
        k(   28) = (   0.0000000   0.8000000   0.0000000), wk =   0.0120000
        k(   29) = (   0.9000000  -0.1000000   0.9000000), wk =   0.0480000
        k(   30) = (   0.8000000   0.0000000   0.8000000), wk =   0.0240000
        k(   31) = (   0.0000000  -1.0000000   0.0000000), wk =   0.0060000
        k(   32) = (  -0.2000000   0.4000000   0.0000000), wk =   0.0480000
        k(   33) = (  -0.3000000   0.5000000  -0.1000000), wk =   0.0960000
        k(   34) = (   0.6000000  -0.4000000   0.8000000), wk =   0.0960000
        k(   35) = (   0.5000000  -0.3000000   0.7000000), wk =   0.0480000
        k(   36) = (  -0.2000000   0.6000000   0.0000000), wk =   0.0480000
        k(   37) = (   0.7000000  -0.3000000   0.9000000), wk =   0.0960000
        k(   38) = (   0.6000000  -0.2000000   0.8000000), wk =   0.0960000
        k(   39) = (   0.5000000  -0.1000000   0.7000000), wk =   0.0960000
        k(   40) = (   0.4000000   0.0000000   0.6000000), wk =   0.0480000
        k(   41) = (   0.8000000  -0.2000000   1.0000000), wk =   0.0480000
        k(   42) = (   0.7000000  -0.1000000   0.9000000), wk =   0.0960000
        k(   43) = (   0.6000000   0.0000000   0.8000000), wk =   0.0480000
        k(   44) = (  -0.2000000  -1.0000000   0.0000000), wk =   0.0240000
        k(   45) = (   0.6000000  -0.2000000   1.0000000), wk =   0.0480000
        k(   46) = (   0.5000000  -0.1000000   0.9000000), wk =   0.0480000
        k(   47) = (  -0.4000000  -1.0000000   0.0000000), wk =   0.0240000

     Dense  grid:    18907 G-vectors     FFT dimensions: (  40,  40,  40)

     Estimated max dynamical RAM per process >      36.09 MB

     WARNING: libxc functional with ID  263 depends
      on external parameters: check the user_guide of
      QE if you need to modify them or to check their
      default values.

     Initial potential from superposition of free atoms

     starting charge       7.9987, renormalised to       8.0000
     Starting wfcs are   18 randomized atomic wfcs

     total cpu time spent up to now is       12.5 secs

     Self-consistent Calculation

     iteration #  1     ecut=    50.00 Ry     beta= 0.01
     Davidson diagonalization with overlap
     ethr =  1.00E-02,  avg # of iterations =  1.7

     Threshold (ethr) on eigenvalues was too large:
     Diagonalizing with lowered threshold

     Davidson diagonalization with overlap
     ethr =  2.61E-04,  avg # of iterations =  6.0

     total cpu time spent up to now is       36.9 secs

     total energy              =     -15.73517867 Ry
     estimated scf accuracy    <       0.02694808 Ry

     iteration #  2     ecut=    50.00 Ry     beta= 0.01
     Davidson diagonalization with overlap
     ethr =  3.37E-04,  avg # of iterations =  1.0

     total cpu time spent up to now is       44.0 secs

     total energy              =     -15.73595771 Ry
     estimated scf accuracy    <       0.02698400 Ry

     iteration #  3     ecut=    50.00 Ry     beta= 0.01
     Davidson diagonalization with overlap
     ethr =  3.37E-04,  avg # of iterations =  1.0

     total cpu time spent up to now is       51.3 secs

     total energy              =     -15.78607009 Ry
     estimated scf accuracy    <       0.02906645 Ry

     iteration #  4     ecut=    50.00 Ry     beta= 0.01
     Davidson diagonalization with overlap
     ethr =  3.37E-04,  avg # of iterations =  1.7

     total cpu time spent up to now is       59.4 secs

     total energy              =     -15.78792861 Ry
     estimated scf accuracy    <       0.00255136 Ry

     iteration #  5     ecut=    50.00 Ry     beta= 0.01
     Davidson diagonalization with overlap
     ethr =  3.19E-05,  avg # of iterations =  6.1

     total cpu time spent up to now is       74.5 secs

     total energy              =     -15.78965531 Ry
     estimated scf accuracy    <       0.00325649 Ry

     iteration #  6     ecut=    50.00 Ry     beta= 0.01
     Davidson diagonalization with overlap
     ethr =  3.19E-05,  avg # of iterations =  1.3

     total cpu time spent up to now is       81.0 secs

     total energy              =     -15.78908031 Ry
     estimated scf accuracy    <       0.00347763 Ry

     iteration #  7     ecut=    50.00 Ry     beta= 0.01
     Davidson diagonalization with overlap
     ethr =  3.19E-05,  avg # of iterations =  1.4

     total cpu time spent up to now is       88.5 secs

     total energy              =     -15.78925854 Ry
     estimated scf accuracy    <       0.00030681 Ry

     iteration #  8     ecut=    50.00 Ry     beta= 0.01
     Davidson diagonalization with overlap
     ethr =  3.84E-06,  avg # of iterations =  8.0

     total cpu time spent up to now is      107.5 secs

     total energy              =     -15.78964764 Ry
     estimated scf accuracy    <       0.00028327 Ry

     iteration #  9     ecut=    50.00 Ry     beta= 0.01
     Davidson diagonalization with overlap
     ethr =  3.54E-06,  avg # of iterations =  1.6

     total cpu time spent up to now is      113.8 secs

     total energy              =     -15.78966881 Ry
     estimated scf accuracy    <       0.00019260 Ry

     iteration # 10     ecut=    50.00 Ry     beta= 0.01
     Davidson diagonalization with overlap
     ethr =  2.41E-06,  avg # of iterations =  1.3

     total cpu time spent up to now is      120.0 secs

     total energy              =     -15.78967088 Ry
     estimated scf accuracy    <       0.00018627 Ry

     iteration # 11     ecut=    50.00 Ry     beta= 0.01
     Davidson diagonalization with overlap
     ethr =  2.33E-06,  avg # of iterations =  1.0

     total cpu time spent up to now is      127.0 secs

     total energy              =     -15.78971770 Ry
     estimated scf accuracy    <       0.00018563 Ry

     iteration # 12     ecut=    50.00 Ry     beta= 0.01
     Davidson diagonalization with overlap
     ethr =  2.32E-06,  avg # of iterations =  2.6

     total cpu time spent up to now is      135.2 secs

     total energy              =     -15.78974401 Ry
     estimated scf accuracy    <       0.00034005 Ry

     iteration # 13     ecut=    50.00 Ry     beta= 0.01
     Davidson diagonalization with overlap
     ethr =  2.32E-06,  avg # of iterations =  2.6

     total cpu time spent up to now is      141.3 secs

     total energy              =     -15.78993435 Ry
     estimated scf accuracy    <       0.00060053 Ry

     iteration # 14     ecut=    50.00 Ry     beta= 0.01
     Davidson diagonalization with overlap
     ethr =  2.32E-06,  avg # of iterations =  1.7

     total cpu time spent up to now is      147.4 secs

     total energy              =     -15.78702289 Ry
     estimated scf accuracy    <       0.00089037 Ry

     iteration # 15     ecut=    50.00 Ry     beta= 0.01
     Davidson diagonalization with overlap
     ethr =  2.32E-06,  avg # of iterations =  9.6

     total cpu time spent up to now is      164.1 secs

     total energy              =     -15.78742079 Ry
     estimated scf accuracy    <       0.00185577 Ry

     iteration # 16     ecut=    50.00 Ry     beta= 0.01
     Davidson diagonalization with overlap
     ethr =  2.32E-06,  avg # of iterations =  1.5

     total cpu time spent up to now is      169.8 secs

     total energy              =     -15.78914615 Ry
     estimated scf accuracy    <       0.00197919 Ry

     iteration # 17     ecut=    50.00 Ry     beta= 0.01
     Davidson diagonalization with overlap
     ethr =  2.32E-06,  avg # of iterations =  7.7

     total cpu time spent up to now is      183.7 secs

     total energy              =     -15.78963749 Ry
     estimated scf accuracy    <       0.00000981 Ry

     iteration # 18     ecut=    50.00 Ry     beta= 0.01
     Davidson diagonalization with overlap
     ethr =  1.23E-07,  avg # of iterations = 10.4

     total cpu time spent up to now is      198.3 secs

     total energy              =     -15.78965525 Ry
     estimated scf accuracy    <       0.00000870 Ry

     iteration # 19     ecut=    50.00 Ry     beta= 0.01
     Davidson diagonalization with overlap
     ethr =  1.09E-07,  avg # of iterations =  4.4

     total cpu time spent up to now is      204.9 secs

     total energy              =     -15.78965441 Ry
     estimated scf accuracy    <       0.00000620 Ry

     iteration # 20     ecut=    50.00 Ry     beta= 0.01
     Davidson diagonalization with overlap
     ethr =  7.75E-08,  avg # of iterations =  4.4

     total cpu time spent up to now is      211.4 secs

     total energy              =     -15.78967136 Ry
     estimated scf accuracy    <       0.00001306 Ry

     iteration # 21     ecut=    50.00 Ry     beta= 0.01
     Davidson diagonalization with overlap
     ethr =  7.75E-08,  avg # of iterations =  1.3

     total cpu time spent up to now is      213.5 secs

     total energy              =     -15.78966259 Ry
     estimated scf accuracy    <       0.00001932 Ry

     iteration # 22     ecut=    50.00 Ry     beta= 0.01
     Davidson diagonalization with overlap
     ethr =  7.75E-08,  avg # of iterations =  1.0

     total cpu time spent up to now is      215.5 secs

     total energy              =     -15.78965532 Ry
     estimated scf accuracy    <       0.00001176 Ry

     iteration # 23     ecut=    50.00 Ry     beta= 0.01
     Davidson diagonalization with overlap
     ethr =  7.75E-08,  avg # of iterations =  1.2

     total cpu time spent up to now is      217.4 secs

     total energy              =     -15.78968886 Ry
     estimated scf accuracy    <       0.00001193 Ry

     iteration # 24     ecut=    50.00 Ry     beta= 0.01
     Davidson diagonalization with overlap
     ethr =  7.75E-08,  avg # of iterations =  5.7

     total cpu time spent up to now is      221.9 secs

     total energy              =     -15.78969291 Ry
     estimated scf accuracy    <       0.00001283 Ry

     iteration # 25     ecut=    50.00 Ry     beta= 0.01
     Davidson diagonalization with overlap
     ethr =  7.75E-08,  avg # of iterations =  2.0

     total cpu time spent up to now is      224.2 secs

     total energy              =     -15.78969026 Ry
     estimated scf accuracy    <       0.00001169 Ry

     iteration # 26     ecut=    50.00 Ry     beta= 0.01
     Davidson diagonalization with overlap
     ethr =  7.75E-08,  avg # of iterations =  3.8

     total cpu time spent up to now is      227.5 secs

     total energy              =     -15.78970371 Ry
     estimated scf accuracy    <       0.00000542 Ry

     iteration # 27     ecut=    50.00 Ry     beta= 0.01
     Davidson diagonalization with overlap
     ethr =  6.78E-08,  avg # of iterations =  1.9

     total cpu time spent up to now is      229.9 secs

     total energy              =     -15.78970433 Ry
     estimated scf accuracy    <       0.00000103 Ry

     iteration # 28     ecut=    50.00 Ry     beta= 0.01
     Davidson diagonalization with overlap
     ethr =  1.28E-08,  avg # of iterations =  4.3

     total cpu time spent up to now is      233.0 secs

     total energy              =     -15.78970485 Ry
     estimated scf accuracy    <       0.00000124 Ry

     iteration # 29     ecut=    50.00 Ry     beta= 0.01
     Davidson diagonalization with overlap
     ethr =  1.28E-08,  avg # of iterations =  1.0

     total cpu time spent up to now is      234.9 secs

     total energy              =     -15.78970468 Ry
     estimated scf accuracy    <       0.00000161 Ry

     iteration # 30     ecut=    50.00 Ry     beta= 0.01
     Davidson diagonalization with overlap
     ethr =  1.28E-08,  avg # of iterations =  1.0

     total cpu time spent up to now is      236.8 secs

     End of self-consistent calculation

          k = 0.0000 0.0000 0.0000 (  2421 PWs)   bands (ev):

    -8.1831   1.3143   3.1603   3.1603

          k =-0.1000 0.1000-0.1000 (  2376 PWs)   bands (ev):

    -8.0863   0.5153   3.0003   3.0003

          k =-0.2000 0.2000-0.2000 (  2379 PWs)   bands (ev):

    -7.8035  -0.8480   2.6726   2.6726

          k =-0.3000 0.3000-0.3000 (  2373 PWs)   bands (ev):

    -7.3661  -2.1720   2.3666   2.3666

          k =-0.4000 0.4000-0.4000 (  2397 PWs)   bands (ev):

    -6.8735  -3.2264   2.1646   2.1646

          k = 0.5000-0.5000 0.5000 (  2362 PWs)   bands (ev):

    -6.6142  -3.6770   2.0951   2.0951

          k = 0.0000 0.2000 0.0000 (  2373 PWs)   bands (ev):

    -8.0536   0.3720   2.7294   2.7294

          k =-0.1000 0.3000-0.1000 (  2376 PWs)   bands (ev):

    -7.8309  -0.6400   2.3436   2.3705

          k =-0.2000 0.4000-0.2000 (  2375 PWs)   bands (ev):

    -7.4391  -1.8752   1.8889   2.0821

          k =-0.3000 0.5000-0.3000 (  2387 PWs)   bands (ev):

    -6.9441  -2.9875   1.5078   1.9278

          k = 0.6000-0.4000 0.6000 (  2370 PWs)   bands (ev):

    -6.5567  -3.6688   1.2743   1.9261

          k = 0.5000-0.3000 0.5000 (  2383 PWs)   bands (ev):

    -6.6518  -3.5129   1.2159   2.0726

          k = 0.4000-0.2000 0.4000 (  2389 PWs)   bands (ev):

    -7.1153  -2.6418   1.3500   2.3442

          k = 0.3000-0.1000 0.3000 (  2376 PWs)   bands (ev):

    -7.5882  -1.4697   1.6972   2.6863

          k = 0.2000 0.0000 0.2000 (  2359 PWs)   bands (ev):

    -7.9267  -0.2881   2.2865   2.9737

          k = 0.0000 0.4000 0.0000 (  2377 PWs)   bands (ev):

    -7.6681  -1.0836   1.9932   1.9932

          k =-0.1000 0.5000-0.1000 (  2364 PWs)   bands (ev):

    -7.3275  -1.9741   1.5177   1.6950

          k =-0.2000 0.6000-0.2000 (  2374 PWs)   bands (ev):

    -6.8512  -2.9545   0.9533   1.5420

          k = 0.7000-0.3000 0.7000 (  2364 PWs)   bands (ev):

    -6.3806  -3.7261   0.5266   1.5550

          k = 0.6000-0.2000 0.6000 (  2372 PWs)   bands (ev):

    -6.2989  -3.8445   0.3280   1.7299

          k = 0.5000-0.1000 0.5000 (  2376 PWs)   bands (ev):

    -6.7084  -3.2131   0.4114   2.0375

          k = 0.4000 0.0000 0.4000 (  2383 PWs)   bands (ev):

    -7.2037  -2.3133   0.8485   2.4069

          k = 0.0000 0.6000 0.0000 (  2393 PWs)   bands (ev):

    -7.0369  -2.5288   1.3733   1.3733

          k =-0.1000 0.7000-0.1000 (  2381 PWs)   bands (ev):

    -6.5920  -3.2910   0.9167   1.1943

          k = 0.8000-0.2000 0.8000 (  2370 PWs)   bands (ev):

    -6.0792  -4.0119   0.3320   1.1861

          k = 0.7000-0.1000 0.7000 (  2372 PWs)   bands (ev):

    -5.8433  -4.2992  -0.0469   1.3485

          k = 0.6000-0.0000 0.6000 (  2361 PWs)   bands (ev):

    -6.2065  -3.8555  -0.0553   1.6554

          k = 0.0000 0.8000 0.0000 (  2369 PWs)   bands (ev):

    -6.1775  -3.8870   0.9792   0.9792

          k = 0.9000-0.1000 0.9000 (  2377 PWs)   bands (ev):

    -5.6518  -4.5283   0.6065   0.9335

          k = 0.8000 0.0000 0.8000 (  2380 PWs)   bands (ev):

    -5.3854  -4.7995   0.1167   1.0632

          k = 0.0000-1.0000 0.0000 (  2346 PWs)   bands (ev):

    -5.1161  -5.1161   0.8451   0.8451

          k =-0.2000 0.4000 0.0000 (  2377 PWs)   bands (ev):

    -7.5504  -1.4805   1.5531   2.2824

          k =-0.3000 0.5000-0.1000 (  2378 PWs)   bands (ev):

    -7.1142  -2.4996   0.9914   2.0071

          k = 0.6000-0.4000 0.8000 (  2379 PWs)   bands (ev):

    -6.6150  -3.4161   0.6822   1.7622

          k = 0.5000-0.3000 0.7000 (  2380 PWs)   bands (ev):

    -6.3447  -3.8357   0.5851   1.6697

          k =-0.2000 0.6000 0.0000 (  2377 PWs)   bands (ev):

    -6.9370  -2.7364   0.9690   1.4822

          k = 0.7000-0.3000 0.9000 (  2380 PWs)   bands (ev):

    -6.4349  -3.5435   0.4724   1.2628

          k = 0.6000-0.2000 0.8000 (  2372 PWs)   bands (ev):

    -6.0272  -4.0995   0.1458   1.2235

          k = 0.5000-0.1000 0.7000 (  2371 PWs)   bands (ev):

    -6.1590  -3.9278   0.0743   1.3913

          k = 0.4000 0.0000 0.6000 (  2378 PWs)   bands (ev):

    -6.6487  -3.2417   0.3380   1.7041

          k = 0.8000-0.2000 1.0000 (  2374 PWs)   bands (ev):

    -6.1093  -3.9607   0.6465   0.9062

          k = 0.7000-0.1000 0.9000 (  2371 PWs)   bands (ev):

    -5.6103  -4.5431   0.2048   0.8380

          k = 0.6000 0.0000 0.8000 (  2361 PWs)   bands (ev):

    -5.6646  -4.4754  -0.0689   1.0355

          k =-0.2000-1.0000 0.0000 (  2376 PWs)   bands (ev):

    -5.1020  -5.1020   0.6222   0.6222

          k = 0.6000-0.2000 1.0000 (  2378 PWs)   bands (ev):

    -5.9227  -4.1723   0.1483   0.8824

          k = 0.5000-0.1000 0.9000 (  2360 PWs)   bands (ev):

    -5.5831  -4.5541   0.0522   0.7093

          k =-0.4000-1.0000 0.0000 (  2366 PWs)   bands (ev):

    -5.0786  -5.0786   0.3296   0.3296

     highest occupied level (ev):     3.1603

!    total energy              =     -15.78970428 Ry
     estimated scf accuracy    <       0.00000028 Ry

     The total energy is the sum of the following terms:
     one-electron contribution =       1.94421637 Ry
     hartree contribution      =       1.46404471 Ry
     xc contribution           =      -4.43195576 Ry
     ewald contribution        =     -14.76600960 Ry

     convergence has been achieved in  30 iterations
     Writing meta-gga kinetic term

     Writing all to output data dir ./input_pw/Ge/8/pwscf.save/
     Writing meta-gga kinetic term
 
     init_run     :      5.90s CPU     12.40s WALL (       1 calls)
     electrons    :    156.34s CPU    224.34s WALL (       1 calls)

     Called by init_run:
     wfcinit      :      5.76s CPU     11.94s WALL (       1 calls)
     potinit      :      0.05s CPU      0.17s WALL (       1 calls)
     hinit0       :      0.07s CPU      0.21s WALL (       1 calls)

     Called by electrons:
     c_bands      :    132.88s CPU    190.56s WALL (      31 calls)
     sum_band     :     20.82s CPU     30.01s WALL (      31 calls)
     v_of_rho     :      1.29s CPU      1.99s WALL (      31 calls)
     mix_rho      :      1.32s CPU      1.86s WALL (      31 calls)

     Called by c_bands:
     init_us_2    :      0.86s CPU      1.33s WALL (    2961 calls)
     init_us_2:cp :      0.85s CPU      1.30s WALL (    2961 calls)
     cegterg      :    131.79s CPU    188.85s WALL (    1457 calls)

     Called by *egterg:
     cdiaghg      :      0.54s CPU      0.79s WALL (    6130 calls)
     h_psi        :    134.37s CPU    196.24s WALL (    6224 calls)
     g_psi        :      0.12s CPU      0.15s WALL (    4720 calls)

     Called by h_psi:
     h_psi:calbec :      0.75s CPU      1.03s WALL (    6224 calls)
     vloc_psi     :     33.40s CPU     49.92s WALL (    6224 calls)
     add_vuspsi   :      0.50s CPU      0.80s WALL (    6224 calls)
     h_psi_meta   :     99.51s CPU    144.23s WALL (    6224 calls)

     General routines
     calbec       :      0.72s CPU      1.01s WALL (    6224 calls)
     fft          :      0.25s CPU      0.41s WALL (     371 calls)
     ffts         :      0.38s CPU      0.56s WALL (     567 calls)
     fftw         :    121.69s CPU    177.71s WALL (  186272 calls)
     interpolate  :      0.01s CPU      0.01s WALL (      31 calls)
 
     Parallel routines
 
     PWSCF        :   2m42.28s CPU   3m56.82s WALL

 
   This run was terminated on:  11:49:47  29Mar2023            

=------------------------------------------------------------------------------=
   JOB DONE.
=------------------------------------------------------------------------------=
