
     Program PWSCF v.7.0 starts on 14Mar2023 at 11:36:59 

     This program is part of the open-source Quantum ESPRESSO suite
     for quantum simulation of materials; please cite
         "P. Giannozzi et al., J. Phys.:Condens. Matter 21 395502 (2009);
         "P. Giannozzi et al., J. Phys.:Condens. Matter 29 465901 (2017);
         "P. Giannozzi et al., J. Chem. Phys. 152 154105 (2020);
          URL http://www.quantum-espresso.org", 
     in publications or presentations arising from this work. More details at
     http://www.quantum-espresso.org/quote

     Parallel version (MPI), running on     1 processors

     MPI processes distributed on     1 nodes
     27582 MiB available memory on the printing compute node when the environment starts
 
     Waiting for input...
     Reading input from standard input
Warning: card &CELL ignored
Warning: card / ignored

     Current dimensions of program PWSCF are:
     Max number of different atomic species (ntypx) = 10
     Max number of k-points (npk) =  40000
     Max angular momentum in pseudopotentials (lmaxx) =  4
     file Ge.SCAN.UPF2: wavefunction(s)  0D renormalized

     WARNING: the MGGA functional with ID    5 has been 
     read together with other dft terms, but it should 
     stand alone in order to work properly. The other 
     terms will be ignored.

     Subspace diagonalization in iterative solution of the eigenvalue problem:
     a serial algorithm will be used

 
     G-vector sticks info
     --------------------
     sticks:   dense  smooth     PW     G-vecs:    dense   smooth      PW
     Sum         955     955    295                19795    19795    3287
 
     Using Slab Decomposition
 


     bravais-lattice index     =            2
     lattice parameter (alat)  =      11.8512  a.u.
     unit-cell volume          =     416.1280 (a.u.)^3
     number of atoms/cell      =            2
     number of atomic types    =            1
     number of electrons       =         8.00
     number of Kohn-Sham states=            4
     kinetic-energy cutoff     =      50.0000  Ry
     charge density cutoff     =     200.0000  Ry
     scf convergence threshold =      1.0E-06
     mixing beta               =       0.0100
     number of iterations used =            8  local-TF  mixing
     Exchange-correlation= SLA  PW  SCAN SCAN
                           (   0   0   0   0   0 263 267)

     celldm(1)=  11.851200  celldm(2)=   0.000000  celldm(3)=   0.000000
     celldm(4)=   0.000000  celldm(5)=   0.000000  celldm(6)=   0.000000

     crystal axes: (cart. coord. in units of alat)
               a(1) = (  -0.500000   0.000000   0.500000 )  
               a(2) = (   0.000000   0.500000   0.500000 )  
               a(3) = (  -0.500000   0.500000   0.000000 )  

     reciprocal axes: (cart. coord. in units 2 pi/alat)
               b(1) = ( -1.000000 -1.000000  1.000000 )  
               b(2) = (  1.000000  1.000000  1.000000 )  
               b(3) = ( -1.000000  1.000000 -1.000000 )  


     PseudoPot. # 1 for Ge read from file:
     ~/Documents/TA/PWDFT.jl/pseudopotentials/scan_upf/Ge.SCAN.UPF2
     MD5 check sum: Not computed, couldn't open file
     Pseudo is Norm-conserving, Zval =  4.0
     Generated by new atomic code, or converted to UPF format
     Using radial grid of 1557 points,  2 beta functions with: 
                l(1) =   0
                l(2) =   1

     atomic species   valence    mass     pseudopotential
        Ge             4.00    72.64000     Ge( 1.00)

     48 Sym. Ops., with inversion, found (24 have fractional translation)



   Cartesian axes

     site n.     atom                  positions (alat units)
         1           Ge  tau(   1) = (   0.0000000   0.0000000   0.0000000  )
         2           Ge  tau(   2) = (   0.2500000   0.2500000   0.2500000  )

     number of k points=    47
                       cart. coord. in units 2pi/alat
        k(    1) = (   0.0000000   0.0000000   0.0000000), wk =   0.0020000
        k(    2) = (  -0.1000000   0.1000000  -0.1000000), wk =   0.0160000
        k(    3) = (  -0.2000000   0.2000000  -0.2000000), wk =   0.0160000
        k(    4) = (  -0.3000000   0.3000000  -0.3000000), wk =   0.0160000
        k(    5) = (  -0.4000000   0.4000000  -0.4000000), wk =   0.0160000
        k(    6) = (   0.5000000  -0.5000000   0.5000000), wk =   0.0080000
        k(    7) = (   0.0000000   0.2000000   0.0000000), wk =   0.0120000
        k(    8) = (  -0.1000000   0.3000000  -0.1000000), wk =   0.0480000
        k(    9) = (  -0.2000000   0.4000000  -0.2000000), wk =   0.0480000
        k(   10) = (  -0.3000000   0.5000000  -0.3000000), wk =   0.0480000
        k(   11) = (   0.6000000  -0.4000000   0.6000000), wk =   0.0480000
        k(   12) = (   0.5000000  -0.3000000   0.5000000), wk =   0.0480000
        k(   13) = (   0.4000000  -0.2000000   0.4000000), wk =   0.0480000
        k(   14) = (   0.3000000  -0.1000000   0.3000000), wk =   0.0480000
        k(   15) = (   0.2000000   0.0000000   0.2000000), wk =   0.0240000
        k(   16) = (   0.0000000   0.4000000   0.0000000), wk =   0.0120000
        k(   17) = (  -0.1000000   0.5000000  -0.1000000), wk =   0.0480000
        k(   18) = (  -0.2000000   0.6000000  -0.2000000), wk =   0.0480000
        k(   19) = (   0.7000000  -0.3000000   0.7000000), wk =   0.0480000
        k(   20) = (   0.6000000  -0.2000000   0.6000000), wk =   0.0480000
        k(   21) = (   0.5000000  -0.1000000   0.5000000), wk =   0.0480000
        k(   22) = (   0.4000000   0.0000000   0.4000000), wk =   0.0240000
        k(   23) = (   0.0000000   0.6000000   0.0000000), wk =   0.0120000
        k(   24) = (  -0.1000000   0.7000000  -0.1000000), wk =   0.0480000
        k(   25) = (   0.8000000  -0.2000000   0.8000000), wk =   0.0480000
        k(   26) = (   0.7000000  -0.1000000   0.7000000), wk =   0.0480000
        k(   27) = (   0.6000000  -0.0000000   0.6000000), wk =   0.0240000
        k(   28) = (   0.0000000   0.8000000   0.0000000), wk =   0.0120000
        k(   29) = (   0.9000000  -0.1000000   0.9000000), wk =   0.0480000
        k(   30) = (   0.8000000   0.0000000   0.8000000), wk =   0.0240000
        k(   31) = (   0.0000000  -1.0000000   0.0000000), wk =   0.0060000
        k(   32) = (  -0.2000000   0.4000000   0.0000000), wk =   0.0480000
        k(   33) = (  -0.3000000   0.5000000  -0.1000000), wk =   0.0960000
        k(   34) = (   0.6000000  -0.4000000   0.8000000), wk =   0.0960000
        k(   35) = (   0.5000000  -0.3000000   0.7000000), wk =   0.0480000
        k(   36) = (  -0.2000000   0.6000000   0.0000000), wk =   0.0480000
        k(   37) = (   0.7000000  -0.3000000   0.9000000), wk =   0.0960000
        k(   38) = (   0.6000000  -0.2000000   0.8000000), wk =   0.0960000
        k(   39) = (   0.5000000  -0.1000000   0.7000000), wk =   0.0960000
        k(   40) = (   0.4000000   0.0000000   0.6000000), wk =   0.0480000
        k(   41) = (   0.8000000  -0.2000000   1.0000000), wk =   0.0480000
        k(   42) = (   0.7000000  -0.1000000   0.9000000), wk =   0.0960000
        k(   43) = (   0.6000000   0.0000000   0.8000000), wk =   0.0480000
        k(   44) = (  -0.2000000  -1.0000000   0.0000000), wk =   0.0240000
        k(   45) = (   0.6000000  -0.2000000   1.0000000), wk =   0.0480000
        k(   46) = (   0.5000000  -0.1000000   0.9000000), wk =   0.0480000
        k(   47) = (  -0.4000000  -1.0000000   0.0000000), wk =   0.0240000

     Dense  grid:    19795 G-vectors     FFT dimensions: (  40,  40,  40)

     Estimated max dynamical RAM per process >      37.43 MB

     WARNING: libxc functional with ID  263 depends
      on external parameters: check the user_guide of
      QE if you need to modify them or to check their
      default values.

     Initial potential from superposition of free atoms

     starting charge       7.9987, renormalised to       8.0000
     Starting wfcs are   18 randomized atomic wfcs

     total cpu time spent up to now is       12.6 secs

     Self-consistent Calculation

     iteration #  1     ecut=    50.00 Ry     beta= 0.01
     Davidson diagonalization with overlap
     ethr =  1.00E-02,  avg # of iterations =  1.6

     Threshold (ethr) on eigenvalues was too large:
     Diagonalizing with lowered threshold

     Davidson diagonalization with overlap
     ethr =  2.44E-04,  avg # of iterations =  6.1

     total cpu time spent up to now is       35.7 secs

     total energy              =     -15.72769076 Ry
     estimated scf accuracy    <       0.02561633 Ry

     iteration #  2     ecut=    50.00 Ry     beta= 0.01
     Davidson diagonalization with overlap
     ethr =  3.20E-04,  avg # of iterations =  1.0

     total cpu time spent up to now is       42.9 secs

     total energy              =     -15.73106573 Ry
     estimated scf accuracy    <       0.02570934 Ry

     iteration #  3     ecut=    50.00 Ry     beta= 0.01
     Davidson diagonalization with overlap
     ethr =  3.20E-04,  avg # of iterations =  1.0

     total cpu time spent up to now is       49.4 secs

     total energy              =     -15.77368499 Ry
     estimated scf accuracy    <       0.02999301 Ry

     iteration #  4     ecut=    50.00 Ry     beta= 0.01
     Davidson diagonalization with overlap
     ethr =  3.20E-04,  avg # of iterations =  1.8

     total cpu time spent up to now is       56.3 secs

     total energy              =     -15.77559377 Ry
     estimated scf accuracy    <       0.00237820 Ry

     iteration #  5     ecut=    50.00 Ry     beta= 0.01
     Davidson diagonalization with overlap
     ethr =  2.97E-05,  avg # of iterations =  5.5

     total cpu time spent up to now is       66.5 secs

     total energy              =     -15.77688834 Ry
     estimated scf accuracy    <       0.00297806 Ry

     iteration #  6     ecut=    50.00 Ry     beta= 0.01
     Davidson diagonalization with overlap
     ethr =  2.97E-05,  avg # of iterations =  1.2

     total cpu time spent up to now is       71.4 secs

     total energy              =     -15.77646677 Ry
     estimated scf accuracy    <       0.00308445 Ry

     iteration #  7     ecut=    50.00 Ry     beta= 0.01
     Davidson diagonalization with overlap
     ethr =  2.97E-05,  avg # of iterations =  1.3

     total cpu time spent up to now is       76.3 secs

     total energy              =     -15.77662634 Ry
     estimated scf accuracy    <       0.00026971 Ry

     iteration #  8     ecut=    50.00 Ry     beta= 0.01
     Davidson diagonalization with overlap
     ethr =  3.37E-06,  avg # of iterations =  7.6

     total cpu time spent up to now is       90.8 secs

     total energy              =     -15.77691097 Ry
     estimated scf accuracy    <       0.00033809 Ry

     iteration #  9     ecut=    50.00 Ry     beta= 0.01
     Davidson diagonalization with overlap
     ethr =  3.37E-06,  avg # of iterations =  2.1

     total cpu time spent up to now is       96.4 secs

     total energy              =     -15.77689193 Ry
     estimated scf accuracy    <       0.00014107 Ry

     iteration # 10     ecut=    50.00 Ry     beta= 0.01
     Davidson diagonalization with overlap
     ethr =  1.76E-06,  avg # of iterations =  4.4

     total cpu time spent up to now is      104.0 secs

     total energy              =     -15.77696007 Ry
     estimated scf accuracy    <       0.00001593 Ry

     iteration # 11     ecut=    50.00 Ry     beta= 0.01
     Davidson diagonalization with overlap
     ethr =  1.99E-07,  avg # of iterations =  9.0

     total cpu time spent up to now is      117.6 secs

     total energy              =     -15.77699362 Ry
     estimated scf accuracy    <       0.00000922 Ry

     iteration # 12     ecut=    50.00 Ry     beta= 0.01
     Davidson diagonalization with overlap
     ethr =  1.15E-07,  avg # of iterations =  2.6

     total cpu time spent up to now is      122.6 secs

     total energy              =     -15.77699426 Ry
     estimated scf accuracy    <       0.00000821 Ry

     iteration # 13     ecut=    50.00 Ry     beta= 0.01
     Davidson diagonalization with overlap
     ethr =  1.03E-07,  avg # of iterations =  1.1

     total cpu time spent up to now is      127.0 secs

     total energy              =     -15.77698926 Ry
     estimated scf accuracy    <       0.00001059 Ry

     iteration # 14     ecut=    50.00 Ry     beta= 0.01
     Davidson diagonalization with overlap
     ethr =  1.03E-07,  avg # of iterations =  2.2

     total cpu time spent up to now is      131.9 secs

     End of self-consistent calculation

          k = 0.0000 0.0000 0.0000 (  2445 PWs)   bands (ev):

    -8.2910   0.6118   2.8212   2.8212

          k =-0.1000 0.1000-0.1000 (  2505 PWs)   bands (ev):

    -8.1985  -0.0551   2.6698   2.6699

          k =-0.2000 0.2000-0.2000 (  2511 PWs)   bands (ev):

    -7.9286  -1.2894   2.3578   2.3578

          k =-0.3000 0.3000-0.3000 (  2491 PWs)   bands (ev):

    -7.5123  -2.5232   2.0648   2.0648

          k =-0.4000 0.4000-0.4000 (  2473 PWs)   bands (ev):

    -7.0463  -3.5130   1.8708   1.8708

          k = 0.5000-0.5000 0.5000 (  2488 PWs)   bands (ev):

    -6.8033  -3.9353   1.8039   1.8039

          k = 0.0000 0.2000 0.0000 (  2517 PWs)   bands (ev):

    -8.1672  -0.1924   2.4152   2.4152

          k =-0.1000 0.3000-0.1000 (  2507 PWs)   bands (ev):

    -7.9545  -1.1122   2.0392   2.0736

          k =-0.2000 0.4000-0.2000 (  2504 PWs)   bands (ev):

    -7.5811  -2.2578   1.5943   1.7971

          k =-0.3000 0.5000-0.3000 (  2486 PWs)   bands (ev):

    -7.1116  -3.2995   1.2234   1.6479

          k = 0.6000-0.4000 0.6000 (  2482 PWs)   bands (ev):

    -6.7474  -3.9377   0.9990   1.6445

          k = 0.5000-0.3000 0.5000 (  2479 PWs)   bands (ev):

    -6.8364  -3.7919   0.9473   1.7833

          k = 0.4000-0.2000 0.4000 (  2479 PWs)   bands (ev):

    -7.2738  -2.9750   1.0845   2.0419

          k = 0.3000-0.1000 0.3000 (  2495 PWs)   bands (ev):

    -7.7232  -1.8786   1.4281   2.3679

          k = 0.2000 0.0000 0.2000 (  2507 PWs)   bands (ev):

    -8.0461  -0.7840   1.9964   2.6419

          k = 0.0000 0.4000 0.0000 (  2501 PWs)   bands (ev):

    -7.7989  -1.5393   1.7149   1.7149

          k =-0.1000 0.5000-0.1000 (  2497 PWs)   bands (ev):

    -7.4739  -2.3735   1.2581   1.4294

          k =-0.2000 0.6000-0.2000 (  2479 PWs)   bands (ev):

    -7.0210  -3.2935   0.7148   1.2818

          k = 0.7000-0.3000 0.7000 (  2485 PWs)   bands (ev):

    -6.5767  -4.0174   0.3049   1.2928

          k = 0.6000-0.2000 0.6000 (  2484 PWs)   bands (ev):

    -6.5006  -4.1276   0.1178   1.4585

          k = 0.5000-0.1000 0.5000 (  2482 PWs)   bands (ev):

    -6.8867  -3.5344   0.2044   1.7509

          k = 0.4000 0.0000 0.4000 (  2499 PWs)   bands (ev):

    -7.3569  -2.6839   0.6263   2.1020

          k = 0.0000 0.6000 0.0000 (  2477 PWs)   bands (ev):

    -7.1960  -2.9046   1.1221   1.1221

          k =-0.1000 0.7000-0.1000 (  2476 PWs)   bands (ev):

    -6.7721  -3.6268   0.6882   0.9504

          k = 0.8000-0.2000 0.8000 (  2476 PWs)   bands (ev):

    -6.2860  -4.3093   0.1339   0.9416

          k = 0.7000-0.1000 0.7000 (  2491 PWs)   bands (ev):

    -6.0654  -4.5784  -0.2246   1.0959

          k = 0.6000-0.0000 0.6000 (  2492 PWs)   bands (ev):

    -6.4099  -4.1553  -0.2321   1.3879

          k = 0.0000 0.8000 0.0000 (  2470 PWs)   bands (ev):

    -6.3762  -4.1949   0.7446   0.7446

          k = 0.9000-0.1000 0.9000 (  2480 PWs)   bands (ev):

    -5.8760  -4.8053   0.3935   0.7005

          k = 0.8000 0.0000 0.8000 (  2472 PWs)   bands (ev):

    -5.6272  -5.0605  -0.0673   0.8240

          k = 0.0000-1.0000 0.0000 (  2466 PWs)   bands (ev):

    -5.3648  -5.3648   0.6159   0.6159

          k =-0.2000 0.4000 0.0000 (  2506 PWs)   bands (ev):

    -7.6868  -1.9017   1.2976   1.9819

          k =-0.3000 0.5000-0.1000 (  2483 PWs)   bands (ev):

    -7.2715  -2.8589   0.7558   1.7212

          k = 0.6000-0.4000 0.8000 (  2473 PWs)   bands (ev):

    -6.7989  -3.7192   0.4512   1.4901

          k = 0.5000-0.3000 0.7000 (  2482 PWs)   bands (ev):

    -6.5450  -4.1119   0.3544   1.4030

          k =-0.2000 0.6000 0.0000 (  2482 PWs)   bands (ev):

    -7.1016  -3.0971   0.7394   1.2250

          k = 0.7000-0.3000 0.9000 (  2479 PWs)   bands (ev):

    -6.6247  -3.8611   0.2649   1.0179

          k = 0.6000-0.2000 0.8000 (  2486 PWs)   bands (ev):

    -6.2403  -4.3847  -0.0470   0.9809

          k = 0.5000-0.1000 0.7000 (  2478 PWs)   bands (ev):

    -6.3650  -4.2222  -0.1128   1.1396

          k = 0.4000 0.0000 0.6000 (  2475 PWs)   bands (ev):

    -6.8289  -3.5711   0.1401   1.4355

          k = 0.8000-0.2000 1.0000 (  2481 PWs)   bands (ev):

    -6.3126  -4.2648   0.4314   0.6789

          k = 0.7000-0.1000 0.9000 (  2482 PWs)   bands (ev):

    -5.8398  -4.8187   0.0155   0.6143

          k = 0.6000 0.0000 0.8000 (  2490 PWs)   bands (ev):

    -5.8945  -4.7513  -0.2430   0.8018

          k =-0.2000-1.0000 0.0000 (  2488 PWs)   bands (ev):

    -5.3527  -5.3527   0.4086   0.4086

          k = 0.6000-0.2000 1.0000 (  2478 PWs)   bands (ev):

    -6.1379  -4.4647  -0.0387   0.6592

          k = 0.5000-0.1000 0.9000 (  2490 PWs)   bands (ev):

    -5.8162  -4.8285  -0.1289   0.4955

          k =-0.4000-1.0000 0.0000 (  2482 PWs)   bands (ev):

    -5.3327  -5.3327   0.1353   0.1353

     highest occupied level (ev):     2.8212

!    total energy              =     -15.77699050 Ry
     estimated scf accuracy    <       0.00000044 Ry

     The total energy is the sum of the following terms:
     one-electron contribution =       1.65189474 Ry
     hartree contribution      =       1.51108716 Ry
     xc contribution           =      -4.39481766 Ry
     ewald contribution        =     -14.54515474 Ry

     convergence has been achieved in  14 iterations
     Writing meta-gga kinetic term

     Writing all to output data dir ./input_pw/Ge/8/pwscf.save/
     Writing meta-gga kinetic term
 
     init_run     :      5.78s CPU     12.31s WALL (       1 calls)
     electrons    :     80.21s CPU    119.25s WALL (       1 calls)

     Called by init_run:
     wfcinit      :      5.63s CPU     11.77s WALL (       1 calls)
     potinit      :      0.05s CPU      0.12s WALL (       1 calls)
     hinit0       :      0.07s CPU      0.31s WALL (       1 calls)

     Called by electrons:
     c_bands      :     67.32s CPU     99.89s WALL (      15 calls)
     sum_band     :     11.64s CPU     17.54s WALL (      15 calls)
     v_of_rho     :      0.67s CPU      1.04s WALL (      15 calls)
     mix_rho      :      0.59s CPU      0.81s WALL (      15 calls)

     Called by c_bands:
     init_us_2    :      0.48s CPU      0.75s WALL (    1457 calls)
     init_us_2:cp :      0.48s CPU      0.74s WALL (    1457 calls)
     cegterg      :     66.73s CPU     98.98s WALL (     705 calls)

     Called by *egterg:
     cdiaghg      :      0.24s CPU      0.41s WALL (    2944 calls)
     h_psi        :     70.79s CPU    108.26s WALL (    3038 calls)
     g_psi        :      0.06s CPU      0.09s WALL (    2286 calls)

     Called by h_psi:
     h_psi:calbec :      0.35s CPU      0.58s WALL (    3038 calls)
     vloc_psi     :     17.53s CPU     27.06s WALL (    3038 calls)
     add_vuspsi   :      0.25s CPU      0.33s WALL (    3038 calls)
     h_psi_meta   :     52.54s CPU     80.03s WALL (    3038 calls)

     General routines
     calbec       :      0.34s CPU      0.56s WALL (    3038 calls)
     fft          :      0.13s CPU      0.35s WALL (     179 calls)
     ffts         :      0.19s CPU      0.26s WALL (     259 calls)
     fftw         :     66.19s CPU    101.36s WALL (   92136 calls)
     interpolate  :      0.00s CPU      0.00s WALL (      15 calls)
 
     Parallel routines
 
     PWSCF        :   1m26.02s CPU   2m11.94s WALL

 
   This run was terminated on:  11:39:11  14Mar2023            

=------------------------------------------------------------------------------=
   JOB DONE.
=------------------------------------------------------------------------------=
