
     Program PWSCF v.7.0 starts on 29Mar2023 at 12:56: 4 

     This program is part of the open-source Quantum ESPRESSO suite
     for quantum simulation of materials; please cite
         "P. Giannozzi et al., J. Phys.:Condens. Matter 21 395502 (2009);
         "P. Giannozzi et al., J. Phys.:Condens. Matter 29 465901 (2017);
         "P. Giannozzi et al., J. Chem. Phys. 152 154105 (2020);
          URL http://www.quantum-espresso.org", 
     in publications or presentations arising from this work. More details at
     http://www.quantum-espresso.org/quote

     Parallel version (MPI), running on     1 processors

     MPI processes distributed on     1 nodes
     23339 MiB available memory on the printing compute node when the environment starts
 
     Waiting for input...
     Reading input from standard input
Warning: card &CELL ignored
Warning: card / ignored

     Current dimensions of program PWSCF are:
     Max number of different atomic species (ntypx) = 10
     Max number of k-points (npk) =  40000
     Max angular momentum in pseudopotentials (lmaxx) =  4
     file Si.SCAN.UPF2: wavefunction(s)  0D renormalized

     WARNING: the MGGA functional with ID    5 has been 
     read together with other dft terms, but it should 
     stand alone in order to work properly. The other 
     terms will be ignored.

     WARNING: the MGGA functional with ID    5 has been 
     read together with other dft terms, but it should 
     stand alone in order to work properly. The other 
     terms will be ignored.

     Subspace diagonalization in iterative solution of the eigenvalue problem:
     a serial algorithm will be used

 
     G-vector sticks info
     --------------------
     sticks:   dense  smooth     PW     G-vecs:    dense   smooth      PW
     Sum         547     547    163                 8363     8363    1459
 
     Using Slab Decomposition
 


     bravais-lattice index     =            2
     lattice parameter (alat)  =       8.8439  a.u.
     unit-cell volume          =     172.9315 (a.u.)^3
     number of atoms/cell      =            2
     number of atomic types    =            2
     number of electrons       =         8.00
     number of Kohn-Sham states=            4
     kinetic-energy cutoff     =      50.0000  Ry
     charge density cutoff     =     200.0000  Ry
     scf convergence threshold =      1.0E-06
     mixing beta               =       0.0100
     number of iterations used =            8  local-TF  mixing
     Exchange-correlation= SLA  PW   SCAN SCAN
                           (   0   0   0   0   0 263 267)

     celldm(1)=   8.843918  celldm(2)=   0.000000  celldm(3)=   0.000000
     celldm(4)=   0.000000  celldm(5)=   0.000000  celldm(6)=   0.000000

     crystal axes: (cart. coord. in units of alat)
               a(1) = (  -0.500000   0.000000   0.500000 )  
               a(2) = (   0.000000   0.500000   0.500000 )  
               a(3) = (  -0.500000   0.500000   0.000000 )  

     reciprocal axes: (cart. coord. in units 2 pi/alat)
               b(1) = ( -1.000000 -1.000000  1.000000 )  
               b(2) = (  1.000000  1.000000  1.000000 )  
               b(3) = ( -1.000000  1.000000 -1.000000 )  


     PseudoPot. # 1 for Si read from file:
     ~/Documents/TA/PWDFT.jl/pseudopotentials/scan_upf/Si.SCAN.UPF2
     MD5 check sum: Not computed, couldn't open file
     Pseudo is Norm-conserving, Zval =  4.0
     Generated by new atomic code, or converted to UPF format
     Using radial grid of 1475 points,  2 beta functions with: 
                l(1) =   0
                l(2) =   1

     PseudoPot. # 2 for C  read from file:
     ~/Documents/TA/PWDFT.jl/pseudopotentials/scan_upf/C.SCAN.UPF2
     MD5 check sum: Not computed, couldn't open file
     Pseudo is Norm-conserving, Zval =  4.0
     Generated by new atomic code, or converted to UPF format
     Using radial grid of 1389 points,  1 beta functions with: 
                l(1) =   0

     atomic species   valence    mass     pseudopotential
        Si             4.00    28.08550     Si( 1.00)
        C              4.00    12.01100     C ( 1.00)

     24 Sym. Ops. (no inversion) found



   Cartesian axes

     site n.     atom                  positions (alat units)
         1           Si  tau(   1) = (   0.0000000   0.0000000   0.0000000  )
         2           C   tau(   2) = (   0.2500000   0.2500000   0.2500000  )

     number of k points=    47
                       cart. coord. in units 2pi/alat
        k(    1) = (   0.0000000   0.0000000   0.0000000), wk =   0.0020000
        k(    2) = (  -0.1000000   0.1000000  -0.1000000), wk =   0.0160000
        k(    3) = (  -0.2000000   0.2000000  -0.2000000), wk =   0.0160000
        k(    4) = (  -0.3000000   0.3000000  -0.3000000), wk =   0.0160000
        k(    5) = (  -0.4000000   0.4000000  -0.4000000), wk =   0.0160000
        k(    6) = (   0.5000000  -0.5000000   0.5000000), wk =   0.0080000
        k(    7) = (   0.0000000   0.2000000   0.0000000), wk =   0.0120000
        k(    8) = (  -0.1000000   0.3000000  -0.1000000), wk =   0.0480000
        k(    9) = (  -0.2000000   0.4000000  -0.2000000), wk =   0.0480000
        k(   10) = (  -0.3000000   0.5000000  -0.3000000), wk =   0.0480000
        k(   11) = (   0.6000000  -0.4000000   0.6000000), wk =   0.0480000
        k(   12) = (   0.5000000  -0.3000000   0.5000000), wk =   0.0480000
        k(   13) = (   0.4000000  -0.2000000   0.4000000), wk =   0.0480000
        k(   14) = (   0.3000000  -0.1000000   0.3000000), wk =   0.0480000
        k(   15) = (   0.2000000   0.0000000   0.2000000), wk =   0.0240000
        k(   16) = (   0.0000000   0.4000000   0.0000000), wk =   0.0120000
        k(   17) = (  -0.1000000   0.5000000  -0.1000000), wk =   0.0480000
        k(   18) = (  -0.2000000   0.6000000  -0.2000000), wk =   0.0480000
        k(   19) = (   0.7000000  -0.3000000   0.7000000), wk =   0.0480000
        k(   20) = (   0.6000000  -0.2000000   0.6000000), wk =   0.0480000
        k(   21) = (   0.5000000  -0.1000000   0.5000000), wk =   0.0480000
        k(   22) = (   0.4000000   0.0000000   0.4000000), wk =   0.0240000
        k(   23) = (   0.0000000   0.6000000   0.0000000), wk =   0.0120000
        k(   24) = (  -0.1000000   0.7000000  -0.1000000), wk =   0.0480000
        k(   25) = (   0.8000000  -0.2000000   0.8000000), wk =   0.0480000
        k(   26) = (   0.7000000  -0.1000000   0.7000000), wk =   0.0480000
        k(   27) = (   0.6000000  -0.0000000   0.6000000), wk =   0.0240000
        k(   28) = (   0.0000000   0.8000000   0.0000000), wk =   0.0120000
        k(   29) = (   0.9000000  -0.1000000   0.9000000), wk =   0.0480000
        k(   30) = (   0.8000000   0.0000000   0.8000000), wk =   0.0240000
        k(   31) = (   0.0000000  -1.0000000   0.0000000), wk =   0.0060000
        k(   32) = (  -0.2000000   0.4000000   0.0000000), wk =   0.0480000
        k(   33) = (  -0.3000000   0.5000000  -0.1000000), wk =   0.0960000
        k(   34) = (   0.6000000  -0.4000000   0.8000000), wk =   0.0960000
        k(   35) = (   0.5000000  -0.3000000   0.7000000), wk =   0.0480000
        k(   36) = (  -0.2000000   0.6000000   0.0000000), wk =   0.0480000
        k(   37) = (   0.7000000  -0.3000000   0.9000000), wk =   0.0960000
        k(   38) = (   0.6000000  -0.2000000   0.8000000), wk =   0.0960000
        k(   39) = (   0.5000000  -0.1000000   0.7000000), wk =   0.0960000
        k(   40) = (   0.4000000   0.0000000   0.6000000), wk =   0.0480000
        k(   41) = (   0.8000000  -0.2000000   1.0000000), wk =   0.0480000
        k(   42) = (   0.7000000  -0.1000000   0.9000000), wk =   0.0960000
        k(   43) = (   0.6000000   0.0000000   0.8000000), wk =   0.0480000
        k(   44) = (  -0.2000000  -1.0000000   0.0000000), wk =   0.0240000
        k(   45) = (   0.6000000  -0.2000000   1.0000000), wk =   0.0480000
        k(   46) = (   0.5000000  -0.1000000   0.9000000), wk =   0.0480000
        k(   47) = (  -0.4000000  -1.0000000   0.0000000), wk =   0.0240000

     Dense  grid:     8363 G-vectors     FFT dimensions: (  30,  30,  30)

     Estimated max dynamical RAM per process >      16.12 MB

     WARNING: libxc functional with ID  263 depends
      on external parameters: check the user_guide of
      QE if you need to modify them or to check their
      default values.

     Initial potential from superposition of free atoms

     starting charge       7.9995, renormalised to       8.0000
     Starting wfcs are   13 randomized atomic wfcs

     total cpu time spent up to now is        3.7 secs

     Self-consistent Calculation

     iteration #  1     ecut=    50.00 Ry     beta= 0.01
     Davidson diagonalization with overlap
     ethr =  1.00E-02,  avg # of iterations =  2.0

     total cpu time spent up to now is        6.7 secs

     total energy              =     -19.26182836 Ry
     estimated scf accuracy    <       1.70546312 Ry

     iteration #  2     ecut=    50.00 Ry     beta= 0.01
     Davidson diagonalization with overlap
     ethr =  1.00E-02,  avg # of iterations =  1.0

     total cpu time spent up to now is        9.4 secs

     total energy              =     -19.18295669 Ry
     estimated scf accuracy    <       1.67847344 Ry

     iteration #  3     ecut=    50.00 Ry     beta= 0.01
     Davidson diagonalization with overlap
     ethr =  1.00E-02,  avg # of iterations =  1.0

     total cpu time spent up to now is       12.0 secs

     total energy              =     -19.24085147 Ry
     estimated scf accuracy    <       0.03625534 Ry

     iteration #  4     ecut=    50.00 Ry     beta= 0.01
     Davidson diagonalization with overlap
     ethr =  4.53E-04,  avg # of iterations =  2.0

     total cpu time spent up to now is       15.3 secs

     total energy              =     -19.24746689 Ry
     estimated scf accuracy    <       0.03201944 Ry

     iteration #  5     ecut=    50.00 Ry     beta= 0.01
     Davidson diagonalization with overlap
     ethr =  4.00E-04,  avg # of iterations =  1.7

     total cpu time spent up to now is       18.2 secs

     total energy              =     -19.24975207 Ry
     estimated scf accuracy    <       0.12820555 Ry

     iteration #  6     ecut=    50.00 Ry     beta= 0.01
     Davidson diagonalization with overlap
     ethr =  4.00E-04,  avg # of iterations =  1.0

     total cpu time spent up to now is       21.0 secs

     total energy              =     -19.25212448 Ry
     estimated scf accuracy    <       0.16754939 Ry

     iteration #  7     ecut=    50.00 Ry     beta= 0.01
     Davidson diagonalization with overlap
     ethr =  4.00E-04,  avg # of iterations =  1.0

     total cpu time spent up to now is       23.7 secs

     total energy              =     -19.25317886 Ry
     estimated scf accuracy    <       0.01952515 Ry

     iteration #  8     ecut=    50.00 Ry     beta= 0.01
     Davidson diagonalization with overlap
     ethr =  2.44E-04,  avg # of iterations =  1.0

     total cpu time spent up to now is       26.5 secs

     total energy              =     -19.25331325 Ry
     estimated scf accuracy    <       0.00888831 Ry

     iteration #  9     ecut=    50.00 Ry     beta= 0.01
     Davidson diagonalization with overlap
     ethr =  1.11E-04,  avg # of iterations =  1.0

     total cpu time spent up to now is       29.2 secs

     total energy              =     -19.25178118 Ry
     estimated scf accuracy    <       0.00810168 Ry

     iteration # 10     ecut=    50.00 Ry     beta= 0.01
     Davidson diagonalization with overlap
     ethr =  1.01E-04,  avg # of iterations =  1.0

     total cpu time spent up to now is       31.7 secs

     total energy              =     -19.25243967 Ry
     estimated scf accuracy    <       0.00011564 Ry

     iteration # 11     ecut=    50.00 Ry     beta= 0.01
     Davidson diagonalization with overlap
     ethr =  1.45E-06,  avg # of iterations =  4.0

     total cpu time spent up to now is       35.8 secs

     total energy              =     -19.25279852 Ry
     estimated scf accuracy    <       0.00166490 Ry

     iteration # 12     ecut=    50.00 Ry     beta= 0.01
     Davidson diagonalization with overlap
     ethr =  1.45E-06,  avg # of iterations =  1.0

     total cpu time spent up to now is       37.8 secs

     total energy              =     -19.25277946 Ry
     estimated scf accuracy    <       0.00162420 Ry

     iteration # 13     ecut=    50.00 Ry     beta= 0.01
     Davidson diagonalization with overlap
     ethr =  1.45E-06,  avg # of iterations =  1.0

     total cpu time spent up to now is       39.8 secs

     total energy              =     -19.25261130 Ry
     estimated scf accuracy    <       0.00138986 Ry

     iteration # 14     ecut=    50.00 Ry     beta= 0.01
     Davidson diagonalization with overlap
     ethr =  1.45E-06,  avg # of iterations =  2.0

     total cpu time spent up to now is       42.2 secs

     total energy              =     -19.25245930 Ry
     estimated scf accuracy    <       0.00055135 Ry

     iteration # 15     ecut=    50.00 Ry     beta= 0.01
     Davidson diagonalization with overlap
     ethr =  1.45E-06,  avg # of iterations =  3.0

     total cpu time spent up to now is       45.2 secs

     total energy              =     -19.25254778 Ry
     estimated scf accuracy    <       0.00002237 Ry

     iteration # 16     ecut=    50.00 Ry     beta= 0.01
     Davidson diagonalization with overlap
     ethr =  2.80E-07,  avg # of iterations =  1.7

     total cpu time spent up to now is       46.9 secs

     total energy              =     -19.25254506 Ry
     estimated scf accuracy    <       0.00003786 Ry

     iteration # 17     ecut=    50.00 Ry     beta= 0.01
     Davidson diagonalization with overlap
     ethr =  2.80E-07,  avg # of iterations =  1.0

     total cpu time spent up to now is       48.4 secs

     total energy              =     -19.25254483 Ry
     estimated scf accuracy    <       0.00002456 Ry

     iteration # 18     ecut=    50.00 Ry     beta= 0.01
     Davidson diagonalization with overlap
     ethr =  2.80E-07,  avg # of iterations =  1.0

     total cpu time spent up to now is       49.7 secs

     total energy              =     -19.25254451 Ry
     estimated scf accuracy    <       0.00001713 Ry

     iteration # 19     ecut=    50.00 Ry     beta= 0.01
     Davidson diagonalization with overlap
     ethr =  2.14E-07,  avg # of iterations =  1.0

     total cpu time spent up to now is       51.0 secs

     total energy              =     -19.25254467 Ry
     estimated scf accuracy    <       0.00001000 Ry

     iteration # 20     ecut=    50.00 Ry     beta= 0.01
     Davidson diagonalization with overlap
     ethr =  1.25E-07,  avg # of iterations =  1.0

     total cpu time spent up to now is       52.3 secs

     total energy              =     -19.25254303 Ry
     estimated scf accuracy    <       0.00001097 Ry

     iteration # 21     ecut=    50.00 Ry     beta= 0.01
     Davidson diagonalization with overlap
     ethr =  1.25E-07,  avg # of iterations =  2.0

     total cpu time spent up to now is       54.0 secs

     total energy              =     -19.25254344 Ry
     estimated scf accuracy    <       0.00000495 Ry

     iteration # 22     ecut=    50.00 Ry     beta= 0.01
     Davidson diagonalization with overlap
     ethr =  6.19E-08,  avg # of iterations =  3.0

     total cpu time spent up to now is       56.1 secs

     total energy              =     -19.25254718 Ry
     estimated scf accuracy    <       0.00003154 Ry

     iteration # 23     ecut=    50.00 Ry     beta= 0.01
     Davidson diagonalization with overlap
     ethr =  6.19E-08,  avg # of iterations =  1.0

     total cpu time spent up to now is       57.4 secs

     total energy              =     -19.25256976 Ry
     estimated scf accuracy    <       0.00002718 Ry

     iteration # 24     ecut=    50.00 Ry     beta= 0.01
     Davidson diagonalization with overlap
     ethr =  6.19E-08,  avg # of iterations =  3.9

     total cpu time spent up to now is       59.3 secs

     total energy              =     -19.25252760 Ry
     estimated scf accuracy    <       0.00025056 Ry

     iteration # 25     ecut=    50.00 Ry     beta= 0.01
     Davidson diagonalization with overlap
     ethr =  6.19E-08,  avg # of iterations =  4.0

     total cpu time spent up to now is       60.6 secs

     End of self-consistent calculation

          k = 0.0000 0.0000 0.0000 (  1037 PWs)   bands (ev):

    -7.6894   6.8451   6.8451   6.8451

          k =-0.1000 0.1000-0.1000 (  1007 PWs)   bands (ev):

    -7.5198   5.8083   6.7174   6.7174

          k =-0.2000 0.2000-0.2000 (  1007 PWs)   bands (ev):

    -7.0222   3.8005   6.4166   6.4166

          k =-0.3000 0.3000-0.3000 (  1023 PWs)   bands (ev):

    -6.2414   1.7162   6.1039   6.1039

          k =-0.4000 0.4000-0.4000 (  1038 PWs)   bands (ev):

    -5.3260  -0.0406   5.8848   5.8848

          k = 0.5000-0.5000 0.5000 (  1056 PWs)   bands (ev):

    -4.8084  -0.8482   5.8076   5.8076

          k = 0.0000 0.2000 0.0000 (  1006 PWs)   bands (ev):

    -7.4631   5.9595   6.4177   6.4177

          k =-0.1000 0.3000-0.1000 (  1016 PWs)   bands (ev):

    -7.0742   4.4116   6.0192   6.2091

          k =-0.2000 0.4000-0.2000 (  1024 PWs)   bands (ev):

    -6.3835   2.4193   5.6943   5.8356

          k =-0.3000 0.5000-0.3000 (  1028 PWs)   bands (ev):

    -5.4901   0.5687   5.4154   5.5331

          k = 0.6000-0.4000 0.6000 (  1029 PWs)   bands (ev):

    -4.7512  -0.6279   5.0935   5.5641

          k = 0.5000-0.3000 0.5000 (  1035 PWs)   bands (ev):

    -4.9363  -0.3483   4.9440   5.7726

          k = 0.4000-0.2000 0.4000 (  1040 PWs)   bands (ev):

    -5.8003   1.1491   5.0104   6.1099

          k = 0.3000-0.1000 0.3000 (  1027 PWs)   bands (ev):

    -6.6452   3.0689   5.3206   6.4839

          k = 0.2000 0.0000 0.2000 (  1005 PWs)   bands (ev):

    -7.2405   4.8467   5.9444   6.7416

          k = 0.0000 0.4000 0.0000 (  1010 PWs)   bands (ev):

    -6.7970   4.2438   5.5335   5.5335

          k =-0.1000 0.5000-0.1000 (  1021 PWs)   bands (ev):

    -6.2114   2.8765   5.0571   5.1499

          k =-0.2000 0.6000-0.2000 (  1036 PWs)   bands (ev):

    -5.3879   1.2396   4.3930   4.9667

          k = 0.7000-0.3000 0.7000 (  1031 PWs)   bands (ev):

    -4.5628  -0.0831   3.7860   5.0175

          k = 0.6000-0.2000 0.6000 (  1032 PWs)   bands (ev):

    -4.4044  -0.3005   3.4113   5.2869

          k = 0.5000-0.1000 0.5000 (  1036 PWs)   bands (ev):

    -5.1141   0.7735   3.3873   5.7165

          k = 0.4000 0.0000 0.4000 (  1023 PWs)   bands (ev):

    -5.9755   2.1428   3.9668   6.1867

          k = 0.0000 0.6000 0.0000 (  1030 PWs)   bands (ev):

    -5.7376   2.3508   4.6986   4.6986

          k =-0.1000 0.7000-0.1000 (  1039 PWs)   bands (ev):

    -5.0176   1.2702   4.0218   4.4559

          k = 0.8000-0.2000 0.8000 (  1031 PWs)   bands (ev):

    -4.2269   0.2717   3.0160   4.4654

          k = 0.7000-0.1000 0.7000 (  1040 PWs)   bands (ev):

    -3.8661  -0.0941   2.2773   4.7209

          k = 0.6000-0.0000 0.6000 (  1029 PWs)   bands (ev):

    -4.3310   0.3686   2.2676   5.1784

          k = 0.0000 0.8000 0.0000 (  1034 PWs)   bands (ev):

    -4.4320   0.5144   4.1431   4.1431

          k = 0.9000-0.1000 0.9000 (  1031 PWs)   bands (ev):

    -3.8105  -0.1672   3.4632   4.0843

          k = 0.8000 0.0000 0.8000 (  1037 PWs)   bands (ev):

    -3.5621  -0.2588   2.4532   4.2881

          k = 0.0000-1.0000 0.0000 (  1034 PWs)   bands (ev):

    -3.5838  -0.5201   3.9499   3.9499

          k =-0.2000 0.4000 0.0000 (  1024 PWs)   bands (ev):

    -6.5866   3.3811   4.9943   6.0695

          k =-0.3000 0.5000-0.1000 (  1032 PWs)   bands (ev):

    -5.8247   1.7985   4.3290   5.7087

          k = 0.6000-0.4000 0.8000 (  1041 PWs)   bands (ev):

    -4.9401   0.2389   4.0605   5.3268

          k = 0.5000-0.3000 0.7000 (  1036 PWs)   bands (ev):

    -4.4474  -0.5003   3.9965   5.1673

          k =-0.2000 0.6000 0.0000 (  1036 PWs)   bands (ev):

    -5.5547   1.9164   4.1251   4.9003

          k = 0.7000-0.3000 0.9000 (  1041 PWs)   bands (ev):

    -4.7256   0.7452   3.3916   4.5176

          k = 0.6000-0.2000 0.8000 (  1037 PWs)   bands (ev):

    -4.0786  -0.1016   2.8736   4.4511

          k = 0.5000-0.1000 0.7000 (  1034 PWs)   bands (ev):

    -4.2599   0.1449   2.6711   4.7413

          k = 0.4000 0.0000 0.6000 (  1036 PWs)   bands (ev):

    -5.0416   1.0764   3.0787   5.2445

          k = 0.8000-0.2000 1.0000 (  1032 PWs)   bands (ev):

    -4.3092   0.4670   3.5811   3.9269

          k = 0.7000-0.1000 0.9000 (  1035 PWs)   bands (ev):

    -3.7089  -0.0574   2.6621   3.8306

          k = 0.6000 0.0000 0.8000 (  1036 PWs)   bands (ev):

    -3.7027   0.0027   2.0918   4.1670

          k =-0.2000-1.0000 0.0000 (  1030 PWs)   bands (ev):

    -3.5387  -0.3769   3.4762   3.4913

          k = 0.6000-0.2000 1.0000 (  1043 PWs)   bands (ev):

    -4.0051   0.2758   2.6207   3.8328

          k = 0.5000-0.1000 0.9000 (  1036 PWs)   bands (ev):

    -3.6412   0.0038   2.3771   3.5187

          k =-0.4000-1.0000 0.0000 (  1042 PWs)   bands (ev):

    -3.4623  -0.0879   2.7459   2.9111

     highest occupied level (ev):     6.8451

!    total energy              =     -19.25254518 Ry
     estimated scf accuracy    <       0.00000057 Ry

     The total energy is the sum of the following terms:
     one-electron contribution =       3.52306894 Ry
     hartree contribution      =       2.52096550 Ry
     xc contribution           =      -5.80549744 Ry
     ewald contribution        =     -19.49108218 Ry

     convergence has been achieved in  25 iterations
     Writing meta-gga kinetic term

     Writing all to output data dir ./input_pw/SiC/9/pwscf.save/
     Writing meta-gga kinetic term
 
     init_run     :      1.72s CPU      3.63s WALL (       1 calls)
     electrons    :     37.65s CPU     56.97s WALL (       1 calls)

     Called by init_run:
     wfcinit      :      1.59s CPU      3.36s WALL (       1 calls)
     potinit      :      0.02s CPU      0.07s WALL (       1 calls)
     hinit0       :      0.10s CPU      0.19s WALL (       1 calls)

     Called by electrons:
     c_bands      :     30.61s CPU     45.86s WALL (      25 calls)
     sum_band     :      6.34s CPU      9.96s WALL (      25 calls)
     v_of_rho     :      0.42s CPU      0.73s WALL (      26 calls)
     mix_rho      :      0.29s CPU      0.47s WALL (      25 calls)

     Called by c_bands:
     init_us_2    :      0.30s CPU      0.47s WALL (    2397 calls)
     init_us_2:cp :      0.29s CPU      0.46s WALL (    2397 calls)
     cegterg      :     30.32s CPU     45.45s WALL (    1175 calls)

     Called by *egterg:
     cdiaghg      :      0.14s CPU      0.25s WALL (    3208 calls)
     h_psi        :     31.31s CPU     47.82s WALL (    3255 calls)
     g_psi        :      0.02s CPU      0.05s WALL (    2033 calls)

     Called by h_psi:
     h_psi:calbec :      0.08s CPU      0.12s WALL (    3255 calls)
     vloc_psi     :      7.72s CPU     11.98s WALL (    3255 calls)
     add_vuspsi   :      0.09s CPU      0.14s WALL (    3255 calls)
     h_psi_meta   :     23.37s CPU     35.51s WALL (    3255 calls)

     General routines
     calbec       :      0.07s CPU      0.11s WALL (    3255 calls)
     fft          :      0.09s CPU      0.16s WALL (     309 calls)
     ffts         :      0.14s CPU      0.24s WALL (     496 calls)
     fftw         :     33.58s CPU     51.73s WALL (  121320 calls)
     interpolate  :      0.00s CPU      0.00s WALL (      26 calls)
 
     Parallel routines
 
     PWSCF        :     39.41s CPU   1m 0.66s WALL

 
   This run was terminated on:  12:57: 5  29Mar2023            

=------------------------------------------------------------------------------=
   JOB DONE.
=------------------------------------------------------------------------------=
