
     Program PWSCF v.7.0 starts on  7Jul2023 at 14:30:57 

     This program is part of the open-source Quantum ESPRESSO suite
     for quantum simulation of materials; please cite
         "P. Giannozzi et al., J. Phys.:Condens. Matter 21 395502 (2009);
         "P. Giannozzi et al., J. Phys.:Condens. Matter 29 465901 (2017);
         "P. Giannozzi et al., J. Chem. Phys. 152 154105 (2020);
          URL http://www.quantum-espresso.org", 
     in publications or presentations arising from this work. More details at
     http://www.quantum-espresso.org/quote

     Parallel version (MPI), running on     1 processors

     MPI processes distributed on     1 nodes
     27232 MiB available memory on the printing compute node when the environment starts
 
     Waiting for input...
     Reading input from standard input
Warning: card &CELL ignored
Warning: card / ignored

     Current dimensions of program PWSCF are:
     Max number of different atomic species (ntypx) = 10
     Max number of k-points (npk) =  40000
     Max angular momentum in pseudopotentials (lmaxx) =  4
     file Si.SCAN.UPF2: wavefunction(s)  0D renormalized

     WARNING: the MGGA functional with ID    5 has been 
     read together with other dft terms, but it should 
     stand alone in order to work properly. The other 
     terms will be ignored.

     WARNING: the MGGA functional with ID    5 has been 
     read together with other dft terms, but it should 
     stand alone in order to work properly. The other 
     terms will be ignored.

     Subspace diagonalization in iterative solution of the eigenvalue problem:
     a serial algorithm will be used

 
     G-vector sticks info
     --------------------
     sticks:   dense  smooth     PW     G-vecs:    dense   smooth      PW
     Sum         547     547    163                 8363     8363    1459
 
     Using Slab Decomposition
 


     bravais-lattice index     =            2
     lattice parameter (alat)  =       8.8439  a.u.
     unit-cell volume          =     172.9315 (a.u.)^3
     number of atoms/cell      =            2
     number of atomic types    =            2
     number of electrons       =         8.00
     number of Kohn-Sham states=            4
     kinetic-energy cutoff     =      50.0000  Ry
     charge density cutoff     =     200.0000  Ry
     scf convergence threshold =      2.0E-05
     mixing beta               =       0.2000
     number of iterations used =            8  local-TF  mixing
     Exchange-correlation= SLA  PW   SCAN SCAN
                           (   0   0   0   0   0 263 267)

     celldm(1)=   8.843918  celldm(2)=   0.000000  celldm(3)=   0.000000
     celldm(4)=   0.000000  celldm(5)=   0.000000  celldm(6)=   0.000000

     crystal axes: (cart. coord. in units of alat)
               a(1) = (  -0.500000   0.000000   0.500000 )  
               a(2) = (   0.000000   0.500000   0.500000 )  
               a(3) = (  -0.500000   0.500000   0.000000 )  

     reciprocal axes: (cart. coord. in units 2 pi/alat)
               b(1) = ( -1.000000 -1.000000  1.000000 )  
               b(2) = (  1.000000  1.000000  1.000000 )  
               b(3) = ( -1.000000  1.000000 -1.000000 )  


     PseudoPot. # 1 for Si read from file:
     ~/Documents/TA/PWDFT.jl/pseudopotentials/scan_upf/Si.SCAN.UPF2
     MD5 check sum: Not computed, couldn't open file
     Pseudo is Norm-conserving, Zval =  4.0
     Generated by new atomic code, or converted to UPF format
     Using radial grid of 1475 points,  2 beta functions with: 
                l(1) =   0
                l(2) =   1

     PseudoPot. # 2 for C  read from file:
     ~/Documents/TA/PWDFT.jl/pseudopotentials/scan_upf/C.SCAN.UPF2
     MD5 check sum: Not computed, couldn't open file
     Pseudo is Norm-conserving, Zval =  4.0
     Generated by new atomic code, or converted to UPF format
     Using radial grid of 1389 points,  1 beta functions with: 
                l(1) =   0

     atomic species   valence    mass     pseudopotential
        Si             4.00    28.08550     Si( 1.00)
        C              4.00    12.01100     C ( 1.00)

     24 Sym. Ops. (no inversion) found



   Cartesian axes

     site n.     atom                  positions (alat units)
         1           Si  tau(   1) = (   0.0000000   0.0000000   0.0000000  )
         2           C   tau(   2) = (   0.2500000   0.2500000   0.2500000  )

     number of k points=    47
                       cart. coord. in units 2pi/alat
        k(    1) = (   0.0000000   0.0000000   0.0000000), wk =   0.0020000
        k(    2) = (  -0.1000000   0.1000000  -0.1000000), wk =   0.0160000
        k(    3) = (  -0.2000000   0.2000000  -0.2000000), wk =   0.0160000
        k(    4) = (  -0.3000000   0.3000000  -0.3000000), wk =   0.0160000
        k(    5) = (  -0.4000000   0.4000000  -0.4000000), wk =   0.0160000
        k(    6) = (   0.5000000  -0.5000000   0.5000000), wk =   0.0080000
        k(    7) = (   0.0000000   0.2000000   0.0000000), wk =   0.0120000
        k(    8) = (  -0.1000000   0.3000000  -0.1000000), wk =   0.0480000
        k(    9) = (  -0.2000000   0.4000000  -0.2000000), wk =   0.0480000
        k(   10) = (  -0.3000000   0.5000000  -0.3000000), wk =   0.0480000
        k(   11) = (   0.6000000  -0.4000000   0.6000000), wk =   0.0480000
        k(   12) = (   0.5000000  -0.3000000   0.5000000), wk =   0.0480000
        k(   13) = (   0.4000000  -0.2000000   0.4000000), wk =   0.0480000
        k(   14) = (   0.3000000  -0.1000000   0.3000000), wk =   0.0480000
        k(   15) = (   0.2000000   0.0000000   0.2000000), wk =   0.0240000
        k(   16) = (   0.0000000   0.4000000   0.0000000), wk =   0.0120000
        k(   17) = (  -0.1000000   0.5000000  -0.1000000), wk =   0.0480000
        k(   18) = (  -0.2000000   0.6000000  -0.2000000), wk =   0.0480000
        k(   19) = (   0.7000000  -0.3000000   0.7000000), wk =   0.0480000
        k(   20) = (   0.6000000  -0.2000000   0.6000000), wk =   0.0480000
        k(   21) = (   0.5000000  -0.1000000   0.5000000), wk =   0.0480000
        k(   22) = (   0.4000000   0.0000000   0.4000000), wk =   0.0240000
        k(   23) = (   0.0000000   0.6000000   0.0000000), wk =   0.0120000
        k(   24) = (  -0.1000000   0.7000000  -0.1000000), wk =   0.0480000
        k(   25) = (   0.8000000  -0.2000000   0.8000000), wk =   0.0480000
        k(   26) = (   0.7000000  -0.1000000   0.7000000), wk =   0.0480000
        k(   27) = (   0.6000000  -0.0000000   0.6000000), wk =   0.0240000
        k(   28) = (   0.0000000   0.8000000   0.0000000), wk =   0.0120000
        k(   29) = (   0.9000000  -0.1000000   0.9000000), wk =   0.0480000
        k(   30) = (   0.8000000   0.0000000   0.8000000), wk =   0.0240000
        k(   31) = (   0.0000000  -1.0000000   0.0000000), wk =   0.0060000
        k(   32) = (  -0.2000000   0.4000000   0.0000000), wk =   0.0480000
        k(   33) = (  -0.3000000   0.5000000  -0.1000000), wk =   0.0960000
        k(   34) = (   0.6000000  -0.4000000   0.8000000), wk =   0.0960000
        k(   35) = (   0.5000000  -0.3000000   0.7000000), wk =   0.0480000
        k(   36) = (  -0.2000000   0.6000000   0.0000000), wk =   0.0480000
        k(   37) = (   0.7000000  -0.3000000   0.9000000), wk =   0.0960000
        k(   38) = (   0.6000000  -0.2000000   0.8000000), wk =   0.0960000
        k(   39) = (   0.5000000  -0.1000000   0.7000000), wk =   0.0960000
        k(   40) = (   0.4000000   0.0000000   0.6000000), wk =   0.0480000
        k(   41) = (   0.8000000  -0.2000000   1.0000000), wk =   0.0480000
        k(   42) = (   0.7000000  -0.1000000   0.9000000), wk =   0.0960000
        k(   43) = (   0.6000000   0.0000000   0.8000000), wk =   0.0480000
        k(   44) = (  -0.2000000  -1.0000000   0.0000000), wk =   0.0240000
        k(   45) = (   0.6000000  -0.2000000   1.0000000), wk =   0.0480000
        k(   46) = (   0.5000000  -0.1000000   0.9000000), wk =   0.0480000
        k(   47) = (  -0.4000000  -1.0000000   0.0000000), wk =   0.0240000

     Dense  grid:     8363 G-vectors     FFT dimensions: (  30,  30,  30)

     Estimated max dynamical RAM per process >      16.12 MB

     WARNING: libxc functional with ID  263 depends
      on external parameters: check the user_guide of
      QE if you need to modify them or to check their
      default values.

     Initial potential from superposition of free atoms

     starting charge       7.9995, renormalised to       8.0000
     Starting wfcs are   13 randomized atomic wfcs

     total cpu time spent up to now is        3.3 secs

     Self-consistent Calculation

     iteration #  1     ecut=    50.00 Ry     beta= 0.20
     Davidson diagonalization with overlap
     ethr =  1.00E-02,  avg # of iterations =  2.0

     total cpu time spent up to now is        6.6 secs

     total energy              =     -19.24689641 Ry
     estimated scf accuracy    <       1.70546312 Ry

     iteration #  2     ecut=    50.00 Ry     beta= 0.20
     Davidson diagonalization with overlap
     ethr =  1.00E-02,  avg # of iterations =  1.0

     total cpu time spent up to now is        9.2 secs

     total energy              =     -19.19372556 Ry
     estimated scf accuracy    <       1.06670622 Ry

     iteration #  3     ecut=    50.00 Ry     beta= 0.20
     Davidson diagonalization with overlap
     ethr =  1.00E-02,  avg # of iterations =  1.0

     total cpu time spent up to now is       11.8 secs

     total energy              =     -19.24357535 Ry
     estimated scf accuracy    <       0.03794455 Ry

     iteration #  4     ecut=    50.00 Ry     beta= 0.20
     Davidson diagonalization with overlap
     ethr =  4.74E-04,  avg # of iterations =  2.0

     total cpu time spent up to now is       15.0 secs

     total energy              =     -19.25146703 Ry
     estimated scf accuracy    <       0.01384026 Ry

     iteration #  5     ecut=    50.00 Ry     beta= 0.20
     Davidson diagonalization with overlap
     ethr =  1.73E-04,  avg # of iterations =  1.0

     total cpu time spent up to now is       17.2 secs

     total energy              =     -19.25144065 Ry
     estimated scf accuracy    <       0.02740516 Ry

     iteration #  6     ecut=    50.00 Ry     beta= 0.20
     Davidson diagonalization with overlap
     ethr =  1.73E-04,  avg # of iterations =  1.9

     total cpu time spent up to now is       19.6 secs

     total energy              =     -19.25263367 Ry
     estimated scf accuracy    <       0.00354908 Ry

     iteration #  7     ecut=    50.00 Ry     beta= 0.20
     Davidson diagonalization with overlap
     ethr =  4.44E-05,  avg # of iterations =  1.0

     total cpu time spent up to now is       21.3 secs

     total energy              =     -19.25242501 Ry
     estimated scf accuracy    <       0.00244501 Ry

     iteration #  8     ecut=    50.00 Ry     beta= 0.20
     Davidson diagonalization with overlap
     ethr =  3.06E-05,  avg # of iterations =  1.0

     total cpu time spent up to now is       22.8 secs

     End of self-consistent calculation

          k = 0.0000 0.0000 0.0000 (  1037 PWs)   bands (ev):

    -7.6905   6.8216   6.8216   6.8216

          k =-0.1000 0.1000-0.1000 (  1007 PWs)   bands (ev):

    -7.5212   5.7905   6.6952   6.6952

          k =-0.2000 0.2000-0.2000 (  1007 PWs)   bands (ev):

    -7.0246   3.7895   6.3968   6.3969

          k =-0.3000 0.3000-0.3000 (  1023 PWs)   bands (ev):

    -6.2456   1.7106   6.0862   6.0862

          k =-0.4000 0.4000-0.4000 (  1038 PWs)   bands (ev):

    -5.3334  -0.0410   5.8682   5.8682

          k = 0.5000-0.5000 0.5000 (  1056 PWs)   bands (ev):

    -4.8186  -0.8452   5.7914   5.7914

          k = 0.0000 0.2000 0.0000 (  1006 PWs)   bands (ev):

    -7.4646   5.9400   6.3978   6.3978

          k =-0.1000 0.3000-0.1000 (  1016 PWs)   bands (ev):

    -7.0765   4.3982   6.0020   6.1907

          k =-0.2000 0.4000-0.2000 (  1024 PWs)   bands (ev):

    -6.3874   2.4117   5.6789   5.8196

          k =-0.3000 0.5000-0.3000 (  1028 PWs)   bands (ev):

    -5.4968   0.5665   5.4015   5.5185

          k = 0.6000-0.4000 0.6000 (  1029 PWs)   bands (ev):

    -4.7615  -0.6254   5.0810   5.5493

          k = 0.5000-0.3000 0.5000 (  1035 PWs)   bands (ev):

    -4.9455  -0.3471   4.9321   5.7568

          k = 0.4000-0.2000 0.4000 (  1040 PWs)   bands (ev):

    -5.8058   1.1451   4.9983   6.0922

          k = 0.3000-0.1000 0.3000 (  1027 PWs)   bands (ev):

    -6.6484   3.0594   5.3075   6.4636

          k = 0.2000 0.0000 0.2000 (  1005 PWs)   bands (ev):

    -7.2425   4.8317   5.9280   6.7193

          k = 0.0000 0.4000 0.0000 (  1010 PWs)   bands (ev):

    -6.7999   4.2296   5.5189   5.5189

          k =-0.1000 0.5000-0.1000 (  1021 PWs)   bands (ev):

    -6.2157   2.8669   5.0449   5.1371

          k =-0.2000 0.6000-0.2000 (  1036 PWs)   bands (ev):

    -5.3947   1.2355   4.3834   4.9547

          k = 0.7000-0.3000 0.7000 (  1031 PWs)   bands (ev):

    -4.5736  -0.0816   3.7782   5.0053

          k = 0.6000-0.2000 0.6000 (  1032 PWs)   bands (ev):

    -4.4163  -0.2975   3.4045   5.2736

          k = 0.5000-0.1000 0.5000 (  1036 PWs)   bands (ev):

    -5.1220   0.7712   3.3810   5.7012

          k = 0.4000 0.0000 0.4000 (  1023 PWs)   bands (ev):

    -5.9804   2.1354   3.9595   6.1687

          k = 0.0000 0.6000 0.0000 (  1030 PWs)   bands (ev):

    -5.7432   2.3426   4.6875   4.6875

          k =-0.1000 0.7000-0.1000 (  1039 PWs)   bands (ev):

    -5.0257   1.2661   4.0136   4.4457

          k = 0.8000-0.2000 0.8000 (  1031 PWs)   bands (ev):

    -4.2392   0.2734   3.0105   4.4553

          k = 0.7000-0.1000 0.7000 (  1040 PWs)   bands (ev):

    -3.8814  -0.0886   2.2729   4.7099

          k = 0.6000-0.0000 0.6000 (  1029 PWs)   bands (ev):

    -4.3429   0.3701   2.2636   5.1657

          k = 0.0000 0.8000 0.0000 (  1034 PWs)   bands (ev):

    -4.4429   0.5141   4.1339   4.1339

          k = 0.9000-0.1000 0.9000 (  1031 PWs)   bands (ev):

    -3.8259  -0.1624   3.4564   4.0753

          k = 0.8000 0.0000 0.8000 (  1037 PWs)   bands (ev):

    -3.5801  -0.2510   2.4486   4.2786

          k = 0.0000-1.0000 0.0000 (  1034 PWs)   bands (ev):

    -3.6016  -0.5125   3.9413   3.9413

          k =-0.2000 0.4000 0.0000 (  1024 PWs)   bands (ev):

    -6.5900   3.3701   4.9829   6.0520

          k =-0.3000 0.5000-0.1000 (  1032 PWs)   bands (ev):

    -5.8301   1.7924   4.3199   5.6935

          k = 0.6000-0.4000 0.8000 (  1041 PWs)   bands (ev):

    -4.9489   0.2385   4.0518   5.3134

          k = 0.5000-0.3000 0.7000 (  1036 PWs)   bands (ev):

    -4.4592  -0.4970   3.9878   5.1547

          k =-0.2000 0.6000 0.0000 (  1036 PWs)   bands (ev):

    -5.5609   1.9097   4.1168   4.8888

          k = 0.7000-0.3000 0.9000 (  1041 PWs)   bands (ev):

    -4.7352   0.7436   3.3852   4.5077

          k = 0.6000-0.2000 0.8000 (  1037 PWs)   bands (ev):

    -4.0923  -0.0977   2.8681   4.4415

          k = 0.5000-0.1000 0.7000 (  1034 PWs)   bands (ev):

    -4.2723   0.1472   2.6662   4.7306

          k = 0.4000 0.0000 0.6000 (  1036 PWs)   bands (ev):

    -5.0497   1.0732   3.0735   5.2318

          k = 0.8000-0.2000 1.0000 (  1032 PWs)   bands (ev):

    -4.3208   0.4674   3.5742   3.9189

          k = 0.7000-0.1000 0.9000 (  1035 PWs)   bands (ev):

    -3.7252  -0.0515   2.6571   3.8229

          k = 0.6000 0.0000 0.8000 (  1036 PWs)   bands (ev):

    -3.7193   0.0094   2.0875   4.1584

          k =-0.2000-1.0000 0.0000 (  1030 PWs)   bands (ev):

    -3.5569  -0.3691   3.4688   3.4850

          k = 0.6000-0.2000 1.0000 (  1043 PWs)   bands (ev):

    -4.0190   0.2789   2.6159   3.8254

          k = 0.5000-0.1000 0.9000 (  1036 PWs)   bands (ev):

    -3.6583   0.0108   2.3723   3.5122

          k =-0.4000-1.0000 0.0000 (  1042 PWs)   bands (ev):

    -3.4811  -0.0793   2.7393   2.9072

     highest occupied level (ev):     6.8216

!    total energy              =     -19.25250400 Ry
     estimated scf accuracy    <       0.00001408 Ry

     The total energy is the sum of the following terms:
     one-electron contribution =       3.52615015 Ry
     hartree contribution      =       2.51718778 Ry
     xc contribution           =      -5.80475975 Ry
     ewald contribution        =     -19.49108218 Ry

     convergence has been achieved in   8 iterations
     Writing meta-gga kinetic term

     Writing all to output data dir ./input_pw/SiC/9/pwscf.save/
     Writing meta-gga kinetic term
 
     init_run     :      1.71s CPU      3.23s WALL (       1 calls)
     electrons    :     11.30s CPU     19.44s WALL (       1 calls)

     Called by init_run:
     wfcinit      :      1.58s CPU      3.03s WALL (       1 calls)
     potinit      :      0.02s CPU      0.03s WALL (       1 calls)
     hinit0       :      0.10s CPU      0.14s WALL (       1 calls)

     Called by electrons:
     c_bands      :      8.93s CPU     15.58s WALL (       8 calls)
     sum_band     :      2.15s CPU      3.53s WALL (       8 calls)
     v_of_rho     :      0.15s CPU      0.22s WALL (       9 calls)
     mix_rho      :      0.08s CPU      0.13s WALL (       8 calls)

     Called by c_bands:
     init_us_2    :      0.10s CPU      0.17s WALL (     799 calls)
     init_us_2:cp :      0.10s CPU      0.17s WALL (     799 calls)
     cegterg      :      8.84s CPU     15.45s WALL (     376 calls)

     Called by *egterg:
     cdiaghg      :      0.04s CPU      0.10s WALL (     885 calls)
     h_psi        :     10.22s CPU     18.07s WALL (     932 calls)
     g_psi        :      0.01s CPU      0.01s WALL (     509 calls)

     Called by h_psi:
     h_psi:calbec :      0.03s CPU      0.04s WALL (     932 calls)
     vloc_psi     :      2.52s CPU      4.30s WALL (     932 calls)
     add_vuspsi   :      0.03s CPU      0.08s WALL (     932 calls)
     h_psi_meta   :      7.63s CPU     13.61s WALL (     932 calls)

     General routines
     calbec       :      0.02s CPU      0.04s WALL (     932 calls)
     fft          :      0.03s CPU      0.09s WALL (     105 calls)
     ffts         :      0.04s CPU      0.08s WALL (     145 calls)
     fftw         :     11.00s CPU     19.29s WALL (   37688 calls)
     interpolate  :      0.00s CPU      0.00s WALL (       9 calls)
 
     Parallel routines
 
     PWSCF        :     13.07s CPU     22.81s WALL

 
   This run was terminated on:  14:31:20   7Jul2023            

=------------------------------------------------------------------------------=
   JOB DONE.
=------------------------------------------------------------------------------=
