
     Program PWSCF v.7.0 starts on 14Mar2023 at 12: 2:31 

     This program is part of the open-source Quantum ESPRESSO suite
     for quantum simulation of materials; please cite
         "P. Giannozzi et al., J. Phys.:Condens. Matter 21 395502 (2009);
         "P. Giannozzi et al., J. Phys.:Condens. Matter 29 465901 (2017);
         "P. Giannozzi et al., J. Chem. Phys. 152 154105 (2020);
          URL http://www.quantum-espresso.org", 
     in publications or presentations arising from this work. More details at
     http://www.quantum-espresso.org/quote

     Parallel version (MPI), running on     1 processors

     MPI processes distributed on     1 nodes
     27104 MiB available memory on the printing compute node when the environment starts
 
     Waiting for input...
     Reading input from standard input
Warning: card &CELL ignored
Warning: card / ignored

     Current dimensions of program PWSCF are:
     Max number of different atomic species (ntypx) = 10
     Max number of k-points (npk) =  40000
     Max angular momentum in pseudopotentials (lmaxx) =  4
     file Si.SCAN.UPF2: wavefunction(s)  0D renormalized

     WARNING: the MGGA functional with ID    5 has been 
     read together with other dft terms, but it should 
     stand alone in order to work properly. The other 
     terms will be ignored.

     WARNING: the MGGA functional with ID    5 has been 
     read together with other dft terms, but it should 
     stand alone in order to work properly. The other 
     terms will be ignored.

     Subspace diagonalization in iterative solution of the eigenvalue problem:
     a serial algorithm will be used

 
     G-vector sticks info
     --------------------
     sticks:   dense  smooth     PW     G-vecs:    dense   smooth      PW
     Sum         595     595    199                 9841     9841    1759
 
     Using Slab Decomposition
 


     bravais-lattice index     =            2
     lattice parameter (alat)  =       9.3590  a.u.
     unit-cell volume          =     204.9408 (a.u.)^3
     number of atoms/cell      =            2
     number of atomic types    =            2
     number of electrons       =         8.00
     number of Kohn-Sham states=            4
     kinetic-energy cutoff     =      50.0000  Ry
     charge density cutoff     =     200.0000  Ry
     scf convergence threshold =      1.0E-06
     mixing beta               =       0.0100
     number of iterations used =            8  local-TF  mixing
     Exchange-correlation= SLA  PW   SCAN SCAN
                           (   0   0   0   0   0 263 267)

     celldm(1)=   9.359000  celldm(2)=   0.000000  celldm(3)=   0.000000
     celldm(4)=   0.000000  celldm(5)=   0.000000  celldm(6)=   0.000000

     crystal axes: (cart. coord. in units of alat)
               a(1) = (  -0.500000   0.000000   0.500000 )  
               a(2) = (   0.000000   0.500000   0.500000 )  
               a(3) = (  -0.500000   0.500000   0.000000 )  

     reciprocal axes: (cart. coord. in units 2 pi/alat)
               b(1) = ( -1.000000 -1.000000  1.000000 )  
               b(2) = (  1.000000  1.000000  1.000000 )  
               b(3) = ( -1.000000  1.000000 -1.000000 )  


     PseudoPot. # 1 for Si read from file:
     ~/Documents/TA/PWDFT.jl/pseudopotentials/scan_upf/Si.SCAN.UPF2
     MD5 check sum: Not computed, couldn't open file
     Pseudo is Norm-conserving, Zval =  4.0
     Generated by new atomic code, or converted to UPF format
     Using radial grid of 1475 points,  2 beta functions with: 
                l(1) =   0
                l(2) =   1

     PseudoPot. # 2 for C  read from file:
     ~/Documents/TA/PWDFT.jl/pseudopotentials/scan_upf/C.SCAN.UPF2
     MD5 check sum: Not computed, couldn't open file
     Pseudo is Norm-conserving, Zval =  4.0
     Generated by new atomic code, or converted to UPF format
     Using radial grid of 1389 points,  1 beta functions with: 
                l(1) =   0

     atomic species   valence    mass     pseudopotential
        Si             4.00    28.08550     Si( 1.00)
        C              4.00    12.01100     C ( 1.00)

     24 Sym. Ops. (no inversion) found



   Cartesian axes

     site n.     atom                  positions (alat units)
         1           Si  tau(   1) = (   0.0000000   0.0000000   0.0000000  )
         2           C   tau(   2) = (   0.2500000   0.2500000   0.2500000  )

     number of k points=    47
                       cart. coord. in units 2pi/alat
        k(    1) = (   0.0000000   0.0000000   0.0000000), wk =   0.0020000
        k(    2) = (  -0.1000000   0.1000000  -0.1000000), wk =   0.0160000
        k(    3) = (  -0.2000000   0.2000000  -0.2000000), wk =   0.0160000
        k(    4) = (  -0.3000000   0.3000000  -0.3000000), wk =   0.0160000
        k(    5) = (  -0.4000000   0.4000000  -0.4000000), wk =   0.0160000
        k(    6) = (   0.5000000  -0.5000000   0.5000000), wk =   0.0080000
        k(    7) = (   0.0000000   0.2000000   0.0000000), wk =   0.0120000
        k(    8) = (  -0.1000000   0.3000000  -0.1000000), wk =   0.0480000
        k(    9) = (  -0.2000000   0.4000000  -0.2000000), wk =   0.0480000
        k(   10) = (  -0.3000000   0.5000000  -0.3000000), wk =   0.0480000
        k(   11) = (   0.6000000  -0.4000000   0.6000000), wk =   0.0480000
        k(   12) = (   0.5000000  -0.3000000   0.5000000), wk =   0.0480000
        k(   13) = (   0.4000000  -0.2000000   0.4000000), wk =   0.0480000
        k(   14) = (   0.3000000  -0.1000000   0.3000000), wk =   0.0480000
        k(   15) = (   0.2000000   0.0000000   0.2000000), wk =   0.0240000
        k(   16) = (   0.0000000   0.4000000   0.0000000), wk =   0.0120000
        k(   17) = (  -0.1000000   0.5000000  -0.1000000), wk =   0.0480000
        k(   18) = (  -0.2000000   0.6000000  -0.2000000), wk =   0.0480000
        k(   19) = (   0.7000000  -0.3000000   0.7000000), wk =   0.0480000
        k(   20) = (   0.6000000  -0.2000000   0.6000000), wk =   0.0480000
        k(   21) = (   0.5000000  -0.1000000   0.5000000), wk =   0.0480000
        k(   22) = (   0.4000000   0.0000000   0.4000000), wk =   0.0240000
        k(   23) = (   0.0000000   0.6000000   0.0000000), wk =   0.0120000
        k(   24) = (  -0.1000000   0.7000000  -0.1000000), wk =   0.0480000
        k(   25) = (   0.8000000  -0.2000000   0.8000000), wk =   0.0480000
        k(   26) = (   0.7000000  -0.1000000   0.7000000), wk =   0.0480000
        k(   27) = (   0.6000000  -0.0000000   0.6000000), wk =   0.0240000
        k(   28) = (   0.0000000   0.8000000   0.0000000), wk =   0.0120000
        k(   29) = (   0.9000000  -0.1000000   0.9000000), wk =   0.0480000
        k(   30) = (   0.8000000   0.0000000   0.8000000), wk =   0.0240000
        k(   31) = (   0.0000000  -1.0000000   0.0000000), wk =   0.0060000
        k(   32) = (  -0.2000000   0.4000000   0.0000000), wk =   0.0480000
        k(   33) = (  -0.3000000   0.5000000  -0.1000000), wk =   0.0960000
        k(   34) = (   0.6000000  -0.4000000   0.8000000), wk =   0.0960000
        k(   35) = (   0.5000000  -0.3000000   0.7000000), wk =   0.0480000
        k(   36) = (  -0.2000000   0.6000000   0.0000000), wk =   0.0480000
        k(   37) = (   0.7000000  -0.3000000   0.9000000), wk =   0.0960000
        k(   38) = (   0.6000000  -0.2000000   0.8000000), wk =   0.0960000
        k(   39) = (   0.5000000  -0.1000000   0.7000000), wk =   0.0960000
        k(   40) = (   0.4000000   0.0000000   0.6000000), wk =   0.0480000
        k(   41) = (   0.8000000  -0.2000000   1.0000000), wk =   0.0480000
        k(   42) = (   0.7000000  -0.1000000   0.9000000), wk =   0.0960000
        k(   43) = (   0.6000000   0.0000000   0.8000000), wk =   0.0480000
        k(   44) = (  -0.2000000  -1.0000000   0.0000000), wk =   0.0240000
        k(   45) = (   0.6000000  -0.2000000   1.0000000), wk =   0.0480000
        k(   46) = (   0.5000000  -0.1000000   0.9000000), wk =   0.0480000
        k(   47) = (  -0.4000000  -1.0000000   0.0000000), wk =   0.0240000

     Dense  grid:     9841 G-vectors     FFT dimensions: (  30,  30,  30)

     Estimated max dynamical RAM per process >      18.41 MB

     WARNING: libxc functional with ID  263 depends
      on external parameters: check the user_guide of
      QE if you need to modify them or to check their
      default values.

     Initial potential from superposition of free atoms

     starting charge       7.9995, renormalised to       8.0000
     Starting wfcs are   13 randomized atomic wfcs

     total cpu time spent up to now is        4.6 secs

     Self-consistent Calculation

     iteration #  1     ecut=    50.00 Ry     beta= 0.01
     Davidson diagonalization with overlap
     ethr =  1.00E-02,  avg # of iterations =  1.7

     total cpu time spent up to now is        8.3 secs

     total energy              =     -19.17416839 Ry
     estimated scf accuracy    <       1.42392761 Ry

     iteration #  2     ecut=    50.00 Ry     beta= 0.01
     Davidson diagonalization with overlap
     ethr =  1.00E-02,  avg # of iterations =  1.0

     total cpu time spent up to now is       11.4 secs

     total energy              =     -19.12641635 Ry
     estimated scf accuracy    <       1.40168501 Ry

     iteration #  3     ecut=    50.00 Ry     beta= 0.01
     Davidson diagonalization with overlap
     ethr =  1.00E-02,  avg # of iterations =  1.0

     total cpu time spent up to now is       14.5 secs

     total energy              =     -19.15374009 Ry
     estimated scf accuracy    <       0.05868770 Ry

     iteration #  4     ecut=    50.00 Ry     beta= 0.01
     Davidson diagonalization with overlap
     ethr =  7.34E-04,  avg # of iterations =  2.0

     total cpu time spent up to now is       18.6 secs

     total energy              =     -19.16548360 Ry
     estimated scf accuracy    <       0.03226203 Ry

     iteration #  5     ecut=    50.00 Ry     beta= 0.01
     Davidson diagonalization with overlap
     ethr =  4.03E-04,  avg # of iterations =  2.0

     total cpu time spent up to now is       22.5 secs

     total energy              =     -19.16933928 Ry
     estimated scf accuracy    <       0.12501865 Ry

     iteration #  6     ecut=    50.00 Ry     beta= 0.01
     Davidson diagonalization with overlap
     ethr =  4.03E-04,  avg # of iterations =  1.0

     total cpu time spent up to now is       26.0 secs

     total energy              =     -19.17357834 Ry
     estimated scf accuracy    <       0.15015432 Ry

     iteration #  7     ecut=    50.00 Ry     beta= 0.01
     Davidson diagonalization with overlap
     ethr =  4.03E-04,  avg # of iterations =  1.0

     total cpu time spent up to now is       29.3 secs

     total energy              =     -19.17301260 Ry
     estimated scf accuracy    <       0.05234441 Ry

     iteration #  8     ecut=    50.00 Ry     beta= 0.01
     Davidson diagonalization with overlap
     ethr =  4.03E-04,  avg # of iterations =  1.0

     total cpu time spent up to now is       32.6 secs

     total energy              =     -19.17328431 Ry
     estimated scf accuracy    <       0.01334818 Ry

     iteration #  9     ecut=    50.00 Ry     beta= 0.01
     Davidson diagonalization with overlap
     ethr =  1.67E-04,  avg # of iterations =  1.0

     total cpu time spent up to now is       35.7 secs

     total energy              =     -19.17303788 Ry
     estimated scf accuracy    <       0.01182588 Ry

     iteration # 10     ecut=    50.00 Ry     beta= 0.01
     Davidson diagonalization with overlap
     ethr =  1.48E-04,  avg # of iterations =  1.0

     total cpu time spent up to now is       38.9 secs

     total energy              =     -19.17038115 Ry
     estimated scf accuracy    <       0.01163001 Ry

     iteration # 11     ecut=    50.00 Ry     beta= 0.01
     Davidson diagonalization with overlap
     ethr =  1.45E-04,  avg # of iterations =  2.0

     total cpu time spent up to now is       42.4 secs

     total energy              =     -19.17202095 Ry
     estimated scf accuracy    <       0.00020718 Ry

     iteration # 12     ecut=    50.00 Ry     beta= 0.01
     Davidson diagonalization with overlap
     ethr =  2.59E-06,  avg # of iterations =  4.2

     total cpu time spent up to now is       48.2 secs

     total energy              =     -19.17272593 Ry
     estimated scf accuracy    <       0.00424186 Ry

     iteration # 13     ecut=    50.00 Ry     beta= 0.01
     Davidson diagonalization with overlap
     ethr =  2.59E-06,  avg # of iterations =  2.0

     total cpu time spent up to now is       51.8 secs

     total energy              =     -19.17264168 Ry
     estimated scf accuracy    <       0.00738810 Ry

     iteration # 14     ecut=    50.00 Ry     beta= 0.01
     Davidson diagonalization with overlap
     ethr =  2.59E-06,  avg # of iterations =  1.0

     total cpu time spent up to now is       54.8 secs

     total energy              =     -19.17147115 Ry
     estimated scf accuracy    <       0.00706111 Ry

     iteration # 15     ecut=    50.00 Ry     beta= 0.01
     Davidson diagonalization with overlap
     ethr =  2.59E-06,  avg # of iterations =  3.8

     total cpu time spent up to now is       60.1 secs

     total energy              =     -19.17177600 Ry
     estimated scf accuracy    <       0.00044652 Ry

     iteration # 16     ecut=    50.00 Ry     beta= 0.01
     Davidson diagonalization with overlap
     ethr =  2.59E-06,  avg # of iterations =  2.0

     total cpu time spent up to now is       63.2 secs

     total energy              =     -19.17183993 Ry
     estimated scf accuracy    <       0.00000759 Ry

     iteration # 17     ecut=    50.00 Ry     beta= 0.01
     Davidson diagonalization with overlap
     ethr =  9.49E-08,  avg # of iterations =  4.0

     total cpu time spent up to now is       66.9 secs

     total energy              =     -19.17186162 Ry
     estimated scf accuracy    <       0.00017838 Ry

     iteration # 18     ecut=    50.00 Ry     beta= 0.01
     Davidson diagonalization with overlap
     ethr =  9.49E-08,  avg # of iterations =  1.3

     total cpu time spent up to now is       69.4 secs

     total energy              =     -19.17182569 Ry
     estimated scf accuracy    <       0.00023733 Ry

     iteration # 19     ecut=    50.00 Ry     beta= 0.01
     Davidson diagonalization with overlap
     ethr =  9.49E-08,  avg # of iterations =  3.0

     total cpu time spent up to now is       73.0 secs

     total energy              =     -19.17182983 Ry
     estimated scf accuracy    <       0.00009790 Ry

     iteration # 20     ecut=    50.00 Ry     beta= 0.01
     Davidson diagonalization with overlap
     ethr =  9.49E-08,  avg # of iterations =  1.0

     total cpu time spent up to now is       74.8 secs

     total energy              =     -19.17182217 Ry
     estimated scf accuracy    <       0.00007986 Ry

     iteration # 21     ecut=    50.00 Ry     beta= 0.01
     Davidson diagonalization with overlap
     ethr =  9.49E-08,  avg # of iterations =  2.0

     total cpu time spent up to now is       76.9 secs

     total energy              =     -19.17181767 Ry
     estimated scf accuracy    <       0.00002472 Ry

     iteration # 22     ecut=    50.00 Ry     beta= 0.01
     Davidson diagonalization with overlap
     ethr =  9.49E-08,  avg # of iterations =  2.9

     total cpu time spent up to now is       79.4 secs

     End of self-consistent calculation

          k = 0.0000 0.0000 0.0000 (  1243 PWs)   bands (ev):

    -8.2492   5.1415   5.1415   5.1415

          k =-0.1000 0.1000-0.1000 (  1242 PWs)   bands (ev):

    -8.1038   4.0336   5.0200   5.0200

          k =-0.2000 0.2000-0.2000 (  1239 PWs)   bands (ev):

    -7.6789   2.1700   4.7417   4.7417

          k =-0.3000 0.3000-0.3000 (  1227 PWs)   bands (ev):

    -7.0208   0.3325   4.4546   4.4546

          k =-0.4000 0.4000-0.4000 (  1221 PWs)   bands (ev):

    -6.2746  -1.1656   4.2536   4.2536

          k = 0.5000-0.5000 0.5000 (  1224 PWs)   bands (ev):

    -5.8766  -1.8205   4.1817   4.1817

          k = 0.0000 0.2000 0.0000 (  1239 PWs)   bands (ev):

    -8.0551   4.0809   4.7616   4.7616

          k =-0.1000 0.3000-0.1000 (  1241 PWs)   bands (ev):

    -7.7224   2.6646   4.4065   4.5251

          k =-0.2000 0.4000-0.2000 (  1227 PWs)   bands (ev):

    -7.1374   0.9118   4.1110   4.1636

          k =-0.3000 0.5000-0.3000 (  1223 PWs)   bands (ev):

    -6.3991  -0.6757   3.7773   3.9584

          k = 0.6000-0.4000 0.6000 (  1212 PWs)   bands (ev):

    -5.8203  -1.6584   3.4936   3.9766

          k = 0.5000-0.3000 0.5000 (  1211 PWs)   bands (ev):

    -5.9614  -1.4335   3.3765   4.1548

          k = 0.4000-0.2000 0.4000 (  1224 PWs)   bands (ev):

    -6.6527  -0.1821   3.4587   4.4521

          k = 0.3000-0.1000 0.3000 (  1226 PWs)   bands (ev):

    -7.3584   1.4784   3.7653   4.7881

          k = 0.2000 0.0000 0.2000 (  1233 PWs)   bands (ev):

    -7.8647   3.0745   4.3418   5.0271

          k = 0.0000 0.4000 0.0000 (  1227 PWs)   bands (ev):

    -7.4849   2.3745   3.9835   3.9835

          k =-0.1000 0.5000-0.1000 (  1234 PWs)   bands (ev):

    -6.9878   1.1792   3.5210   3.6428

          k =-0.2000 0.6000-0.2000 (  1239 PWs)   bands (ev):

    -6.3020  -0.2038   2.9029   3.4743

          k = 0.7000-0.3000 0.7000 (  1221 PWs)   bands (ev):

    -5.6445  -1.2847   2.3621   3.5101

          k = 0.6000-0.2000 0.6000 (  1214 PWs)   bands (ev):

    -5.5268  -1.4512   2.0493   3.7381

          k = 0.5000-0.1000 0.5000 (  1226 PWs)   bands (ev):

    -6.0845  -0.5850   2.0678   4.1091

          k = 0.4000 0.0000 0.4000 (  1235 PWs)   bands (ev):

    -6.7940   0.5826   2.6069   4.5171

          k = 0.0000 0.6000 0.0000 (  1234 PWs)   bands (ev):

    -6.5849   0.6333   3.2492   3.2492

          k =-0.1000 0.7000-0.1000 (  1235 PWs)   bands (ev):

    -5.9844  -0.3074   2.6642   3.0330

          k = 0.8000-0.2000 0.8000 (  1218 PWs)   bands (ev):

    -5.3501  -1.1407   1.8127   3.0357

          k = 0.7000-0.1000 0.7000 (  1217 PWs)   bands (ev):

    -5.0821  -1.4267   1.2000   3.2537

          k = 0.6000-0.0000 0.6000 (  1212 PWs)   bands (ev):

    -5.4501  -1.0367   1.1937   3.6459

          k = 0.0000 0.8000 0.0000 (  1238 PWs)   bands (ev):

    -5.4989  -0.9658   2.7586   2.7586

          k = 0.9000-0.1000 0.9000 (  1219 PWs)   bands (ev):

    -5.0067  -1.5353   2.2019   2.7057

          k = 0.8000 0.0000 0.8000 (  1230 PWs)   bands (ev):

    -4.8276  -1.6224   1.3891   2.8801

          k = 0.0000-1.0000 0.0000 (  1234 PWs)   bands (ev):

    -4.8301  -1.8097   2.5890   2.5890

          k =-0.2000 0.4000 0.0000 (  1238 PWs)   bands (ev):

    -7.3073   1.6799   3.5051   4.4099

          k =-0.3000 0.5000-0.1000 (  1230 PWs)   bands (ev):

    -6.6672   0.3045   2.8847   4.0961

          k = 0.6000-0.4000 0.8000 (  1222 PWs)   bands (ev):

    -5.9478  -0.9966   2.6007   3.7772

          k = 0.5000-0.3000 0.7000 (  1216 PWs)   bands (ev):

    -5.5687  -1.5880   2.5230   3.6469

          k =-0.2000 0.6000 0.0000 (  1238 PWs)   bands (ev):

    -6.4353   0.2916   2.7483   3.4134

          k = 0.7000-0.3000 0.9000 (  1221 PWs)   bands (ev):

    -5.7557  -0.7055   2.0935   3.1025

          k = 0.6000-0.2000 0.8000 (  1216 PWs)   bands (ev):

    -5.2526  -1.3770   1.6326   3.0470

          k = 0.5000-0.1000 0.7000 (  1219 PWs)   bands (ev):

    -5.3949  -1.1826   1.4822   3.2855

          k = 0.4000 0.0000 0.6000 (  1222 PWs)   bands (ev):

    -6.0189  -0.4060   1.8533   3.7070

          k = 0.8000-0.2000 1.0000 (  1221 PWs)   bands (ev):

    -5.4060  -1.0129   2.2861   2.6061

          k = 0.7000-0.1000 0.9000 (  1220 PWs)   bands (ev):

    -4.9404  -1.4613   1.5501   2.5183

          k = 0.6000 0.0000 0.8000 (  1221 PWs)   bands (ev):

    -4.9481  -1.4119   1.0916   2.7998

          k =-0.2000-1.0000 0.0000 (  1210 PWs)   bands (ev):

    -4.8004  -1.7105   2.2131   2.2285

          k = 0.6000-0.2000 1.0000 (  1219 PWs)   bands (ev):

    -5.1781  -1.1769   1.4963   2.5414

          k = 0.5000-0.1000 0.9000 (  1216 PWs)   bands (ev):

    -4.8972  -1.4178   1.3090   2.2821

          k =-0.4000-1.0000 0.0000 (  1216 PWs)   bands (ev):

    -4.7509  -1.5244   1.6518   1.7638

     highest occupied level (ev):     5.1415

!    total energy              =     -19.17182117 Ry
     estimated scf accuracy    <       0.00000044 Ry

     The total energy is the sum of the following terms:
     one-electron contribution =       2.18111936 Ry
     hartree contribution      =       2.65966423 Ry
     xc contribution           =      -5.59423339 Ry
     ewald contribution        =     -18.41837137 Ry

     convergence has been achieved in  22 iterations
     Writing meta-gga kinetic term

     Writing all to output data dir ./input_pw/SiC/9/pwscf.save/
     Writing meta-gga kinetic term
 
     init_run     :      1.72s CPU      4.49s WALL (       1 calls)
     electrons    :     36.41s CPU     74.75s WALL (       1 calls)

     Called by init_run:
     wfcinit      :      1.59s CPU      4.08s WALL (       1 calls)
     potinit      :      0.02s CPU      0.13s WALL (       1 calls)
     hinit0       :      0.09s CPU      0.24s WALL (       1 calls)

     Called by electrons:
     c_bands      :     29.82s CPU     61.14s WALL (      22 calls)
     sum_band     :      5.89s CPU     12.17s WALL (      22 calls)
     v_of_rho     :      0.39s CPU      0.87s WALL (      23 calls)
     mix_rho      :      0.31s CPU      0.65s WALL (      22 calls)

     Called by c_bands:
     init_us_2    :      0.33s CPU      0.69s WALL (    2115 calls)
     init_us_2:cp :      0.32s CPU      0.68s WALL (    2115 calls)
     cegterg      :     29.51s CPU     60.49s WALL (    1034 calls)

     Called by *egterg:
     cdiaghg      :      0.17s CPU      0.29s WALL (    3005 calls)
     h_psi        :     30.34s CPU     63.03s WALL (    3052 calls)
     g_psi        :      0.03s CPU      0.05s WALL (    1971 calls)

     Called by h_psi:
     h_psi:calbec :      0.11s CPU      0.17s WALL (    3052 calls)
     vloc_psi     :      7.45s CPU     15.83s WALL (    3052 calls)
     add_vuspsi   :      0.11s CPU      0.17s WALL (    3052 calls)
     h_psi_meta   :     22.62s CPU     46.75s WALL (    3052 calls)

     General routines
     calbec       :      0.10s CPU      0.16s WALL (    3052 calls)
     fft          :      0.08s CPU      0.28s WALL (     273 calls)
     ffts         :      0.13s CPU      0.25s WALL (     441 calls)
     fftw         :     31.72s CPU     65.87s WALL (  110824 calls)
     interpolate  :      0.00s CPU      0.01s WALL (      23 calls)
 
     Parallel routines
 
     PWSCF        :     38.19s CPU   1m19.39s WALL

 
   This run was terminated on:  12: 3:50  14Mar2023            

=------------------------------------------------------------------------------=
   JOB DONE.
=------------------------------------------------------------------------------=
