
     Program PWSCF v.7.0 starts on 29Mar2023 at 12:56: 4 

     This program is part of the open-source Quantum ESPRESSO suite
     for quantum simulation of materials; please cite
         "P. Giannozzi et al., J. Phys.:Condens. Matter 21 395502 (2009);
         "P. Giannozzi et al., J. Phys.:Condens. Matter 29 465901 (2017);
         "P. Giannozzi et al., J. Chem. Phys. 152 154105 (2020);
          URL http://www.quantum-espresso.org", 
     in publications or presentations arising from this work. More details at
     http://www.quantum-espresso.org/quote

     Parallel version (MPI), running on     1 processors

     MPI processes distributed on     1 nodes
     23212 MiB available memory on the printing compute node when the environment starts
 
     Waiting for input...
     Reading input from standard input
Warning: card &CELL ignored
Warning: card / ignored

     Current dimensions of program PWSCF are:
     Max number of different atomic species (ntypx) = 10
     Max number of k-points (npk) =  40000
     Max angular momentum in pseudopotentials (lmaxx) =  4
     file Si.SCAN.UPF2: wavefunction(s)  0D renormalized

     WARNING: the MGGA functional with ID    5 has been 
     read together with other dft terms, but it should 
     stand alone in order to work properly. The other 
     terms will be ignored.

     WARNING: the MGGA functional with ID    5 has been 
     read together with other dft terms, but it should 
     stand alone in order to work properly. The other 
     terms will be ignored.

     Subspace diagonalization in iterative solution of the eigenvalue problem:
     a serial algorithm will be used

 
     G-vector sticks info
     --------------------
     sticks:   dense  smooth     PW     G-vecs:    dense   smooth      PW
     Sum         685     685    211                11935    11935    2085
 
     Using Slab Decomposition
 


     bravais-lattice index     =            2
     lattice parameter (alat)  =       9.9778  a.u.
     unit-cell volume          =     248.3353 (a.u.)^3
     number of atoms/cell      =            2
     number of atomic types    =            2
     number of electrons       =         8.00
     number of Kohn-Sham states=            4
     kinetic-energy cutoff     =      50.0000  Ry
     charge density cutoff     =     200.0000  Ry
     scf convergence threshold =      1.0E-06
     mixing beta               =       0.0100
     number of iterations used =            8  local-TF  mixing
     Exchange-correlation= SLA  PW   SCAN SCAN
                           (   0   0   0   0   0 263 267)

     celldm(1)=   9.977754  celldm(2)=   0.000000  celldm(3)=   0.000000
     celldm(4)=   0.000000  celldm(5)=   0.000000  celldm(6)=   0.000000

     crystal axes: (cart. coord. in units of alat)
               a(1) = (  -0.500000   0.000000   0.500000 )  
               a(2) = (   0.000000   0.500000   0.500000 )  
               a(3) = (  -0.500000   0.500000   0.000000 )  

     reciprocal axes: (cart. coord. in units 2 pi/alat)
               b(1) = ( -1.000000 -1.000000  1.000000 )  
               b(2) = (  1.000000  1.000000  1.000000 )  
               b(3) = ( -1.000000  1.000000 -1.000000 )  


     PseudoPot. # 1 for Si read from file:
     ~/Documents/TA/PWDFT.jl/pseudopotentials/scan_upf/Si.SCAN.UPF2
     MD5 check sum: Not computed, couldn't open file
     Pseudo is Norm-conserving, Zval =  4.0
     Generated by new atomic code, or converted to UPF format
     Using radial grid of 1475 points,  2 beta functions with: 
                l(1) =   0
                l(2) =   1

     PseudoPot. # 2 for C  read from file:
     ~/Documents/TA/PWDFT.jl/pseudopotentials/scan_upf/C.SCAN.UPF2
     MD5 check sum: Not computed, couldn't open file
     Pseudo is Norm-conserving, Zval =  4.0
     Generated by new atomic code, or converted to UPF format
     Using radial grid of 1389 points,  1 beta functions with: 
                l(1) =   0

     atomic species   valence    mass     pseudopotential
        Si             4.00    28.08550     Si( 1.00)
        C              4.00    12.01100     C ( 1.00)

     24 Sym. Ops. (no inversion) found



   Cartesian axes

     site n.     atom                  positions (alat units)
         1           Si  tau(   1) = (   0.0000000   0.0000000   0.0000000  )
         2           C   tau(   2) = (   0.2500000   0.2500000   0.2500000  )

     number of k points=    47
                       cart. coord. in units 2pi/alat
        k(    1) = (   0.0000000   0.0000000   0.0000000), wk =   0.0020000
        k(    2) = (  -0.1000000   0.1000000  -0.1000000), wk =   0.0160000
        k(    3) = (  -0.2000000   0.2000000  -0.2000000), wk =   0.0160000
        k(    4) = (  -0.3000000   0.3000000  -0.3000000), wk =   0.0160000
        k(    5) = (  -0.4000000   0.4000000  -0.4000000), wk =   0.0160000
        k(    6) = (   0.5000000  -0.5000000   0.5000000), wk =   0.0080000
        k(    7) = (   0.0000000   0.2000000   0.0000000), wk =   0.0120000
        k(    8) = (  -0.1000000   0.3000000  -0.1000000), wk =   0.0480000
        k(    9) = (  -0.2000000   0.4000000  -0.2000000), wk =   0.0480000
        k(   10) = (  -0.3000000   0.5000000  -0.3000000), wk =   0.0480000
        k(   11) = (   0.6000000  -0.4000000   0.6000000), wk =   0.0480000
        k(   12) = (   0.5000000  -0.3000000   0.5000000), wk =   0.0480000
        k(   13) = (   0.4000000  -0.2000000   0.4000000), wk =   0.0480000
        k(   14) = (   0.3000000  -0.1000000   0.3000000), wk =   0.0480000
        k(   15) = (   0.2000000   0.0000000   0.2000000), wk =   0.0240000
        k(   16) = (   0.0000000   0.4000000   0.0000000), wk =   0.0120000
        k(   17) = (  -0.1000000   0.5000000  -0.1000000), wk =   0.0480000
        k(   18) = (  -0.2000000   0.6000000  -0.2000000), wk =   0.0480000
        k(   19) = (   0.7000000  -0.3000000   0.7000000), wk =   0.0480000
        k(   20) = (   0.6000000  -0.2000000   0.6000000), wk =   0.0480000
        k(   21) = (   0.5000000  -0.1000000   0.5000000), wk =   0.0480000
        k(   22) = (   0.4000000   0.0000000   0.4000000), wk =   0.0240000
        k(   23) = (   0.0000000   0.6000000   0.0000000), wk =   0.0120000
        k(   24) = (  -0.1000000   0.7000000  -0.1000000), wk =   0.0480000
        k(   25) = (   0.8000000  -0.2000000   0.8000000), wk =   0.0480000
        k(   26) = (   0.7000000  -0.1000000   0.7000000), wk =   0.0480000
        k(   27) = (   0.6000000  -0.0000000   0.6000000), wk =   0.0240000
        k(   28) = (   0.0000000   0.8000000   0.0000000), wk =   0.0120000
        k(   29) = (   0.9000000  -0.1000000   0.9000000), wk =   0.0480000
        k(   30) = (   0.8000000   0.0000000   0.8000000), wk =   0.0240000
        k(   31) = (   0.0000000  -1.0000000   0.0000000), wk =   0.0060000
        k(   32) = (  -0.2000000   0.4000000   0.0000000), wk =   0.0480000
        k(   33) = (  -0.3000000   0.5000000  -0.1000000), wk =   0.0960000
        k(   34) = (   0.6000000  -0.4000000   0.8000000), wk =   0.0960000
        k(   35) = (   0.5000000  -0.3000000   0.7000000), wk =   0.0480000
        k(   36) = (  -0.2000000   0.6000000   0.0000000), wk =   0.0480000
        k(   37) = (   0.7000000  -0.3000000   0.9000000), wk =   0.0960000
        k(   38) = (   0.6000000  -0.2000000   0.8000000), wk =   0.0960000
        k(   39) = (   0.5000000  -0.1000000   0.7000000), wk =   0.0960000
        k(   40) = (   0.4000000   0.0000000   0.6000000), wk =   0.0480000
        k(   41) = (   0.8000000  -0.2000000   1.0000000), wk =   0.0480000
        k(   42) = (   0.7000000  -0.1000000   0.9000000), wk =   0.0960000
        k(   43) = (   0.6000000   0.0000000   0.8000000), wk =   0.0480000
        k(   44) = (  -0.2000000  -1.0000000   0.0000000), wk =   0.0240000
        k(   45) = (   0.6000000  -0.2000000   1.0000000), wk =   0.0480000
        k(   46) = (   0.5000000  -0.1000000   0.9000000), wk =   0.0480000
        k(   47) = (  -0.4000000  -1.0000000   0.0000000), wk =   0.0240000

     Dense  grid:    11935 G-vectors     FFT dimensions: (  32,  32,  32)

     Estimated max dynamical RAM per process >      22.29 MB

     WARNING: libxc functional with ID  263 depends
      on external parameters: check the user_guide of
      QE if you need to modify them or to check their
      default values.

     Initial potential from superposition of free atoms

     starting charge       7.9995, renormalised to       8.0000
     Starting wfcs are   13 randomized atomic wfcs

     total cpu time spent up to now is        2.5 secs

     Self-consistent Calculation

     iteration #  1     ecut=    50.00 Ry     beta= 0.01
     Davidson diagonalization with overlap
     ethr =  1.00E-02,  avg # of iterations =  1.4

     total cpu time spent up to now is        4.7 secs

     total energy              =     -19.05466467 Ry
     estimated scf accuracy    <       1.13207525 Ry

     iteration #  2     ecut=    50.00 Ry     beta= 0.01
     Davidson diagonalization with overlap
     ethr =  1.00E-02,  avg # of iterations =  1.0

     total cpu time spent up to now is        6.8 secs

     total energy              =     -19.01786595 Ry
     estimated scf accuracy    <       1.11327753 Ry

     iteration #  3     ecut=    50.00 Ry     beta= 0.01
     Davidson diagonalization with overlap
     ethr =  1.00E-02,  avg # of iterations =  1.0

     total cpu time spent up to now is        8.9 secs

     total energy              =     -19.02886455 Ry
     estimated scf accuracy    <       0.12398610 Ry

     iteration #  4     ecut=    50.00 Ry     beta= 0.01
     Davidson diagonalization with overlap
     ethr =  1.55E-03,  avg # of iterations =  2.0

     total cpu time spent up to now is       11.5 secs

     total energy              =     -19.04510735 Ry
     estimated scf accuracy    <       0.02703271 Ry

     iteration #  5     ecut=    50.00 Ry     beta= 0.01
     Davidson diagonalization with overlap
     ethr =  3.38E-04,  avg # of iterations =  2.2

     total cpu time spent up to now is       14.2 secs

     total energy              =     -19.05089821 Ry
     estimated scf accuracy    <       0.10065675 Ry

     iteration #  6     ecut=    50.00 Ry     beta= 0.01
     Davidson diagonalization with overlap
     ethr =  3.38E-04,  avg # of iterations =  1.0

     total cpu time spent up to now is       16.3 secs

     total energy              =     -19.05438104 Ry
     estimated scf accuracy    <       0.12812147 Ry

     iteration #  7     ecut=    50.00 Ry     beta= 0.01
     Davidson diagonalization with overlap
     ethr =  3.38E-04,  avg # of iterations =  1.0

     total cpu time spent up to now is       18.4 secs

     total energy              =     -19.05555975 Ry
     estimated scf accuracy    <       0.03369619 Ry

     iteration #  8     ecut=    50.00 Ry     beta= 0.01
     Davidson diagonalization with overlap
     ethr =  3.38E-04,  avg # of iterations =  1.0

     total cpu time spent up to now is       20.5 secs

     total energy              =     -19.05537851 Ry
     estimated scf accuracy    <       0.02472297 Ry

     iteration #  9     ecut=    50.00 Ry     beta= 0.01
     Davidson diagonalization with overlap
     ethr =  3.09E-04,  avg # of iterations =  1.0

     total cpu time spent up to now is       22.5 secs

     total energy              =     -19.05210049 Ry
     estimated scf accuracy    <       0.02276135 Ry

     iteration # 10     ecut=    50.00 Ry     beta= 0.01
     Davidson diagonalization with overlap
     ethr =  2.85E-04,  avg # of iterations =  1.0

     total cpu time spent up to now is       24.6 secs

     total energy              =     -19.05125124 Ry
     estimated scf accuracy    <       0.00454277 Ry

     iteration # 11     ecut=    50.00 Ry     beta= 0.01
     Davidson diagonalization with overlap
     ethr =  5.68E-05,  avg # of iterations =  2.5

     total cpu time spent up to now is       27.0 secs

     total energy              =     -19.05306698 Ry
     estimated scf accuracy    <       0.00387962 Ry

     iteration # 12     ecut=    50.00 Ry     beta= 0.01
     Davidson diagonalization with overlap
     ethr =  4.85E-05,  avg # of iterations =  1.0

     total cpu time spent up to now is       28.5 secs

     total energy              =     -19.05316732 Ry
     estimated scf accuracy    <       0.00304410 Ry

     iteration # 13     ecut=    50.00 Ry     beta= 0.01
     Davidson diagonalization with overlap
     ethr =  3.81E-05,  avg # of iterations =  1.0

     total cpu time spent up to now is       30.2 secs

     total energy              =     -19.05257559 Ry
     estimated scf accuracy    <       0.00381988 Ry

     iteration # 14     ecut=    50.00 Ry     beta= 0.01
     Davidson diagonalization with overlap
     ethr =  3.81E-05,  avg # of iterations =  1.0

     total cpu time spent up to now is       31.6 secs

     total energy              =     -19.05255214 Ry
     estimated scf accuracy    <       0.00110314 Ry

     iteration # 15     ecut=    50.00 Ry     beta= 0.01
     Davidson diagonalization with overlap
     ethr =  1.38E-05,  avg # of iterations =  1.0

     total cpu time spent up to now is       33.3 secs

     total energy              =     -19.05261020 Ry
     estimated scf accuracy    <       0.00023774 Ry

     iteration # 16     ecut=    50.00 Ry     beta= 0.01
     Davidson diagonalization with overlap
     ethr =  2.97E-06,  avg # of iterations =  2.0

     total cpu time spent up to now is       35.6 secs

     total energy              =     -19.05264324 Ry
     estimated scf accuracy    <       0.00008617 Ry

     iteration # 17     ecut=    50.00 Ry     beta= 0.01
     Davidson diagonalization with overlap
     ethr =  1.08E-06,  avg # of iterations =  1.0

     total cpu time spent up to now is       37.0 secs

     total energy              =     -19.05265672 Ry
     estimated scf accuracy    <       0.00009065 Ry

     iteration # 18     ecut=    50.00 Ry     beta= 0.01
     Davidson diagonalization with overlap
     ethr =  1.08E-06,  avg # of iterations =  1.0

     total cpu time spent up to now is       38.6 secs

     total energy              =     -19.05263672 Ry
     estimated scf accuracy    <       0.00013516 Ry

     iteration # 19     ecut=    50.00 Ry     beta= 0.01
     Davidson diagonalization with overlap
     ethr =  1.08E-06,  avg # of iterations =  1.0

     total cpu time spent up to now is       39.9 secs

     total energy              =     -19.05263815 Ry
     estimated scf accuracy    <       0.00003073 Ry

     iteration # 20     ecut=    50.00 Ry     beta= 0.01
     Davidson diagonalization with overlap
     ethr =  3.84E-07,  avg # of iterations =  1.0

     total cpu time spent up to now is       41.5 secs

     total energy              =     -19.05263859 Ry
     estimated scf accuracy    <       0.00001115 Ry

     iteration # 21     ecut=    50.00 Ry     beta= 0.01
     Davidson diagonalization with overlap
     ethr =  1.39E-07,  avg # of iterations =  2.0

     total cpu time spent up to now is       43.4 secs

     total energy              =     -19.05263993 Ry
     estimated scf accuracy    <       0.00000197 Ry

     iteration # 22     ecut=    50.00 Ry     beta= 0.01
     Davidson diagonalization with overlap
     ethr =  2.46E-08,  avg # of iterations =  2.5

     total cpu time spent up to now is       45.4 secs

     End of self-consistent calculation

          k = 0.0000 0.0000 0.0000 (  1459 PWs)   bands (ev):

    -8.8003   3.4769   3.4769   3.4769

          k =-0.1000 0.1000-0.1000 (  1459 PWs)   bands (ev):

    -8.6796   2.0858   3.3676   3.3676

          k =-0.2000 0.2000-0.2000 (  1471 PWs)   bands (ev):

    -8.3291   0.4308   3.1170   3.1170

          k =-0.3000 0.3000-0.3000 (  1471 PWs)   bands (ev):

    -7.7953  -1.1216   2.8572   2.8572

          k =-0.4000 0.4000-0.4000 (  1486 PWs)   bands (ev):

    -7.2125  -2.3488   2.6748   2.6748

          k = 0.5000-0.5000 0.5000 (  1476 PWs)   bands (ev):

    -6.9187  -2.8620   2.6116   2.6116

          k = 0.0000 0.2000 0.0000 (  1459 PWs)   bands (ev):

    -8.6391   2.0080   3.1514   3.1514

          k =-0.1000 0.3000-0.1000 (  1469 PWs)   bands (ev):

    -8.3640   0.7794   2.8433   2.8960

          k =-0.2000 0.4000-0.2000 (  1477 PWs)   bands (ev):

    -7.8866  -0.6859   2.5439   2.5802

          k =-0.3000 0.5000-0.3000 (  1476 PWs)   bands (ev):

    -7.3014  -1.9857   2.1922   2.4374

          k = 0.6000-0.4000 0.6000 (  1482 PWs)   bands (ev):

    -6.8670  -2.7610   1.9466   2.4431

          k = 0.5000-0.3000 0.5000 (  1481 PWs)   bands (ev):

    -6.9704  -2.5867   1.8612   2.5890

          k = 0.4000-0.2000 0.4000 (  1479 PWs)   bands (ev):

    -7.5001  -1.5851   1.9616   2.8435

          k = 0.3000-0.1000 0.3000 (  1479 PWs)   bands (ev):

    -8.0664  -0.2140   2.2646   3.1394

          k = 0.2000 0.0000 0.2000 (  1464 PWs)   bands (ev):

    -8.4817   1.1578   2.7899   3.3593

          k = 0.0000 0.4000 0.0000 (  1479 PWs)   bands (ev):

    -8.1673   0.3979   2.4830   2.4830

          k =-0.1000 0.5000-0.1000 (  1478 PWs)   bands (ev):

    -7.7605  -0.6043   2.0542   2.1886

          k =-0.2000 0.6000-0.2000 (  1472 PWs)   bands (ev):

    -7.2123  -1.7204   1.4934   2.0381

          k = 0.7000-0.3000 0.7000 (  1477 PWs)   bands (ev):

    -6.7114  -2.5637   1.0193   2.0591

          k = 0.6000-0.2000 0.6000 (  1491 PWs)   bands (ev):

    -6.6279  -2.6868   0.7673   2.2440

          k = 0.5000-0.1000 0.5000 (  1483 PWs)   bands (ev):

    -7.0481  -2.0175   0.8256   2.5547

          k = 0.4000 0.0000 0.4000 (  1484 PWs)   bands (ev):

    -7.6086  -1.0543   1.3118   2.9017

          k = 0.0000 0.6000 0.0000 (  1479 PWs)   bands (ev):

    -7.4305  -1.1331   1.8530   1.8530

          k =-0.1000 0.7000-0.1000 (  1483 PWs)   bands (ev):

    -6.9501  -1.9212   1.3631   1.6655

          k = 0.8000-0.2000 0.8000 (  1476 PWs)   bands (ev):

    -6.4647  -2.5908   0.6659   1.6626

          k = 0.7000-0.1000 0.7000 (  1492 PWs)   bands (ev):

    -6.2754  -2.8078   0.1759   1.8404

          k = 0.6000-0.0000 0.6000 (  1490 PWs)   bands (ev):

    -6.5553  -2.4849   0.1712   2.1672

          k = 0.0000 0.8000 0.0000 (  1480 PWs)   bands (ev):

    -6.5647  -2.4724   1.4328   1.4328

          k = 0.9000-0.1000 0.9000 (  1491 PWs)   bands (ev):

    -6.1939  -2.9299   0.9888   1.3839

          k = 0.8000 0.0000 0.8000 (  1496 PWs)   bands (ev):

    -6.0719  -3.0069   0.3574   1.5290

          k = 0.0000-1.0000 0.0000 (  1524 PWs)   bands (ev):

    -6.0623  -3.1337   1.2840   1.2840

          k =-0.2000 0.4000 0.0000 (  1482 PWs)   bands (ev):

    -8.0230  -0.1238   2.0736   2.8056

          k =-0.3000 0.5000-0.1000 (  1477 PWs)   bands (ev):

    -7.5059  -1.2711   1.5089   2.5402

          k = 0.6000-0.4000 0.8000 (  1487 PWs)   bands (ev):

    -6.9457  -2.3073   1.2152   2.2801

          k = 0.5000-0.3000 0.7000 (  1490 PWs)   bands (ev):

    -6.6660  -2.7605   1.1276   2.1765

          k =-0.2000 0.6000 0.0000 (  1483 PWs)   bands (ev):

    -7.3136  -1.3893   1.4318   1.9834

          k = 0.7000-0.3000 0.9000 (  1481 PWs)   bands (ev):

    -6.7805  -2.2088   0.8683   1.7357

          k = 0.6000-0.2000 0.8000 (  1493 PWs)   bands (ev):

    -6.4066  -2.7239   0.4739   1.6899

          k = 0.5000-0.1000 0.7000 (  1492 PWs)   bands (ev):

    -6.5140  -2.5750   0.3687   1.8811

          k = 0.4000 0.0000 0.6000 (  1481 PWs)   bands (ev):

    -6.9910  -1.9438   0.6911   2.2239

          k = 0.8000-0.2000 1.0000 (  1482 PWs)   bands (ev):

    -6.4989  -2.5160   1.0492   1.3298

          k = 0.7000-0.1000 0.9000 (  1481 PWs)   bands (ev):

    -6.1549  -2.8846   0.4786   1.2541

          k = 0.6000 0.0000 0.8000 (  1489 PWs)   bands (ev):

    -6.1702  -2.8428   0.1195   1.4826

          k =-0.2000-1.0000 0.0000 (  1494 PWs)   bands (ev):

    -6.0448  -3.0723   0.9983   1.0116

          k = 0.6000-0.2000 1.0000 (  1476 PWs)   bands (ev):

    -6.3375  -2.6522   0.4224   1.2908

          k = 0.5000-0.1000 0.9000 (  1482 PWs)   bands (ev):

    -6.1301  -2.8575   0.2830   1.0830

          k =-0.4000-1.0000 0.0000 (  1492 PWs)   bands (ev):

    -6.0161  -2.9637   0.5831   0.6540

     highest occupied level (ev):     3.4769

!    total energy              =     -19.05264027 Ry
     estimated scf accuracy    <       0.00000041 Ry

     The total energy is the sum of the following terms:
     one-electron contribution =       0.76819120 Ry
     hartree contribution      =       2.83594681 Ry
     xc contribution           =      -5.38059179 Ry
     ewald contribution        =     -17.27618648 Ry

     convergence has been achieved in  22 iterations
     Writing meta-gga kinetic term

     Writing all to output data dir ./input_pw/SiC/14/pwscf.save/
     Writing meta-gga kinetic term
 
     init_run     :      1.37s CPU      2.44s WALL (       1 calls)
     electrons    :     24.17s CPU     42.86s WALL (       1 calls)

     Called by init_run:
     wfcinit      :      1.23s CPU      2.18s WALL (       1 calls)
     potinit      :      0.03s CPU      0.03s WALL (       1 calls)
     hinit0       :      0.09s CPU      0.18s WALL (       1 calls)

     Called by electrons:
     c_bands      :     18.81s CPU     33.51s WALL (      22 calls)
     sum_band     :      4.63s CPU      8.13s WALL (      22 calls)
     v_of_rho     :      0.43s CPU      0.74s WALL (      23 calls)
     mix_rho      :      0.31s CPU      0.49s WALL (      22 calls)

     Called by c_bands:
     init_us_2    :      0.39s CPU      0.61s WALL (    2115 calls)
     init_us_2:cp :      0.38s CPU      0.61s WALL (    2115 calls)
     cegterg      :     18.46s CPU     32.96s WALL (    1034 calls)

     Called by *egterg:
     cdiaghg      :      0.11s CPU      0.21s WALL (    2426 calls)
     h_psi        :     19.11s CPU     34.08s WALL (    2473 calls)
     g_psi        :      0.02s CPU      0.08s WALL (    1392 calls)

     Called by h_psi:
     h_psi:calbec :      0.09s CPU      0.19s WALL (    2473 calls)
     vloc_psi     :      4.67s CPU      8.36s WALL (    2473 calls)
     add_vuspsi   :      0.09s CPU      0.17s WALL (    2473 calls)
     h_psi_meta   :     14.22s CPU     25.24s WALL (    2473 calls)

     General routines
     calbec       :      0.08s CPU      0.15s WALL (    2473 calls)
     fft          :      0.06s CPU      0.12s WALL (     273 calls)
     ffts         :      0.10s CPU      0.18s WALL (     481 calls)
     fftw         :     19.54s CPU     34.58s WALL (   94448 calls)
     interpolate  :      0.00s CPU      0.00s WALL (      23 calls)
 
     Parallel routines
 
     PWSCF        :     25.59s CPU     45.44s WALL

 
   This run was terminated on:  12:56:50  29Mar2023            

=------------------------------------------------------------------------------=
   JOB DONE.
=------------------------------------------------------------------------------=
