
     Program PWSCF v.7.0 starts on 14Mar2023 at 12: 2:31 

     This program is part of the open-source Quantum ESPRESSO suite
     for quantum simulation of materials; please cite
         "P. Giannozzi et al., J. Phys.:Condens. Matter 21 395502 (2009);
         "P. Giannozzi et al., J. Phys.:Condens. Matter 29 465901 (2017);
         "P. Giannozzi et al., J. Chem. Phys. 152 154105 (2020);
          URL http://www.quantum-espresso.org", 
     in publications or presentations arising from this work. More details at
     http://www.quantum-espresso.org/quote

     Parallel version (MPI), running on     1 processors

     MPI processes distributed on     1 nodes
     26920 MiB available memory on the printing compute node when the environment starts
 
     Waiting for input...
     Reading input from standard input
Warning: card &CELL ignored
Warning: card / ignored

     Current dimensions of program PWSCF are:
     Max number of different atomic species (ntypx) = 10
     Max number of k-points (npk) =  40000
     Max angular momentum in pseudopotentials (lmaxx) =  4
     file Si.SCAN.UPF2: wavefunction(s)  0D renormalized

     WARNING: the MGGA functional with ID    5 has been 
     read together with other dft terms, but it should 
     stand alone in order to work properly. The other 
     terms will be ignored.

     WARNING: the MGGA functional with ID    5 has been 
     read together with other dft terms, but it should 
     stand alone in order to work properly. The other 
     terms will be ignored.

     Subspace diagonalization in iterative solution of the eigenvalue problem:
     a serial algorithm will be used

 
     G-vector sticks info
     --------------------
     sticks:   dense  smooth     PW     G-vecs:    dense   smooth      PW
     Sum         871     871    265                17153    17153    2891
 
     Using Slab Decomposition
 


     bravais-lattice index     =            2
     lattice parameter (alat)  =      11.2960  a.u.
     unit-cell volume          =     360.3413 (a.u.)^3
     number of atoms/cell      =            2
     number of atomic types    =            2
     number of electrons       =         8.00
     number of Kohn-Sham states=            4
     kinetic-energy cutoff     =      50.0000  Ry
     charge density cutoff     =     200.0000  Ry
     scf convergence threshold =      1.0E-06
     mixing beta               =       0.0100
     number of iterations used =            8  local-TF  mixing
     Exchange-correlation= SLA  PW   SCAN SCAN
                           (   0   0   0   0   0 263 267)

     celldm(1)=  11.296000  celldm(2)=   0.000000  celldm(3)=   0.000000
     celldm(4)=   0.000000  celldm(5)=   0.000000  celldm(6)=   0.000000

     crystal axes: (cart. coord. in units of alat)
               a(1) = (  -0.500000   0.000000   0.500000 )  
               a(2) = (   0.000000   0.500000   0.500000 )  
               a(3) = (  -0.500000   0.500000   0.000000 )  

     reciprocal axes: (cart. coord. in units 2 pi/alat)
               b(1) = ( -1.000000 -1.000000  1.000000 )  
               b(2) = (  1.000000  1.000000  1.000000 )  
               b(3) = ( -1.000000  1.000000 -1.000000 )  


     PseudoPot. # 1 for Si read from file:
     ~/Documents/TA/PWDFT.jl/pseudopotentials/scan_upf/Si.SCAN.UPF2
     MD5 check sum: Not computed, couldn't open file
     Pseudo is Norm-conserving, Zval =  4.0
     Generated by new atomic code, or converted to UPF format
     Using radial grid of 1475 points,  2 beta functions with: 
                l(1) =   0
                l(2) =   1

     PseudoPot. # 2 for C  read from file:
     ~/Documents/TA/PWDFT.jl/pseudopotentials/scan_upf/C.SCAN.UPF2
     MD5 check sum: Not computed, couldn't open file
     Pseudo is Norm-conserving, Zval =  4.0
     Generated by new atomic code, or converted to UPF format
     Using radial grid of 1389 points,  1 beta functions with: 
                l(1) =   0

     atomic species   valence    mass     pseudopotential
        Si             4.00    28.08550     Si( 1.00)
        C              4.00    12.01100     C ( 1.00)

     24 Sym. Ops. (no inversion) found



   Cartesian axes

     site n.     atom                  positions (alat units)
         1           Si  tau(   1) = (   0.0000000   0.0000000   0.0000000  )
         2           C   tau(   2) = (   0.2500000   0.2500000   0.2500000  )

     number of k points=    47
                       cart. coord. in units 2pi/alat
        k(    1) = (   0.0000000   0.0000000   0.0000000), wk =   0.0020000
        k(    2) = (  -0.1000000   0.1000000  -0.1000000), wk =   0.0160000
        k(    3) = (  -0.2000000   0.2000000  -0.2000000), wk =   0.0160000
        k(    4) = (  -0.3000000   0.3000000  -0.3000000), wk =   0.0160000
        k(    5) = (  -0.4000000   0.4000000  -0.4000000), wk =   0.0160000
        k(    6) = (   0.5000000  -0.5000000   0.5000000), wk =   0.0080000
        k(    7) = (   0.0000000   0.2000000   0.0000000), wk =   0.0120000
        k(    8) = (  -0.1000000   0.3000000  -0.1000000), wk =   0.0480000
        k(    9) = (  -0.2000000   0.4000000  -0.2000000), wk =   0.0480000
        k(   10) = (  -0.3000000   0.5000000  -0.3000000), wk =   0.0480000
        k(   11) = (   0.6000000  -0.4000000   0.6000000), wk =   0.0480000
        k(   12) = (   0.5000000  -0.3000000   0.5000000), wk =   0.0480000
        k(   13) = (   0.4000000  -0.2000000   0.4000000), wk =   0.0480000
        k(   14) = (   0.3000000  -0.1000000   0.3000000), wk =   0.0480000
        k(   15) = (   0.2000000   0.0000000   0.2000000), wk =   0.0240000
        k(   16) = (   0.0000000   0.4000000   0.0000000), wk =   0.0120000
        k(   17) = (  -0.1000000   0.5000000  -0.1000000), wk =   0.0480000
        k(   18) = (  -0.2000000   0.6000000  -0.2000000), wk =   0.0480000
        k(   19) = (   0.7000000  -0.3000000   0.7000000), wk =   0.0480000
        k(   20) = (   0.6000000  -0.2000000   0.6000000), wk =   0.0480000
        k(   21) = (   0.5000000  -0.1000000   0.5000000), wk =   0.0480000
        k(   22) = (   0.4000000   0.0000000   0.4000000), wk =   0.0240000
        k(   23) = (   0.0000000   0.6000000   0.0000000), wk =   0.0120000
        k(   24) = (  -0.1000000   0.7000000  -0.1000000), wk =   0.0480000
        k(   25) = (   0.8000000  -0.2000000   0.8000000), wk =   0.0480000
        k(   26) = (   0.7000000  -0.1000000   0.7000000), wk =   0.0480000
        k(   27) = (   0.6000000  -0.0000000   0.6000000), wk =   0.0240000
        k(   28) = (   0.0000000   0.8000000   0.0000000), wk =   0.0120000
        k(   29) = (   0.9000000  -0.1000000   0.9000000), wk =   0.0480000
        k(   30) = (   0.8000000   0.0000000   0.8000000), wk =   0.0240000
        k(   31) = (   0.0000000  -1.0000000   0.0000000), wk =   0.0060000
        k(   32) = (  -0.2000000   0.4000000   0.0000000), wk =   0.0480000
        k(   33) = (  -0.3000000   0.5000000  -0.1000000), wk =   0.0960000
        k(   34) = (   0.6000000  -0.4000000   0.8000000), wk =   0.0960000
        k(   35) = (   0.5000000  -0.3000000   0.7000000), wk =   0.0480000
        k(   36) = (  -0.2000000   0.6000000   0.0000000), wk =   0.0480000
        k(   37) = (   0.7000000  -0.3000000   0.9000000), wk =   0.0960000
        k(   38) = (   0.6000000  -0.2000000   0.8000000), wk =   0.0960000
        k(   39) = (   0.5000000  -0.1000000   0.7000000), wk =   0.0960000
        k(   40) = (   0.4000000   0.0000000   0.6000000), wk =   0.0480000
        k(   41) = (   0.8000000  -0.2000000   1.0000000), wk =   0.0480000
        k(   42) = (   0.7000000  -0.1000000   0.9000000), wk =   0.0960000
        k(   43) = (   0.6000000   0.0000000   0.8000000), wk =   0.0480000
        k(   44) = (  -0.2000000  -1.0000000   0.0000000), wk =   0.0240000
        k(   45) = (   0.6000000  -0.2000000   1.0000000), wk =   0.0480000
        k(   46) = (   0.5000000  -0.1000000   0.9000000), wk =   0.0480000
        k(   47) = (  -0.4000000  -1.0000000   0.0000000), wk =   0.0240000

     Dense  grid:    17153 G-vectors     FFT dimensions: (  36,  36,  36)

     Estimated max dynamical RAM per process >      31.96 MB

     WARNING: libxc functional with ID  263 depends
      on external parameters: check the user_guide of
      QE if you need to modify them or to check their
      default values.

     Initial potential from superposition of free atoms

     starting charge       7.9995, renormalised to       8.0000
     Starting wfcs are   13 randomized atomic wfcs

     total cpu time spent up to now is        7.3 secs

     Self-consistent Calculation

     iteration #  1     ecut=    50.00 Ry     beta= 0.01
     Davidson diagonalization with overlap
     ethr =  1.00E-02,  avg # of iterations =  1.1

     total cpu time spent up to now is       12.9 secs

     total energy              =     -18.82052869 Ry
     estimated scf accuracy    <       0.77442375 Ry

     iteration #  2     ecut=    50.00 Ry     beta= 0.01
     Davidson diagonalization with overlap
     ethr =  9.68E-03,  avg # of iterations =  1.0

     total cpu time spent up to now is       18.5 secs

     total energy              =     -18.78615397 Ry
     estimated scf accuracy    <       0.76312144 Ry

     iteration #  3     ecut=    50.00 Ry     beta= 0.01
     Davidson diagonalization with overlap
     ethr =  9.54E-03,  avg # of iterations =  1.0

     total cpu time spent up to now is       23.8 secs

     total energy              =     -18.79062156 Ry
     estimated scf accuracy    <       0.12416314 Ry

     iteration #  4     ecut=    50.00 Ry     beta= 0.01
     Davidson diagonalization with overlap
     ethr =  1.55E-03,  avg # of iterations =  2.0

     total cpu time spent up to now is       30.4 secs

     total energy              =     -18.80716939 Ry
     estimated scf accuracy    <       0.02291327 Ry

     iteration #  5     ecut=    50.00 Ry     beta= 0.01
     Davidson diagonalization with overlap
     ethr =  2.86E-04,  avg # of iterations =  2.6

     total cpu time spent up to now is       38.3 secs

     total energy              =     -18.81179697 Ry
     estimated scf accuracy    <       0.04981662 Ry

     iteration #  6     ecut=    50.00 Ry     beta= 0.01
     Davidson diagonalization with overlap
     ethr =  2.86E-04,  avg # of iterations =  1.0

     total cpu time spent up to now is       44.1 secs

     total energy              =     -18.81920879 Ry
     estimated scf accuracy    <       0.05408063 Ry

     iteration #  7     ecut=    50.00 Ry     beta= 0.01
     Davidson diagonalization with overlap
     ethr =  2.86E-04,  avg # of iterations =  2.1

     total cpu time spent up to now is       50.5 secs

     total energy              =     -18.82737669 Ry
     estimated scf accuracy    <       0.05414820 Ry

     iteration #  8     ecut=    50.00 Ry     beta= 0.01
     Davidson diagonalization with overlap
     ethr =  2.86E-04,  avg # of iterations =  1.8

     total cpu time spent up to now is       56.5 secs

     total energy              =     -18.82956616 Ry
     estimated scf accuracy    <       0.11170134 Ry

     iteration #  9     ecut=    50.00 Ry     beta= 0.01
     Davidson diagonalization with overlap
     ethr =  2.86E-04,  avg # of iterations =  1.0

     total cpu time spent up to now is       61.7 secs

     total energy              =     -18.82979123 Ry
     estimated scf accuracy    <       0.12729963 Ry

     iteration # 10     ecut=    50.00 Ry     beta= 0.01
     Davidson diagonalization with overlap
     ethr =  2.86E-04,  avg # of iterations =  1.0

     total cpu time spent up to now is       65.4 secs

     total energy              =     -18.83397339 Ry
     estimated scf accuracy    <       0.13759443 Ry

     iteration # 11     ecut=    50.00 Ry     beta= 0.01
     Davidson diagonalization with overlap
     ethr =  2.86E-04,  avg # of iterations =  1.0

     total cpu time spent up to now is       68.7 secs

     total energy              =     -18.83562403 Ry
     estimated scf accuracy    <       0.17215044 Ry

     iteration # 12     ecut=    50.00 Ry     beta= 0.01
     Davidson diagonalization with overlap
     ethr =  2.86E-04,  avg # of iterations =  1.0

     total cpu time spent up to now is       72.1 secs

     total energy              =     -18.83608034 Ry
     estimated scf accuracy    <       0.18519337 Ry

     iteration # 13     ecut=    50.00 Ry     beta= 0.01
     Davidson diagonalization with overlap
     ethr =  2.86E-04,  avg # of iterations =  1.0

     total cpu time spent up to now is       75.6 secs

     total energy              =     -18.83691544 Ry
     estimated scf accuracy    <       0.19296423 Ry

     iteration # 14     ecut=    50.00 Ry     beta= 0.01
     Davidson diagonalization with overlap
     ethr =  2.86E-04,  avg # of iterations =  1.0

     total cpu time spent up to now is       78.1 secs

     total energy              =     -18.83385892 Ry
     estimated scf accuracy    <       0.19928320 Ry

     iteration # 15     ecut=    50.00 Ry     beta= 0.01
     Davidson diagonalization with overlap
     ethr =  2.86E-04,  avg # of iterations =  1.0

     total cpu time spent up to now is       80.4 secs

     total energy              =     -18.82413101 Ry
     estimated scf accuracy    <       0.18777482 Ry

     iteration # 16     ecut=    50.00 Ry     beta= 0.01
     Davidson diagonalization with overlap
     ethr =  2.86E-04,  avg # of iterations =  1.0

     total cpu time spent up to now is       82.7 secs

     total energy              =     -18.82216781 Ry
     estimated scf accuracy    <       0.13143990 Ry

     iteration # 17     ecut=    50.00 Ry     beta= 0.01
     Davidson diagonalization with overlap
     ethr =  2.86E-04,  avg # of iterations =  1.0

     total cpu time spent up to now is       85.1 secs

     total energy              =     -18.80467663 Ry
     estimated scf accuracy    <       0.11229187 Ry

     iteration # 18     ecut=    50.00 Ry     beta= 0.01
     Davidson diagonalization with overlap
     ethr =  2.86E-04,  avg # of iterations =  2.9

     total cpu time spent up to now is       88.5 secs

     total energy              =     -18.80950173 Ry
     estimated scf accuracy    <       0.01123829 Ry

     iteration # 19     ecut=    50.00 Ry     beta= 0.01
     Davidson diagonalization with overlap
     ethr =  1.40E-04,  avg # of iterations =  2.5

     total cpu time spent up to now is       91.6 secs

     total energy              =     -18.81199084 Ry
     estimated scf accuracy    <       0.00018654 Ry

     iteration # 20     ecut=    50.00 Ry     beta= 0.01
     Davidson diagonalization with overlap
     ethr =  2.33E-06,  avg # of iterations =  5.9

     total cpu time spent up to now is       96.7 secs

     total energy              =     -18.81258046 Ry
     estimated scf accuracy    <       0.00068552 Ry

     iteration # 21     ecut=    50.00 Ry     beta= 0.01
     Davidson diagonalization with overlap
     ethr =  2.33E-06,  avg # of iterations =  8.8

     total cpu time spent up to now is      104.6 secs

     total energy              =     -18.81016528 Ry
     estimated scf accuracy    <       0.05690693 Ry

     iteration # 22     ecut=    50.00 Ry     beta= 0.01
     Davidson diagonalization with overlap
     ethr =  2.33E-06,  avg # of iterations =  7.6

     total cpu time spent up to now is      111.5 secs

     total energy              =     -18.81143543 Ry
     estimated scf accuracy    <       0.00554430 Ry

     iteration # 23     ecut=    50.00 Ry     beta= 0.01
     Davidson diagonalization with overlap
     ethr =  2.33E-06,  avg # of iterations =  4.5

     total cpu time spent up to now is      116.3 secs

     total energy              =     -18.81190451 Ry
     estimated scf accuracy    <       0.00013715 Ry

     iteration # 24     ecut=    50.00 Ry     beta= 0.01
     Davidson diagonalization with overlap
     ethr =  1.71E-06,  avg # of iterations =  5.7

     total cpu time spent up to now is      121.6 secs

     total energy              =     -18.81197964 Ry
     estimated scf accuracy    <       0.00333536 Ry

     iteration # 25     ecut=    50.00 Ry     beta= 0.01
     Davidson diagonalization with overlap
     ethr =  1.71E-06,  avg # of iterations =  2.6

     total cpu time spent up to now is      125.0 secs

     total energy              =     -18.81125431 Ry
     estimated scf accuracy    <       0.00137638 Ry

     iteration # 26     ecut=    50.00 Ry     beta= 0.01
     Davidson diagonalization with overlap
     ethr =  1.71E-06,  avg # of iterations =  7.9

     total cpu time spent up to now is      132.1 secs

     total energy              =     -18.81313762 Ry
     estimated scf accuracy    <       0.01764797 Ry

     iteration # 27     ecut=    50.00 Ry     beta= 0.01
     Davidson diagonalization with overlap
     ethr =  1.71E-06,  avg # of iterations =  2.7

     total cpu time spent up to now is      135.5 secs

     total energy              =     -18.80926759 Ry
     estimated scf accuracy    <       0.01335122 Ry

     iteration # 28     ecut=    50.00 Ry     beta= 0.01
     Davidson diagonalization with overlap
     ethr =  1.71E-06,  avg # of iterations =  8.4

     total cpu time spent up to now is      141.0 secs

     total energy              =     -18.81342515 Ry
     estimated scf accuracy    <       0.00872170 Ry

     iteration # 29     ecut=    50.00 Ry     beta= 0.01
     Davidson diagonalization with overlap
     ethr =  1.71E-06,  avg # of iterations =  2.9

     total cpu time spent up to now is      144.4 secs

     total energy              =     -18.81238462 Ry
     estimated scf accuracy    <       0.01299822 Ry

     iteration # 30     ecut=    50.00 Ry     beta= 0.01
     Davidson diagonalization with overlap
     ethr =  1.71E-06,  avg # of iterations =  3.6

     total cpu time spent up to now is      148.3 secs

     total energy              =     -18.81166460 Ry
     estimated scf accuracy    <       0.00642679 Ry

     iteration # 31     ecut=    50.00 Ry     beta= 0.01
     Davidson diagonalization with overlap
     ethr =  1.71E-06,  avg # of iterations =  4.1

     total cpu time spent up to now is      151.4 secs

     total energy              =     -18.81198006 Ry
     estimated scf accuracy    <       0.00090962 Ry

     iteration # 32     ecut=    50.00 Ry     beta= 0.01
     Davidson diagonalization with overlap
     ethr =  1.71E-06,  avg # of iterations =  1.0

     total cpu time spent up to now is      152.7 secs

     total energy              =     -18.81183314 Ry
     estimated scf accuracy    <       0.00083795 Ry

     iteration # 33     ecut=    50.00 Ry     beta= 0.01
     Davidson diagonalization with overlap
     ethr =  1.71E-06,  avg # of iterations =  3.0

     total cpu time spent up to now is      155.0 secs

     total energy              =     -18.81192201 Ry
     estimated scf accuracy    <       0.00000772 Ry

     iteration # 34     ecut=    50.00 Ry     beta= 0.01
     Davidson diagonalization with overlap
     ethr =  9.65E-08,  avg # of iterations =  3.2

     total cpu time spent up to now is      157.9 secs

     total energy              =     -18.81193091 Ry
     estimated scf accuracy    <       0.00001342 Ry

     iteration # 35     ecut=    50.00 Ry     beta= 0.01
     Davidson diagonalization with overlap
     ethr =  9.65E-08,  avg # of iterations =  3.9

     total cpu time spent up to now is      162.0 secs

     total energy              =     -18.81194394 Ry
     estimated scf accuracy    <       0.00000691 Ry

     iteration # 36     ecut=    50.00 Ry     beta= 0.01
     Davidson diagonalization with overlap
     ethr =  8.64E-08,  avg # of iterations =  4.7

     total cpu time spent up to now is      166.8 secs

     total energy              =     -18.81195906 Ry
     estimated scf accuracy    <       0.00017928 Ry

     iteration # 37     ecut=    50.00 Ry     beta= 0.01
     Davidson diagonalization with overlap
     ethr =  8.64E-08,  avg # of iterations =  1.3

     total cpu time spent up to now is      169.2 secs

     total energy              =     -18.81194806 Ry
     estimated scf accuracy    <       0.00021798 Ry

     iteration # 38     ecut=    50.00 Ry     beta= 0.01
     Davidson diagonalization with overlap
     ethr =  8.64E-08,  avg # of iterations =  2.0

     total cpu time spent up to now is      172.1 secs

     total energy              =     -18.81194673 Ry
     estimated scf accuracy    <       0.00014969 Ry

     iteration # 39     ecut=    50.00 Ry     beta= 0.01
     Davidson diagonalization with overlap
     ethr =  8.64E-08,  avg # of iterations =  1.0

     total cpu time spent up to now is      174.3 secs

     total energy              =     -18.81186731 Ry
     estimated scf accuracy    <       0.00019030 Ry

     iteration # 40     ecut=    50.00 Ry     beta= 0.01
     Davidson diagonalization with overlap
     ethr =  8.64E-08,  avg # of iterations =  8.2

     total cpu time spent up to now is      181.6 secs

     total energy              =     -18.81191093 Ry
     estimated scf accuracy    <       0.00072956 Ry

     iteration # 41     ecut=    50.00 Ry     beta= 0.01
     Davidson diagonalization with overlap
     ethr =  8.64E-08,  avg # of iterations =  5.3

     total cpu time spent up to now is      186.7 secs

     total energy              =     -18.81190369 Ry
     estimated scf accuracy    <       0.00016284 Ry

     iteration # 42     ecut=    50.00 Ry     beta= 0.01
     Davidson diagonalization with overlap
     ethr =  8.64E-08,  avg # of iterations =  4.6

     total cpu time spent up to now is      191.4 secs

     End of self-consistent calculation

          k = 0.0000 0.0000 0.0000 (  2109 PWs)   bands (ev):

    -9.7404  -1.8839   0.9458   0.9458

          k =-0.1000 0.1000-0.1000 (  2124 PWs)   bands (ev):

    -9.6608  -2.2437   0.8619   0.8619

          k =-0.2000 0.2000-0.2000 (  2127 PWs)   bands (ev):

    -9.4333  -3.0442   0.6687   0.6687

          k =-0.3000 0.3000-0.3000 (  2145 PWs)   bands (ev):

    -9.0994  -3.9261   0.4671   0.4671

          k =-0.4000 0.4000-0.4000 (  2144 PWs)   bands (ev):

    -8.7602  -4.6374   0.3263   0.3263

          k = 0.5000-0.5000 0.5000 (  2138 PWs)   bands (ev):

    -8.6036  -4.9244   0.2767   0.2767

          k = 0.0000 0.2000 0.0000 (  2133 PWs)   bands (ev):

    -9.6340  -2.3375   0.7131   0.7131

          k =-0.1000 0.3000-0.1000 (  2142 PWs)   bands (ev):

    -9.4547  -2.9400   0.4662   0.4867

          k =-0.2000 0.4000-0.2000 (  2136 PWs)   bands (ev):

    -9.1522  -3.7452   0.1372   0.2872

          k =-0.3000 0.5000-0.3000 (  2132 PWs)   bands (ev):

    -8.8030  -4.4892  -0.1655   0.1725

          k = 0.6000-0.4000 0.6000 (  2151 PWs)   bands (ev):

    -8.5663  -4.9211  -0.3538   0.1645

          k = 0.5000-0.3000 0.5000 (  2146 PWs)   bands (ev):

    -8.6208  -4.8257  -0.3882   0.2640

          k = 0.4000-0.2000 0.4000 (  2151 PWs)   bands (ev):

    -8.9191  -4.2593  -0.2568   0.4474

          k = 0.3000-0.1000 0.3000 (  2141 PWs)   bands (ev):

    -9.2653  -3.4730   0.0361   0.6679

          k = 0.2000 0.0000 0.2000 (  2143 PWs)   bands (ev):

    -9.5314  -2.7119   0.4539   0.8390

          k = 0.0000 0.4000 0.0000 (  2137 PWs)   bands (ev):

    -9.3261  -3.2546   0.2338   0.2338

          k =-0.1000 0.5000-0.1000 (  2139 PWs)   bands (ev):

    -9.0676  -3.8486  -0.1043   0.0177

          k =-0.2000 0.6000-0.2000 (  2140 PWs)   bands (ev):

    -8.7364  -4.4926  -0.5427  -0.0998

          k = 0.7000-0.3000 0.7000 (  2154 PWs)   bands (ev):

    -8.4589  -4.9596  -0.8946  -0.0950

          k = 0.6000-0.2000 0.6000 (  2151 PWs)   bands (ev):

    -8.4179  -5.0225  -1.0510   0.0295

          k = 0.5000-0.1000 0.5000 (  2152 PWs)   bands (ev):

    -8.6477  -4.6512  -0.9584   0.2444

          k = 0.4000 0.0000 0.4000 (  2133 PWs)   bands (ev):

    -8.9794  -4.0615  -0.5873   0.4918

          k = 0.0000 0.6000 0.0000 (  2149 PWs)   bands (ev):

    -8.8583  -4.2316  -0.2219  -0.2219

          k =-0.1000 0.7000-0.1000 (  2143 PWs)   bands (ev):

    -8.5695  -4.7202  -0.5599  -0.3601

          k = 0.8000-0.2000 0.8000 (  2155 PWs)   bands (ev):

    -8.3017  -5.1154  -1.0171  -0.3695

          k = 0.7000-0.1000 0.7000 (  2152 PWs)   bands (ev):

    -8.2105  -5.2336  -1.3242  -0.2482

          k = 0.6000-0.0000 0.6000 (  2153 PWs)   bands (ev):

    -8.3650  -5.0269  -1.3269  -0.0232

          k = 0.0000 0.8000 0.0000 (  2148 PWs)   bands (ev):

    -8.3434  -5.0644  -0.5276  -0.5276

          k = 0.9000-0.1000 0.9000 (  2149 PWs)   bands (ev):

    -8.1459  -5.3332  -0.8051  -0.5643

          k = 0.8000 0.0000 0.8000 (  2147 PWs)   bands (ev):

    -8.0916  -5.3842  -1.1859  -0.4641

          k = 0.0000-1.0000 0.0000 (  2164 PWs)   bands (ev):

    -8.0768  -5.4383  -0.6344  -0.6344

          k =-0.2000 0.4000 0.0000 (  2140 PWs)   bands (ev):

    -9.2357  -3.5029  -0.0563   0.4122

          k =-0.3000 0.5000-0.1000 (  2151 PWs)   bands (ev):

    -8.9158  -4.1864  -0.4969   0.2265

          k = 0.6000-0.4000 0.8000 (  2153 PWs)   bands (ev):

    -8.5926  -4.7741  -0.7723   0.0569

          k = 0.5000-0.3000 0.7000 (  2154 PWs)   bands (ev):

    -8.4444  -5.0184  -0.8645  -0.0080

          k =-0.2000 0.6000 0.0000 (  2144 PWs)   bands (ev):

    -8.7913  -4.3618  -0.5090  -0.1407

          k = 0.7000-0.3000 0.9000 (  2153 PWs)   bands (ev):

    -8.4818  -4.8619  -0.9062  -0.2996

          k = 0.6000-0.2000 0.8000 (  2153 PWs)   bands (ev):

    -8.2838  -5.1496  -1.1784  -0.3280

          k = 0.5000-0.1000 0.7000 (  2165 PWs)   bands (ev):

    -8.3427  -5.0649  -1.2304  -0.2049

          k = 0.4000 0.0000 0.6000 (  2154 PWs)   bands (ev):

    -8.6085  -4.6762  -1.0033   0.0195

          k = 0.8000-0.2000 1.0000 (  2157 PWs)   bands (ev):

    -8.3125  -5.0950  -0.7709  -0.5716

          k = 0.7000-0.1000 0.9000 (  2162 PWs)   bands (ev):

    -8.1346  -5.3203  -1.1158  -0.6227

          k = 0.6000 0.0000 0.8000 (  2158 PWs)   bands (ev):

    -8.1506  -5.2914  -1.3365  -0.4706

          k =-0.2000-1.0000 0.0000 (  2150 PWs)   bands (ev):

    -8.0717  -5.4201  -0.7933  -0.7923

          k = 0.6000-0.2000 1.0000 (  2182 PWs)   bands (ev):

    -8.2357  -5.1801  -1.1617  -0.5803

          k = 0.5000-0.1000 0.9000 (  2168 PWs)   bands (ev):

    -8.1275  -5.3123  -1.2393  -0.7124

          k =-0.4000-1.0000 0.0000 (  2172 PWs)   bands (ev):

    -8.0637  -5.3900  -1.0192  -1.0064

     highest occupied level (ev):     0.9458

!    total energy              =     -18.81192017 Ry
     estimated scf accuracy    <       0.00000033 Ry

     The total energy is the sum of the following terms:
     one-electron contribution =      -1.76180255 Ry
     hartree contribution      =       3.27194783 Ry
     xc contribution           =      -5.06201429 Ry
     ewald contribution        =     -15.26005115 Ry

     convergence has been achieved in  42 iterations
     Writing meta-gga kinetic term

     Writing all to output data dir ./input_pw/SiC/14/pwscf.save/
     Writing meta-gga kinetic term
 
     init_run     :      3.01s CPU      7.18s WALL (       1 calls)
     electrons    :    147.49s CPU    184.14s WALL (       1 calls)

     Called by init_run:
     wfcinit      :      2.85s CPU      6.89s WALL (       1 calls)
     potinit      :      0.04s CPU      0.10s WALL (       1 calls)
     hinit0       :      0.10s CPU      0.14s WALL (       1 calls)

     Called by electrons:
     c_bands      :    125.59s CPU    155.25s WALL (      42 calls)
     sum_band     :     19.22s CPU     25.36s WALL (      42 calls)
     v_of_rho     :      1.26s CPU      1.69s WALL (      43 calls)
     mix_rho      :      1.40s CPU      1.84s WALL (      42 calls)

     Called by c_bands:
     init_us_2    :      1.03s CPU      1.38s WALL (    3995 calls)
     init_us_2:cp :      1.02s CPU      1.37s WALL (    3995 calls)
     cegterg      :    124.61s CPU    154.00s WALL (    1974 calls)

     Called by *egterg:
     cdiaghg      :      0.49s CPU      0.61s WALL (    8089 calls)
     h_psi        :    124.59s CPU    157.37s WALL (    8136 calls)
     g_psi        :      0.13s CPU      0.14s WALL (    6115 calls)

     Called by h_psi:
     h_psi:calbec :      0.45s CPU      0.50s WALL (    8136 calls)
     vloc_psi     :     30.79s CPU     38.83s WALL (    8136 calls)
     add_vuspsi   :      0.40s CPU      0.44s WALL (    8136 calls)
     h_psi_meta   :     92.75s CPU    117.39s WALL (    8136 calls)

     General routines
     calbec       :      0.42s CPU      0.46s WALL (    8136 calls)
     fft          :      0.26s CPU      0.35s WALL (     513 calls)
     ffts         :      0.52s CPU      0.65s WALL (    1025 calls)
     fftw         :    124.97s CPU    159.38s WALL (  260168 calls)
     interpolate  :      0.00s CPU      0.01s WALL (      43 calls)
 
     Parallel routines
 
     PWSCF        :   2m30.55s CPU   3m11.43s WALL

 
   This run was terminated on:  12: 5:42  14Mar2023            

=------------------------------------------------------------------------------=
   JOB DONE.
=------------------------------------------------------------------------------=
