
     Program PWSCF v.7.0 starts on  7Jul2023 at 14:30:57 

     This program is part of the open-source Quantum ESPRESSO suite
     for quantum simulation of materials; please cite
         "P. Giannozzi et al., J. Phys.:Condens. Matter 21 395502 (2009);
         "P. Giannozzi et al., J. Phys.:Condens. Matter 29 465901 (2017);
         "P. Giannozzi et al., J. Chem. Phys. 152 154105 (2020);
          URL http://www.quantum-espresso.org", 
     in publications or presentations arising from this work. More details at
     http://www.quantum-espresso.org/quote

     Parallel version (MPI), running on     1 processors

     MPI processes distributed on     1 nodes
     27146 MiB available memory on the printing compute node when the environment starts
 
     Waiting for input...
     Reading input from standard input
Warning: card &CELL ignored
Warning: card / ignored

     Current dimensions of program PWSCF are:
     Max number of different atomic species (ntypx) = 10
     Max number of k-points (npk) =  40000
     Max angular momentum in pseudopotentials (lmaxx) =  4
     file Si.SCAN.UPF2: wavefunction(s)  0D renormalized

     WARNING: the MGGA functional with ID    5 has been 
     read together with other dft terms, but it should 
     stand alone in order to work properly. The other 
     terms will be ignored.

     WARNING: the MGGA functional with ID    5 has been 
     read together with other dft terms, but it should 
     stand alone in order to work properly. The other 
     terms will be ignored.

     Subspace diagonalization in iterative solution of the eigenvalue problem:
     a serial algorithm will be used

 
     G-vector sticks info
     --------------------
     sticks:   dense  smooth     PW     G-vecs:    dense   smooth      PW
     Sum         685     685    211                11935    11935    2085
 
     Using Slab Decomposition
 


     bravais-lattice index     =            2
     lattice parameter (alat)  =       9.9778  a.u.
     unit-cell volume          =     248.3353 (a.u.)^3
     number of atoms/cell      =            2
     number of atomic types    =            2
     number of electrons       =         8.00
     number of Kohn-Sham states=            4
     kinetic-energy cutoff     =      50.0000  Ry
     charge density cutoff     =     200.0000  Ry
     scf convergence threshold =      2.0E-05
     mixing beta               =       0.2000
     number of iterations used =            8  local-TF  mixing
     Exchange-correlation= SLA  PW   SCAN SCAN
                           (   0   0   0   0   0 263 267)

     celldm(1)=   9.977754  celldm(2)=   0.000000  celldm(3)=   0.000000
     celldm(4)=   0.000000  celldm(5)=   0.000000  celldm(6)=   0.000000

     crystal axes: (cart. coord. in units of alat)
               a(1) = (  -0.500000   0.000000   0.500000 )  
               a(2) = (   0.000000   0.500000   0.500000 )  
               a(3) = (  -0.500000   0.500000   0.000000 )  

     reciprocal axes: (cart. coord. in units 2 pi/alat)
               b(1) = ( -1.000000 -1.000000  1.000000 )  
               b(2) = (  1.000000  1.000000  1.000000 )  
               b(3) = ( -1.000000  1.000000 -1.000000 )  


     PseudoPot. # 1 for Si read from file:
     ~/Documents/TA/PWDFT.jl/pseudopotentials/scan_upf/Si.SCAN.UPF2
     MD5 check sum: Not computed, couldn't open file
     Pseudo is Norm-conserving, Zval =  4.0
     Generated by new atomic code, or converted to UPF format
     Using radial grid of 1475 points,  2 beta functions with: 
                l(1) =   0
                l(2) =   1

     PseudoPot. # 2 for C  read from file:
     ~/Documents/TA/PWDFT.jl/pseudopotentials/scan_upf/C.SCAN.UPF2
     MD5 check sum: Not computed, couldn't open file
     Pseudo is Norm-conserving, Zval =  4.0
     Generated by new atomic code, or converted to UPF format
     Using radial grid of 1389 points,  1 beta functions with: 
                l(1) =   0

     atomic species   valence    mass     pseudopotential
        Si             4.00    28.08550     Si( 1.00)
        C              4.00    12.01100     C ( 1.00)

     24 Sym. Ops. (no inversion) found



   Cartesian axes

     site n.     atom                  positions (alat units)
         1           Si  tau(   1) = (   0.0000000   0.0000000   0.0000000  )
         2           C   tau(   2) = (   0.2500000   0.2500000   0.2500000  )

     number of k points=    47
                       cart. coord. in units 2pi/alat
        k(    1) = (   0.0000000   0.0000000   0.0000000), wk =   0.0020000
        k(    2) = (  -0.1000000   0.1000000  -0.1000000), wk =   0.0160000
        k(    3) = (  -0.2000000   0.2000000  -0.2000000), wk =   0.0160000
        k(    4) = (  -0.3000000   0.3000000  -0.3000000), wk =   0.0160000
        k(    5) = (  -0.4000000   0.4000000  -0.4000000), wk =   0.0160000
        k(    6) = (   0.5000000  -0.5000000   0.5000000), wk =   0.0080000
        k(    7) = (   0.0000000   0.2000000   0.0000000), wk =   0.0120000
        k(    8) = (  -0.1000000   0.3000000  -0.1000000), wk =   0.0480000
        k(    9) = (  -0.2000000   0.4000000  -0.2000000), wk =   0.0480000
        k(   10) = (  -0.3000000   0.5000000  -0.3000000), wk =   0.0480000
        k(   11) = (   0.6000000  -0.4000000   0.6000000), wk =   0.0480000
        k(   12) = (   0.5000000  -0.3000000   0.5000000), wk =   0.0480000
        k(   13) = (   0.4000000  -0.2000000   0.4000000), wk =   0.0480000
        k(   14) = (   0.3000000  -0.1000000   0.3000000), wk =   0.0480000
        k(   15) = (   0.2000000   0.0000000   0.2000000), wk =   0.0240000
        k(   16) = (   0.0000000   0.4000000   0.0000000), wk =   0.0120000
        k(   17) = (  -0.1000000   0.5000000  -0.1000000), wk =   0.0480000
        k(   18) = (  -0.2000000   0.6000000  -0.2000000), wk =   0.0480000
        k(   19) = (   0.7000000  -0.3000000   0.7000000), wk =   0.0480000
        k(   20) = (   0.6000000  -0.2000000   0.6000000), wk =   0.0480000
        k(   21) = (   0.5000000  -0.1000000   0.5000000), wk =   0.0480000
        k(   22) = (   0.4000000   0.0000000   0.4000000), wk =   0.0240000
        k(   23) = (   0.0000000   0.6000000   0.0000000), wk =   0.0120000
        k(   24) = (  -0.1000000   0.7000000  -0.1000000), wk =   0.0480000
        k(   25) = (   0.8000000  -0.2000000   0.8000000), wk =   0.0480000
        k(   26) = (   0.7000000  -0.1000000   0.7000000), wk =   0.0480000
        k(   27) = (   0.6000000  -0.0000000   0.6000000), wk =   0.0240000
        k(   28) = (   0.0000000   0.8000000   0.0000000), wk =   0.0120000
        k(   29) = (   0.9000000  -0.1000000   0.9000000), wk =   0.0480000
        k(   30) = (   0.8000000   0.0000000   0.8000000), wk =   0.0240000
        k(   31) = (   0.0000000  -1.0000000   0.0000000), wk =   0.0060000
        k(   32) = (  -0.2000000   0.4000000   0.0000000), wk =   0.0480000
        k(   33) = (  -0.3000000   0.5000000  -0.1000000), wk =   0.0960000
        k(   34) = (   0.6000000  -0.4000000   0.8000000), wk =   0.0960000
        k(   35) = (   0.5000000  -0.3000000   0.7000000), wk =   0.0480000
        k(   36) = (  -0.2000000   0.6000000   0.0000000), wk =   0.0480000
        k(   37) = (   0.7000000  -0.3000000   0.9000000), wk =   0.0960000
        k(   38) = (   0.6000000  -0.2000000   0.8000000), wk =   0.0960000
        k(   39) = (   0.5000000  -0.1000000   0.7000000), wk =   0.0960000
        k(   40) = (   0.4000000   0.0000000   0.6000000), wk =   0.0480000
        k(   41) = (   0.8000000  -0.2000000   1.0000000), wk =   0.0480000
        k(   42) = (   0.7000000  -0.1000000   0.9000000), wk =   0.0960000
        k(   43) = (   0.6000000   0.0000000   0.8000000), wk =   0.0480000
        k(   44) = (  -0.2000000  -1.0000000   0.0000000), wk =   0.0240000
        k(   45) = (   0.6000000  -0.2000000   1.0000000), wk =   0.0480000
        k(   46) = (   0.5000000  -0.1000000   0.9000000), wk =   0.0480000
        k(   47) = (  -0.4000000  -1.0000000   0.0000000), wk =   0.0240000

     Dense  grid:    11935 G-vectors     FFT dimensions: (  32,  32,  32)

     Estimated max dynamical RAM per process >      22.29 MB

     WARNING: libxc functional with ID  263 depends
      on external parameters: check the user_guide of
      QE if you need to modify them or to check their
      default values.

     Initial potential from superposition of free atoms

     starting charge       7.9995, renormalised to       8.0000
     Starting wfcs are   13 randomized atomic wfcs

     total cpu time spent up to now is        2.9 secs

     Self-consistent Calculation

     iteration #  1     ecut=    50.00 Ry     beta= 0.20
     Davidson diagonalization with overlap
     ethr =  1.00E-02,  avg # of iterations =  1.4

     total cpu time spent up to now is        5.1 secs

     total energy              =     -19.02220574 Ry
     estimated scf accuracy    <       1.13207525 Ry

     iteration #  2     ecut=    50.00 Ry     beta= 0.20
     Davidson diagonalization with overlap
     ethr =  1.00E-02,  avg # of iterations =  1.0

     total cpu time spent up to now is        7.1 secs

     total energy              =     -19.00315984 Ry
     estimated scf accuracy    <       0.71895935 Ry

     iteration #  3     ecut=    50.00 Ry     beta= 0.20
     Davidson diagonalization with overlap
     ethr =  8.99E-03,  avg # of iterations =  1.0

     total cpu time spent up to now is        9.2 secs

     total energy              =     -19.04258662 Ry
     estimated scf accuracy    <       0.03053813 Ry

     iteration #  4     ecut=    50.00 Ry     beta= 0.20
     Davidson diagonalization with overlap
     ethr =  3.82E-04,  avg # of iterations =  2.0

     total cpu time spent up to now is       12.0 secs

     total energy              =     -19.05066409 Ry
     estimated scf accuracy    <       0.02677484 Ry

     iteration #  5     ecut=    50.00 Ry     beta= 0.20
     Davidson diagonalization with overlap
     ethr =  3.35E-04,  avg # of iterations =  1.0

     total cpu time spent up to now is       14.0 secs

     total energy              =     -19.05142278 Ry
     estimated scf accuracy    <       0.02354158 Ry

     iteration #  6     ecut=    50.00 Ry     beta= 0.20
     Davidson diagonalization with overlap
     ethr =  2.94E-04,  avg # of iterations =  1.0

     total cpu time spent up to now is       15.7 secs

     total energy              =     -19.05089679 Ry
     estimated scf accuracy    <       0.02370164 Ry

     iteration #  7     ecut=    50.00 Ry     beta= 0.20
     Davidson diagonalization with overlap
     ethr =  2.94E-04,  avg # of iterations =  2.0

     total cpu time spent up to now is       18.1 secs

     total energy              =     -19.05319888 Ry
     estimated scf accuracy    <       0.03702886 Ry

     iteration #  8     ecut=    50.00 Ry     beta= 0.20
     Davidson diagonalization with overlap
     ethr =  2.94E-04,  avg # of iterations =  1.0

     total cpu time spent up to now is       19.4 secs

     total energy              =     -19.04964686 Ry
     estimated scf accuracy    <       0.01412995 Ry

     iteration #  9     ecut=    50.00 Ry     beta= 0.20
     Davidson diagonalization with overlap
     ethr =  1.77E-04,  avg # of iterations =  2.0

     total cpu time spent up to now is       20.9 secs

     total energy              =     -19.05407156 Ry
     estimated scf accuracy    <       0.00797255 Ry

     iteration # 10     ecut=    50.00 Ry     beta= 0.20
     Davidson diagonalization with overlap
     ethr =  9.97E-05,  avg # of iterations =  1.0

     total cpu time spent up to now is       22.0 secs

     total energy              =     -19.05263525 Ry
     estimated scf accuracy    <       0.01303384 Ry

     iteration # 11     ecut=    50.00 Ry     beta= 0.20
     Davidson diagonalization with overlap
     ethr =  9.97E-05,  avg # of iterations =  1.0

     total cpu time spent up to now is       23.1 secs

     total energy              =     -19.05217758 Ry
     estimated scf accuracy    <       0.00489383 Ry

     iteration # 12     ecut=    50.00 Ry     beta= 0.20
     Davidson diagonalization with overlap
     ethr =  6.12E-05,  avg # of iterations =  1.9

     total cpu time spent up to now is       23.9 secs

     total energy              =     -19.05258816 Ry
     estimated scf accuracy    <       0.00007727 Ry

     iteration # 13     ecut=    50.00 Ry     beta= 0.20
     Davidson diagonalization with overlap
     ethr =  9.66E-07,  avg # of iterations =  3.9

     total cpu time spent up to now is       24.9 secs

     total energy              =     -19.05262870 Ry
     estimated scf accuracy    <       0.00025845 Ry

     iteration # 14     ecut=    50.00 Ry     beta= 0.20
     Davidson diagonalization with overlap
     ethr =  9.66E-07,  avg # of iterations =  2.0

     total cpu time spent up to now is       25.7 secs

     total energy              =     -19.05263450 Ry
     estimated scf accuracy    <       0.00002166 Ry

     iteration # 15     ecut=    50.00 Ry     beta= 0.20
     Davidson diagonalization with overlap
     ethr =  2.71E-07,  avg # of iterations =  2.1

     total cpu time spent up to now is       26.5 secs

     End of self-consistent calculation

          k = 0.0000 0.0000 0.0000 (  1459 PWs)   bands (ev):

    -8.7991   3.4791   3.4791   3.4791

          k =-0.1000 0.1000-0.1000 (  1459 PWs)   bands (ev):

    -8.6783   2.0875   3.3697   3.3697

          k =-0.2000 0.2000-0.2000 (  1471 PWs)   bands (ev):

    -8.3277   0.4320   3.1189   3.1189

          k =-0.3000 0.3000-0.3000 (  1471 PWs)   bands (ev):

    -7.7937  -1.1208   2.8590   2.8590

          k =-0.4000 0.4000-0.4000 (  1486 PWs)   bands (ev):

    -7.2106  -2.3484   2.6765   2.6765

          k = 0.5000-0.5000 0.5000 (  1476 PWs)   bands (ev):

    -6.9166  -2.8618   2.6134   2.6134

          k = 0.0000 0.2000 0.0000 (  1459 PWs)   bands (ev):

    -8.6378   2.0097   3.1534   3.1534

          k =-0.1000 0.3000-0.1000 (  1469 PWs)   bands (ev):

    -8.3627   0.7807   2.8451   2.8978

          k =-0.2000 0.4000-0.2000 (  1477 PWs)   bands (ev):

    -7.8851  -0.6849   2.5454   2.5819

          k =-0.3000 0.5000-0.3000 (  1476 PWs)   bands (ev):

    -7.2996  -1.9852   2.1936   2.4390

          k = 0.6000-0.4000 0.6000 (  1482 PWs)   bands (ev):

    -6.8650  -2.7608   1.9480   2.4447

          k = 0.5000-0.3000 0.5000 (  1481 PWs)   bands (ev):

    -6.9684  -2.5865   1.8625   2.5907

          k = 0.4000-0.2000 0.4000 (  1479 PWs)   bands (ev):

    -7.4984  -1.5844   1.9629   2.8453

          k = 0.3000-0.1000 0.3000 (  1479 PWs)   bands (ev):

    -8.0650  -0.2130   2.2661   3.1414

          k = 0.2000 0.0000 0.2000 (  1464 PWs)   bands (ev):

    -8.4804   1.1593   2.7916   3.3615

          k = 0.0000 0.4000 0.0000 (  1479 PWs)   bands (ev):

    -8.1659   0.3992   2.4846   2.4846

          k =-0.1000 0.5000-0.1000 (  1478 PWs)   bands (ev):

    -7.7590  -0.6033   2.0555   2.1901

          k =-0.2000 0.6000-0.2000 (  1472 PWs)   bands (ev):

    -7.2105  -1.7198   1.4945   2.0395

          k = 0.7000-0.3000 0.7000 (  1477 PWs)   bands (ev):

    -6.7093  -2.5636   1.0204   2.0606

          k = 0.6000-0.2000 0.6000 (  1491 PWs)   bands (ev):

    -6.6257  -2.6868   0.7682   2.2455

          k = 0.5000-0.1000 0.5000 (  1483 PWs)   bands (ev):

    -7.0462  -2.0171   0.8265   2.5564

          k = 0.4000 0.0000 0.4000 (  1484 PWs)   bands (ev):

    -7.6070  -1.0535   1.3129   2.9036

          k = 0.0000 0.6000 0.0000 (  1479 PWs)   bands (ev):

    -7.4288  -1.1323   1.8543   1.8543

          k =-0.1000 0.7000-0.1000 (  1483 PWs)   bands (ev):

    -6.9482  -1.9207   1.3642   1.6668

          k = 0.8000-0.2000 0.8000 (  1476 PWs)   bands (ev):

    -6.4624  -2.5908   0.6668   1.6639

          k = 0.7000-0.1000 0.7000 (  1492 PWs)   bands (ev):

    -6.2729  -2.8081   0.1767   1.8418

          k = 0.6000-0.0000 0.6000 (  1490 PWs)   bands (ev):

    -6.5530  -2.4849   0.1721   2.1687

          k = 0.0000 0.8000 0.0000 (  1480 PWs)   bands (ev):

    -6.5625  -2.4723   1.4341   1.4341

          k = 0.9000-0.1000 0.9000 (  1491 PWs)   bands (ev):

    -6.1913  -2.9302   0.9898   1.3851

          k = 0.8000 0.0000 0.8000 (  1496 PWs)   bands (ev):

    -6.0691  -3.0074   0.3583   1.5302

          k = 0.0000-1.0000 0.0000 (  1524 PWs)   bands (ev):

    -6.0595  -3.1342   1.2852   1.2852

          k =-0.2000 0.4000 0.0000 (  1482 PWs)   bands (ev):

    -8.0216  -0.1227   2.0750   2.8073

          k =-0.3000 0.5000-0.1000 (  1477 PWs)   bands (ev):

    -7.5042  -1.2704   1.5101   2.5418

          k = 0.6000-0.4000 0.8000 (  1487 PWs)   bands (ev):

    -6.9437  -2.3070   1.2163   2.2816

          k = 0.5000-0.3000 0.7000 (  1490 PWs)   bands (ev):

    -6.6638  -2.7604   1.1287   2.1780

          k =-0.2000 0.6000 0.0000 (  1483 PWs)   bands (ev):

    -7.3119  -1.3886   1.4329   1.9848

          k = 0.7000-0.3000 0.9000 (  1481 PWs)   bands (ev):

    -6.7785  -2.2085   0.8692   1.7369

          k = 0.6000-0.2000 0.8000 (  1493 PWs)   bands (ev):

    -6.4042  -2.7240   0.4748   1.6912

          k = 0.5000-0.1000 0.7000 (  1492 PWs)   bands (ev):

    -6.5117  -2.5751   0.3695   1.8824

          k = 0.4000 0.0000 0.6000 (  1481 PWs)   bands (ev):

    -6.9891  -1.9434   0.6920   2.2254

          k = 0.8000-0.2000 1.0000 (  1482 PWs)   bands (ev):

    -6.4967  -2.5159   1.0502   1.3310

          k = 0.7000-0.1000 0.9000 (  1481 PWs)   bands (ev):

    -6.1523  -2.8850   0.4795   1.2553

          k = 0.6000 0.0000 0.8000 (  1489 PWs)   bands (ev):

    -6.1676  -2.8431   0.1203   1.4838

          k =-0.2000-1.0000 0.0000 (  1494 PWs)   bands (ev):

    -6.0420  -3.0728   0.9995   1.0126

          k = 0.6000-0.2000 1.0000 (  1476 PWs)   bands (ev):

    -6.3351  -2.6523   0.4233   1.2919

          k = 0.5000-0.1000 0.9000 (  1482 PWs)   bands (ev):

    -6.1274  -2.8579   0.2838   1.0840

          k =-0.4000-1.0000 0.0000 (  1492 PWs)   bands (ev):

    -6.0133  -2.9643   0.5842   0.6547

     highest occupied level (ev):     3.4791

!    total energy              =     -19.05264009 Ry
     estimated scf accuracy    <       0.00000160 Ry

     The total energy is the sum of the following terms:
     one-electron contribution =       0.76890025 Ry
     hartree contribution      =       2.83498813 Ry
     xc contribution           =      -5.38034199 Ry
     ewald contribution        =     -17.27618648 Ry

     convergence has been achieved in  15 iterations
     Writing meta-gga kinetic term

     Writing all to output data dir ./input_pw/SiC/14/pwscf.save/
     Writing meta-gga kinetic term
 
     init_run     :      1.38s CPU      2.81s WALL (       1 calls)
     electrons    :     15.71s CPU     23.59s WALL (       1 calls)

     Called by init_run:
     wfcinit      :      1.25s CPU      2.48s WALL (       1 calls)
     potinit      :      0.03s CPU      0.06s WALL (       1 calls)
     hinit0       :      0.09s CPU      0.23s WALL (       1 calls)

     Called by electrons:
     c_bands      :     12.46s CPU     18.54s WALL (      15 calls)
     sum_band     :      2.81s CPU      4.32s WALL (      15 calls)
     v_of_rho     :      0.28s CPU      0.47s WALL (      16 calls)
     mix_rho      :      0.17s CPU      0.32s WALL (      15 calls)

     Called by c_bands:
     init_us_2    :      0.23s CPU      0.41s WALL (    1457 calls)
     init_us_2:cp :      0.23s CPU      0.40s WALL (    1457 calls)
     cegterg      :     12.25s CPU     18.17s WALL (     705 calls)

     Called by *egterg:
     cdiaghg      :      0.07s CPU      0.12s WALL (    1853 calls)
     h_psi        :     13.09s CPU     20.02s WALL (    1900 calls)
     g_psi        :      0.02s CPU      0.02s WALL (    1148 calls)

     Called by h_psi:
     h_psi:calbec :      0.05s CPU      0.11s WALL (    1900 calls)
     vloc_psi     :      3.20s CPU      4.76s WALL (    1900 calls)
     add_vuspsi   :      0.06s CPU      0.11s WALL (    1900 calls)
     h_psi_meta   :      9.75s CPU     14.98s WALL (    1900 calls)

     General routines
     calbec       :      0.05s CPU      0.10s WALL (    1900 calls)
     fft          :      0.03s CPU      0.08s WALL (     189 calls)
     ffts         :      0.06s CPU      0.11s WALL (     314 calls)
     fftw         :     13.18s CPU     20.18s WALL (   71976 calls)
     interpolate  :      0.00s CPU      0.00s WALL (      16 calls)
 
     Parallel routines
 
     PWSCF        :     17.15s CPU     26.53s WALL

 
   This run was terminated on:  14:31:23   7Jul2023            

=------------------------------------------------------------------------------=
   JOB DONE.
=------------------------------------------------------------------------------=
