
     Program PWSCF v.7.0 starts on  4Apr2023 at  8:56:52 

     This program is part of the open-source Quantum ESPRESSO suite
     for quantum simulation of materials; please cite
         "P. Giannozzi et al., J. Phys.:Condens. Matter 21 395502 (2009);
         "P. Giannozzi et al., J. Phys.:Condens. Matter 29 465901 (2017);
         "P. Giannozzi et al., J. Chem. Phys. 152 154105 (2020);
          URL http://www.quantum-espresso.org", 
     in publications or presentations arising from this work. More details at
     http://www.quantum-espresso.org/quote

     Parallel version (MPI), running on     1 processors

     MPI processes distributed on     1 nodes
     19263 MiB available memory on the printing compute node when the environment starts
 
     Waiting for input...
     Reading input from standard input
Warning: card &CELL ignored
Warning: card / ignored

     Current dimensions of program PWSCF are:
     Max number of different atomic species (ntypx) = 10
     Max number of k-points (npk) =  40000
     Max angular momentum in pseudopotentials (lmaxx) =  4
     file Al.SCAN.UPF2: wavefunction(s)  0D renormalized

     WARNING: the MGGA functional with ID    5 has been 
     read together with other dft terms, but it should 
     stand alone in order to work properly. The other 
     terms will be ignored.

     Subspace diagonalization in iterative solution of the eigenvalue problem:
     a serial algorithm will be used

 
     G-vector sticks info
     --------------------
     sticks:   dense  smooth     PW     G-vecs:    dense   smooth      PW
     Sum        1159    1159    349                25821    25821    4111
 
     Using Slab Decomposition
 


     bravais-lattice index     =            2
     lattice parameter (alat)  =      11.7919  a.u.
     unit-cell volume          =     409.9118 (a.u.)^3
     number of atoms/cell      =            1
     number of atomic types    =            1
     number of electrons       =         3.00
     number of Kohn-Sham states=            6
     kinetic-energy cutoff     =      60.0000  Ry
     charge density cutoff     =     240.0000  Ry
     scf convergence threshold =      1.0E-06
     mixing beta               =       0.0100
     number of iterations used =            8  local-TF  mixing
     Exchange-correlation= SLA  PW   SCAN SCAN
                           (   0   0   0   0   0 263 267)

     celldm(1)=  11.791891  celldm(2)=   0.000000  celldm(3)=   0.000000
     celldm(4)=   0.000000  celldm(5)=   0.000000  celldm(6)=   0.000000

     crystal axes: (cart. coord. in units of alat)
               a(1) = (  -0.500000   0.000000   0.500000 )  
               a(2) = (   0.000000   0.500000   0.500000 )  
               a(3) = (  -0.500000   0.500000   0.000000 )  

     reciprocal axes: (cart. coord. in units 2 pi/alat)
               b(1) = ( -1.000000 -1.000000  1.000000 )  
               b(2) = (  1.000000  1.000000  1.000000 )  
               b(3) = ( -1.000000  1.000000 -1.000000 )  


     PseudoPot. # 1 for Al read from file:
     ~/Documents/TA/PWDFT.jl/pseudopotentials/scan_upf/Al.SCAN.UPF2
     MD5 check sum: Not computed, couldn't open file
     Pseudo is Norm-conserving, Zval =  3.0
     Generated by new atomic code, or converted to UPF format
     Using radial grid of 1467 points,  2 beta functions with: 
                l(1) =   0
                l(2) =   1

     atomic species   valence    mass     pseudopotential
        Al             3.00    26.98154     Al( 1.00)

     48 Sym. Ops., with inversion, found



   Cartesian axes

     site n.     atom                  positions (alat units)
         1           Al  tau(   1) = (   0.0000000   0.0000000   0.0000000  )

     number of k points=    47  Gaussian smearing, width (Ry)=  0.1000
                       cart. coord. in units 2pi/alat
        k(    1) = (   0.0000000   0.0000000   0.0000000), wk =   0.0020000
        k(    2) = (  -0.1000000   0.1000000  -0.1000000), wk =   0.0160000
        k(    3) = (  -0.2000000   0.2000000  -0.2000000), wk =   0.0160000
        k(    4) = (  -0.3000000   0.3000000  -0.3000000), wk =   0.0160000
        k(    5) = (  -0.4000000   0.4000000  -0.4000000), wk =   0.0160000
        k(    6) = (   0.5000000  -0.5000000   0.5000000), wk =   0.0080000
        k(    7) = (   0.0000000   0.2000000   0.0000000), wk =   0.0120000
        k(    8) = (  -0.1000000   0.3000000  -0.1000000), wk =   0.0480000
        k(    9) = (  -0.2000000   0.4000000  -0.2000000), wk =   0.0480000
        k(   10) = (  -0.3000000   0.5000000  -0.3000000), wk =   0.0480000
        k(   11) = (   0.6000000  -0.4000000   0.6000000), wk =   0.0480000
        k(   12) = (   0.5000000  -0.3000000   0.5000000), wk =   0.0480000
        k(   13) = (   0.4000000  -0.2000000   0.4000000), wk =   0.0480000
        k(   14) = (   0.3000000  -0.1000000   0.3000000), wk =   0.0480000
        k(   15) = (   0.2000000   0.0000000   0.2000000), wk =   0.0240000
        k(   16) = (   0.0000000   0.4000000   0.0000000), wk =   0.0120000
        k(   17) = (  -0.1000000   0.5000000  -0.1000000), wk =   0.0480000
        k(   18) = (  -0.2000000   0.6000000  -0.2000000), wk =   0.0480000
        k(   19) = (   0.7000000  -0.3000000   0.7000000), wk =   0.0480000
        k(   20) = (   0.6000000  -0.2000000   0.6000000), wk =   0.0480000
        k(   21) = (   0.5000000  -0.1000000   0.5000000), wk =   0.0480000
        k(   22) = (   0.4000000   0.0000000   0.4000000), wk =   0.0240000
        k(   23) = (   0.0000000   0.6000000   0.0000000), wk =   0.0120000
        k(   24) = (  -0.1000000   0.7000000  -0.1000000), wk =   0.0480000
        k(   25) = (   0.8000000  -0.2000000   0.8000000), wk =   0.0480000
        k(   26) = (   0.7000000  -0.1000000   0.7000000), wk =   0.0480000
        k(   27) = (   0.6000000  -0.0000000   0.6000000), wk =   0.0240000
        k(   28) = (   0.0000000   0.8000000   0.0000000), wk =   0.0120000
        k(   29) = (   0.9000000  -0.1000000   0.9000000), wk =   0.0480000
        k(   30) = (   0.8000000   0.0000000   0.8000000), wk =   0.0240000
        k(   31) = (   0.0000000  -1.0000000   0.0000000), wk =   0.0060000
        k(   32) = (  -0.2000000   0.4000000   0.0000000), wk =   0.0480000
        k(   33) = (  -0.3000000   0.5000000  -0.1000000), wk =   0.0960000
        k(   34) = (   0.6000000  -0.4000000   0.8000000), wk =   0.0960000
        k(   35) = (   0.5000000  -0.3000000   0.7000000), wk =   0.0480000
        k(   36) = (  -0.2000000   0.6000000   0.0000000), wk =   0.0480000
        k(   37) = (   0.7000000  -0.3000000   0.9000000), wk =   0.0960000
        k(   38) = (   0.6000000  -0.2000000   0.8000000), wk =   0.0960000
        k(   39) = (   0.5000000  -0.1000000   0.7000000), wk =   0.0960000
        k(   40) = (   0.4000000   0.0000000   0.6000000), wk =   0.0480000
        k(   41) = (   0.8000000  -0.2000000   1.0000000), wk =   0.0480000
        k(   42) = (   0.7000000  -0.1000000   0.9000000), wk =   0.0960000
        k(   43) = (   0.6000000   0.0000000   0.8000000), wk =   0.0480000
        k(   44) = (  -0.2000000  -1.0000000   0.0000000), wk =   0.0240000
        k(   45) = (   0.6000000  -0.2000000   1.0000000), wk =   0.0480000
        k(   46) = (   0.5000000  -0.1000000   0.9000000), wk =   0.0480000
        k(   47) = (  -0.4000000  -1.0000000   0.0000000), wk =   0.0240000

     Dense  grid:    25821 G-vectors     FFT dimensions: (  45,  45,  45)

     Estimated max dynamical RAM per process >      54.12 MB

     WARNING: libxc functional with ID  263 depends
      on external parameters: check the user_guide of
      QE if you need to modify them or to check their
      default values.

     Initial potential from superposition of free atoms

     starting charge       2.9979, renormalised to       3.0000
     Starting wfcs are    9 randomized atomic wfcs

     total cpu time spent up to now is       11.0 secs

     Self-consistent Calculation

     iteration #  1     ecut=    60.00 Ry     beta= 0.01
     Davidson diagonalization with overlap
     ethr =  1.00E-02,  avg # of iterations =  2.9

     Threshold (ethr) on eigenvalues was too large:
     Diagonalizing with lowered threshold

     Davidson diagonalization with overlap
     ethr =  1.28E-04,  avg # of iterations =  2.3

     total cpu time spent up to now is       55.8 secs

     total energy              =      -4.00740008 Ry
     estimated scf accuracy    <       0.00362378 Ry

     iteration #  2     ecut=    60.00 Ry     beta= 0.01
     Davidson diagonalization with overlap
     ethr =  1.21E-04,  avg # of iterations =  1.0

     total cpu time spent up to now is       70.7 secs

     total energy              =      -4.01209413 Ry
     estimated scf accuracy    <       0.00354283 Ry

     iteration #  3     ecut=    60.00 Ry     beta= 0.01
     Davidson diagonalization with overlap
     ethr =  1.18E-04,  avg # of iterations =  2.0

     total cpu time spent up to now is       91.0 secs

     total energy              =      -4.01326775 Ry
     estimated scf accuracy    <       0.00019979 Ry

     iteration #  4     ecut=    60.00 Ry     beta= 0.01
     Davidson diagonalization with overlap
     ethr =  6.66E-06,  avg # of iterations =  2.7

     total cpu time spent up to now is      107.8 secs

     total energy              =      -4.01334908 Ry
     estimated scf accuracy    <       0.00005051 Ry

     iteration #  5     ecut=    60.00 Ry     beta= 0.01
     Davidson diagonalization with overlap
     ethr =  1.68E-06,  avg # of iterations =  1.3

     total cpu time spent up to now is      118.3 secs

     total energy              =      -4.01331158 Ry
     estimated scf accuracy    <       0.00004839 Ry

     iteration #  6     ecut=    60.00 Ry     beta= 0.01
     Davidson diagonalization with overlap
     ethr =  1.61E-06,  avg # of iterations =  2.0

     total cpu time spent up to now is      130.4 secs

     total energy              =      -4.01331724 Ry
     estimated scf accuracy    <       0.00004865 Ry

     iteration #  7     ecut=    60.00 Ry     beta= 0.01
     Davidson diagonalization with overlap
     ethr =  1.61E-06,  avg # of iterations =  2.0

     total cpu time spent up to now is      141.5 secs

     total energy              =      -4.01333517 Ry
     estimated scf accuracy    <       0.00000244 Ry

     iteration #  8     ecut=    60.00 Ry     beta= 0.01
     Davidson diagonalization with overlap
     ethr =  8.12E-08,  avg # of iterations =  1.0

     total cpu time spent up to now is      145.6 secs

     total energy              =      -4.01333520 Ry
     estimated scf accuracy    <       0.00000251 Ry

     iteration #  9     ecut=    60.00 Ry     beta= 0.01
     Davidson diagonalization with overlap
     ethr =  8.12E-08,  avg # of iterations =  1.0

     total cpu time spent up to now is      149.4 secs

     total energy              =      -4.01333646 Ry
     estimated scf accuracy    <       0.00000254 Ry

     iteration # 10     ecut=    60.00 Ry     beta= 0.01
     Davidson diagonalization with overlap
     ethr =  8.12E-08,  avg # of iterations =  2.0

     total cpu time spent up to now is      153.7 secs

     End of self-consistent calculation

          k = 0.0000 0.0000 0.0000 (  3215 PWs)   bands (ev):

    -5.8429   3.7304   3.7304   3.7304   7.7246   7.7250

          k =-0.1000 0.1000-0.1000 (  3215 PWs)   bands (ev):

    -5.7431   3.0381   3.6490   3.6490   7.1828   7.8860

          k =-0.2000 0.2000-0.2000 (  3239 PWs)   bands (ev):

    -5.4520   1.7057   3.4662   3.4662   6.6864   8.0946

          k =-0.3000 0.3000-0.3000 (  3218 PWs)   bands (ev):

    -5.0025   0.3624   3.2830   3.2830   6.2871   7.7760

          k =-0.4000 0.4000-0.4000 (  3220 PWs)   bands (ev):

    -4.4979  -0.7150   3.1592   3.1592   6.0548   7.4269

          k = 0.5000-0.5000 0.5000 (  3214 PWs)   bands (ev):

    -4.2335  -1.1750   3.1164   3.1164   5.9797   7.2966

          k = 0.0000 0.2000 0.0000 (  3219 PWs)   bands (ev):

    -5.7098   3.1731   3.4348   3.4348   7.0863   8.1975

          k =-0.1000 0.3000-0.1000 (  3230 PWs)   bands (ev):

    -5.4820   2.1351   3.1748   3.3140   6.7955   7.8080

          k =-0.2000 0.4000-0.2000 (  3218 PWs)   bands (ev):

    -5.0825   0.8292   2.9769   3.0679   6.5605   7.5436

          k =-0.3000 0.5000-0.3000 (  3224 PWs)   bands (ev):

    -4.5825  -0.3312   2.7887   2.8923   6.3546   7.1661

          k = 0.6000-0.4000 0.6000 (  3223 PWs)   bands (ev):

    -4.1979  -1.0292   2.5691   2.9326   6.3126   6.9921

          k = 0.5000-0.3000 0.5000 (  3210 PWs)   bands (ev):

    -4.2904  -0.8719   2.4573   3.0836   6.4453   7.0417

          k = 0.4000-0.2000 0.4000 (  3220 PWs)   bands (ev):

    -4.7531   0.0264   2.4832   3.3087   6.6836   7.3654

          k = 0.3000-0.1000 0.3000 (  3223 PWs)   bands (ev):

    -5.2330   1.2533   2.6701   3.5442   7.0040   7.8406

          k = 0.2000 0.0000 0.2000 (  3237 PWs)   bands (ev):

    -5.5793   2.4233   3.0881   3.6908   7.3459   7.6080

          k = 0.0000 0.4000 0.0000 (  3207 PWs)   bands (ev):

    -5.3201   2.0830   2.8460   2.8460   6.1421   6.8845

          k =-0.1000 0.5000-0.1000 (  3218 PWs)   bands (ev):

    -4.9822   1.1914   2.5145   2.6012   5.9682   6.4686

          k =-0.2000 0.6000-0.2000 (  3209 PWs)   bands (ev):

    -4.5203   0.1488   2.0422   2.4948   5.7151   7.1000

          k = 0.7000-0.3000 0.7000 (  3211 PWs)   bands (ev):

    -4.0875  -0.6377   1.6222   2.5426   5.6629   7.7452

          k = 0.6000-0.2000 0.6000 (  3200 PWs)   bands (ev):

    -4.0107  -0.7541   1.3580   2.7349   5.8828   7.9011

          k = 0.5000-0.1000 0.5000 (  3212 PWs)   bands (ev):

    -4.3735  -0.1225   1.3157   3.0334   6.3578   7.9330

          k = 0.4000 0.0000 0.4000 (  3220 PWs)   bands (ev):

    -4.8493   0.7238   1.6880   3.3535   7.0345   7.7926

          k = 0.0000 0.6000 0.0000 (  3222 PWs)   bands (ev):

    -4.7120   0.8978   2.3047   2.3047   5.4015   5.4651

          k =-0.1000 0.7000-0.1000 (  3222 PWs)   bands (ev):

    -4.3144   0.2507   1.7862   2.1525   5.0813   5.6717

          k = 0.8000-0.2000 0.8000 (  3222 PWs)   bands (ev):

    -3.9075  -0.2822   1.0207   2.1667   5.0122   6.7371

          k = 0.7000-0.1000 0.7000 (  3213 PWs)   bands (ev):

    -3.7397  -0.3936   0.4410   2.3448   5.2162   8.0402

          k = 0.6000-0.0000 0.6000 (  3214 PWs)   bands (ev):

    -3.9632  -0.1343   0.3977   2.6585   5.6769   9.0960

          k = 0.0000 0.8000 0.0000 (  3218 PWs)   bands (ev):

    -4.0065  -0.1907   1.9487   1.9487   4.5723   4.9449

          k = 0.9000-0.1000 0.9000 (  3238 PWs)   bands (ev):

    -3.7083  -0.5206   1.3955   1.9139   4.5652   5.3485

          k = 0.8000 0.0000 0.8000 (  3220 PWs)   bands (ev):

    -3.5991  -0.4373   0.5633   2.0521   4.7764   6.6071

          k = 0.0000-1.0000 0.0000 (  3250 PWs)   bands (ev):

    -3.6123  -0.7225   1.8260   1.8260   4.2772   4.7913

          k =-0.2000 0.4000 0.0000 (  3216 PWs)   bands (ev):

    -5.1986   1.4977   2.4290   3.2443   6.7678   7.2945

          k =-0.3000 0.5000-0.1000 (  3217 PWs)   bands (ev):

    -4.7641   0.4811   1.9831   2.9976   6.6828   7.2480

          k = 0.6000-0.4000 0.8000 (  3217 PWs)   bands (ev):

    -4.2835  -0.4800   1.8227   2.7314   6.5051   7.0272

          k = 0.5000-0.3000 0.7000 (  3218 PWs)   bands (ev):

    -4.0370  -0.9000   1.7871   2.6191   6.4696   6.8788

          k =-0.2000 0.6000 0.0000 (  3206 PWs)   bands (ev):

    -4.6105   0.6267   1.8427   2.4155   5.9833   6.1215

          k = 0.7000-0.3000 0.9000 (  3211 PWs)   bands (ev):

    -4.1622  -0.0601   1.3139   2.1320   5.8488   6.9609

          k = 0.6000-0.2000 0.8000 (  3214 PWs)   bands (ev):

    -3.8421  -0.5233   0.9472   2.0873   5.9240   7.6852

          k = 0.5000-0.1000 0.7000 (  3208 PWs)   bands (ev):

    -3.9291  -0.3715   0.7826   2.2936   6.2056   7.7110

          k = 0.4000 0.0000 0.6000 (  3212 PWs)   bands (ev):

    -4.3315   0.1432   1.0552   2.6555   6.6174   7.6408

          k = 0.8000-0.2000 1.0000 (  3224 PWs)   bands (ev):

    -3.9452  -0.1715   1.4628   1.7277   5.2200   5.7051

          k = 0.7000-0.1000 0.9000 (  3223 PWs)   bands (ev):

    -3.6613  -0.3333   0.7065   1.6574   5.4308   6.7309

          k = 0.6000 0.0000 0.8000 (  3211 PWs)   bands (ev):

    -3.6605  -0.0169   0.0350   1.8883   5.7358   8.0190

          k =-0.2000-1.0000 0.0000 (  3222 PWs)   bands (ev):

    -3.5892  -0.5797   1.3327   1.4802   4.9771   5.5633

          k = 0.6000-0.2000 1.0000 (  3221 PWs)   bands (ev):

    -3.7984  -0.1375   0.6524   1.6155   6.4066   7.3231

          k = 0.5000-0.1000 0.9000 (  3214 PWs)   bands (ev):

    -3.6308  -0.1449   0.3718   1.3984   6.5154   7.8239

          k =-0.4000-1.0000 0.0000 (  3216 PWs)   bands (ev):

    -3.5504  -0.1576   0.5153   1.0787   6.3012   7.2051

     the Fermi energy is    -0.2484 ev

!    total energy              =      -4.01333833 Ry
     estimated scf accuracy    <       0.00000020 Ry
     smearing contrib. (-TS)   =      -0.06290749 Ry
     internal energy E=F+TS    =      -3.95043084 Ry

     The total energy is F=E-TS. E is the sum of the following terms:
     one-electron contribution =       0.54908816 Ry
     hartree contribution      =       0.20994012 Ry
     xc contribution           =      -1.21012567 Ry
     ewald contribution        =      -3.49933345 Ry

     convergence has been achieved in  10 iterations
     Writing meta-gga kinetic term

     Writing all to output data dir ./input_pw/Al/9/pwscf.save/
     Writing meta-gga kinetic term
 
     init_run     :      5.44s CPU     10.95s WALL (       1 calls)
     electrons    :    104.80s CPU    142.77s WALL (       1 calls)

     Called by init_run:
     wfcinit      :      5.26s CPU     10.50s WALL (       1 calls)
     potinit      :      0.07s CPU      0.29s WALL (       1 calls)
     hinit0       :      0.07s CPU      0.09s WALL (       1 calls)

     Called by electrons:
     c_bands      :     84.90s CPU    116.23s WALL (      11 calls)
     sum_band     :     18.85s CPU     25.20s WALL (      11 calls)
     v_of_rho     :      0.63s CPU      1.03s WALL (      11 calls)
     mix_rho      :      0.45s CPU      0.53s WALL (      11 calls)

     Called by c_bands:
     init_us_2    :      0.35s CPU      0.47s WALL (    1081 calls)
     init_us_2:cp :      0.35s CPU      0.46s WALL (    1081 calls)
     cegterg      :     84.52s CPU    115.76s WALL (     517 calls)

     Called by *egterg:
     cdiaghg      :      0.13s CPU      0.22s WALL (    1420 calls)
     h_psi        :     88.63s CPU    124.64s WALL (    1514 calls)
     g_psi        :      0.04s CPU      0.06s WALL (     950 calls)

     Called by h_psi:
     h_psi:calbec :      0.19s CPU      0.22s WALL (    1514 calls)
     vloc_psi     :     22.00s CPU     31.13s WALL (    1514 calls)
     add_vuspsi   :      0.13s CPU      0.20s WALL (    1514 calls)
     h_psi_meta   :     66.23s CPU     93.01s WALL (    1514 calls)

     General routines
     calbec       :      0.19s CPU      0.22s WALL (    1514 calls)
     fft          :      0.14s CPU      0.22s WALL (     131 calls)
     ffts         :      0.19s CPU      0.21s WALL (     169 calls)
     fftw         :     88.39s CPU    123.62s WALL (   76616 calls)
     interpolate  :      0.00s CPU      0.00s WALL (      11 calls)
 
     Parallel routines
 
     PWSCF        :   1m50.27s CPU   2m33.77s WALL

 
   This run was terminated on:   8:59:26   4Apr2023            

=------------------------------------------------------------------------------=
   JOB DONE.
=------------------------------------------------------------------------------=
