
     Program PWSCF v.7.0 starts on 29Mar2023 at 12:34:19 

     This program is part of the open-source Quantum ESPRESSO suite
     for quantum simulation of materials; please cite
         "P. Giannozzi et al., J. Phys.:Condens. Matter 21 395502 (2009);
         "P. Giannozzi et al., J. Phys.:Condens. Matter 29 465901 (2017);
         "P. Giannozzi et al., J. Chem. Phys. 152 154105 (2020);
          URL http://www.quantum-espresso.org", 
     in publications or presentations arising from this work. More details at
     http://www.quantum-espresso.org/quote

     Parallel version (MPI), running on     1 processors

     MPI processes distributed on     1 nodes
     23325 MiB available memory on the printing compute node when the environment starts
 
     Waiting for input...
     Reading input from standard input
Warning: card &CELL ignored
Warning: card / ignored

     Current dimensions of program PWSCF are:
     Max number of different atomic species (ntypx) = 10
     Max number of k-points (npk) =  40000
     Max angular momentum in pseudopotentials (lmaxx) =  4

     WARNING: the MGGA functional with ID    5 has been 
     read together with other dft terms, but it should 
     stand alone in order to work properly. The other 
     terms will be ignored.

     Subspace diagonalization in iterative solution of the eigenvalue problem:
     a serial algorithm will be used

 
     G-vector sticks info
     --------------------
     sticks:   dense  smooth     PW     G-vecs:    dense   smooth      PW
     Sum         379     379    121                 4909     4909     941
 
     Using Slab Decomposition
 


     bravais-lattice index     =            2
     lattice parameter (alat)  =       7.4318  a.u.
     unit-cell volume          =     102.6193 (a.u.)^3
     number of atoms/cell      =            2
     number of atomic types    =            1
     number of electrons       =         8.00
     number of Kohn-Sham states=            4
     kinetic-energy cutoff     =      50.0000  Ry
     charge density cutoff     =     200.0000  Ry
     scf convergence threshold =      1.0E-06
     mixing beta               =       0.0100
     number of iterations used =            8  local-TF  mixing
     Exchange-correlation= SLA  PW   SCAN SCAN
                           (   0   0   0   0   0 263 267)

     celldm(1)=   7.431839  celldm(2)=   0.000000  celldm(3)=   0.000000
     celldm(4)=   0.000000  celldm(5)=   0.000000  celldm(6)=   0.000000

     crystal axes: (cart. coord. in units of alat)
               a(1) = (  -0.500000   0.000000   0.500000 )  
               a(2) = (   0.000000   0.500000   0.500000 )  
               a(3) = (  -0.500000   0.500000   0.000000 )  

     reciprocal axes: (cart. coord. in units 2 pi/alat)
               b(1) = ( -1.000000 -1.000000  1.000000 )  
               b(2) = (  1.000000  1.000000  1.000000 )  
               b(3) = ( -1.000000  1.000000 -1.000000 )  


     PseudoPot. # 1 for C  read from file:
     ~/Documents/TA/PWDFT.jl/pseudopotentials/scan_upf/C.SCAN.UPF2
     MD5 check sum: Not computed, couldn't open file
     Pseudo is Norm-conserving, Zval =  4.0
     Generated by new atomic code, or converted to UPF format
     Using radial grid of 1389 points,  1 beta functions with: 
                l(1) =   0

     atomic species   valence    mass     pseudopotential
        C              4.00    12.01100     C ( 1.00)

     48 Sym. Ops., with inversion, found (24 have fractional translation)



   Cartesian axes

     site n.     atom                  positions (alat units)
         1           C   tau(   1) = (   0.0000000   0.0000000   0.0000000  )
         2           C   tau(   2) = (   0.2500000   0.2500000   0.2500000  )

     number of k points=    47
                       cart. coord. in units 2pi/alat
        k(    1) = (   0.0000000   0.0000000   0.0000000), wk =   0.0020000
        k(    2) = (  -0.1000000   0.1000000  -0.1000000), wk =   0.0160000
        k(    3) = (  -0.2000000   0.2000000  -0.2000000), wk =   0.0160000
        k(    4) = (  -0.3000000   0.3000000  -0.3000000), wk =   0.0160000
        k(    5) = (  -0.4000000   0.4000000  -0.4000000), wk =   0.0160000
        k(    6) = (   0.5000000  -0.5000000   0.5000000), wk =   0.0080000
        k(    7) = (   0.0000000   0.2000000   0.0000000), wk =   0.0120000
        k(    8) = (  -0.1000000   0.3000000  -0.1000000), wk =   0.0480000
        k(    9) = (  -0.2000000   0.4000000  -0.2000000), wk =   0.0480000
        k(   10) = (  -0.3000000   0.5000000  -0.3000000), wk =   0.0480000
        k(   11) = (   0.6000000  -0.4000000   0.6000000), wk =   0.0480000
        k(   12) = (   0.5000000  -0.3000000   0.5000000), wk =   0.0480000
        k(   13) = (   0.4000000  -0.2000000   0.4000000), wk =   0.0480000
        k(   14) = (   0.3000000  -0.1000000   0.3000000), wk =   0.0480000
        k(   15) = (   0.2000000   0.0000000   0.2000000), wk =   0.0240000
        k(   16) = (   0.0000000   0.4000000   0.0000000), wk =   0.0120000
        k(   17) = (  -0.1000000   0.5000000  -0.1000000), wk =   0.0480000
        k(   18) = (  -0.2000000   0.6000000  -0.2000000), wk =   0.0480000
        k(   19) = (   0.7000000  -0.3000000   0.7000000), wk =   0.0480000
        k(   20) = (   0.6000000  -0.2000000   0.6000000), wk =   0.0480000
        k(   21) = (   0.5000000  -0.1000000   0.5000000), wk =   0.0480000
        k(   22) = (   0.4000000   0.0000000   0.4000000), wk =   0.0240000
        k(   23) = (   0.0000000   0.6000000   0.0000000), wk =   0.0120000
        k(   24) = (  -0.1000000   0.7000000  -0.1000000), wk =   0.0480000
        k(   25) = (   0.8000000  -0.2000000   0.8000000), wk =   0.0480000
        k(   26) = (   0.7000000  -0.1000000   0.7000000), wk =   0.0480000
        k(   27) = (   0.6000000  -0.0000000   0.6000000), wk =   0.0240000
        k(   28) = (   0.0000000   0.8000000   0.0000000), wk =   0.0120000
        k(   29) = (   0.9000000  -0.1000000   0.9000000), wk =   0.0480000
        k(   30) = (   0.8000000   0.0000000   0.8000000), wk =   0.0240000
        k(   31) = (   0.0000000  -1.0000000   0.0000000), wk =   0.0060000
        k(   32) = (  -0.2000000   0.4000000   0.0000000), wk =   0.0480000
        k(   33) = (  -0.3000000   0.5000000  -0.1000000), wk =   0.0960000
        k(   34) = (   0.6000000  -0.4000000   0.8000000), wk =   0.0960000
        k(   35) = (   0.5000000  -0.3000000   0.7000000), wk =   0.0480000
        k(   36) = (  -0.2000000   0.6000000   0.0000000), wk =   0.0480000
        k(   37) = (   0.7000000  -0.3000000   0.9000000), wk =   0.0960000
        k(   38) = (   0.6000000  -0.2000000   0.8000000), wk =   0.0960000
        k(   39) = (   0.5000000  -0.1000000   0.7000000), wk =   0.0960000
        k(   40) = (   0.4000000   0.0000000   0.6000000), wk =   0.0480000
        k(   41) = (   0.8000000  -0.2000000   1.0000000), wk =   0.0480000
        k(   42) = (   0.7000000  -0.1000000   0.9000000), wk =   0.0960000
        k(   43) = (   0.6000000   0.0000000   0.8000000), wk =   0.0480000
        k(   44) = (  -0.2000000  -1.0000000   0.0000000), wk =   0.0240000
        k(   45) = (   0.6000000  -0.2000000   1.0000000), wk =   0.0480000
        k(   46) = (   0.5000000  -0.1000000   0.9000000), wk =   0.0480000
        k(   47) = (  -0.4000000  -1.0000000   0.0000000), wk =   0.0240000

     Dense  grid:     4909 G-vectors     FFT dimensions: (  24,  24,  24)

     Estimated max dynamical RAM per process >       8.97 MB

     WARNING: libxc functional with ID  263 depends
      on external parameters: check the user_guide of
      QE if you need to modify them or to check their
      default values.

     Initial potential from superposition of free atoms

     starting charge       7.9999, renormalised to       8.0000
     Starting wfcs are    8 randomized atomic wfcs

     total cpu time spent up to now is        1.2 secs

     Self-consistent Calculation

     iteration #  1     ecut=    50.00 Ry     beta= 0.01
     Davidson diagonalization with overlap
     ethr =  1.00E-02,  avg # of iterations =  2.0

     total cpu time spent up to now is        2.6 secs

     total energy              =     -22.54710141 Ry
     estimated scf accuracy    <       1.41482629 Ry

     iteration #  2     ecut=    50.00 Ry     beta= 0.01
     Davidson diagonalization with overlap
     ethr =  1.00E-02,  avg # of iterations =  1.0

     total cpu time spent up to now is        3.9 secs

     total energy              =     -22.31609872 Ry
     estimated scf accuracy    <       1.42939604 Ry

     iteration #  3     ecut=    50.00 Ry     beta= 0.01
     Davidson diagonalization with overlap
     ethr =  1.00E-02,  avg # of iterations =  1.0

     total cpu time spent up to now is        5.2 secs

     total energy              =     -22.60622644 Ry
     estimated scf accuracy    <       4.30022463 Ry

     iteration #  4     ecut=    50.00 Ry     beta= 0.01
     Davidson diagonalization with overlap
     ethr =  1.00E-02,  avg # of iterations =  1.0

     total cpu time spent up to now is        6.5 secs

     total energy              =     -22.64458803 Ry
     estimated scf accuracy    <       0.00816209 Ry

     iteration #  5     ecut=    50.00 Ry     beta= 0.01
     Davidson diagonalization with overlap
     ethr =  1.02E-04,  avg # of iterations =  1.4

     total cpu time spent up to now is        7.8 secs

     total energy              =     -22.64520042 Ry
     estimated scf accuracy    <       0.00721401 Ry

     iteration #  6     ecut=    50.00 Ry     beta= 0.01
     Davidson diagonalization with overlap
     ethr =  9.02E-05,  avg # of iterations =  1.0

     total cpu time spent up to now is        9.2 secs

     total energy              =     -22.64499386 Ry
     estimated scf accuracy    <       0.00677097 Ry

     iteration #  7     ecut=    50.00 Ry     beta= 0.01
     Davidson diagonalization with overlap
     ethr =  8.46E-05,  avg # of iterations =  1.0

     total cpu time spent up to now is       10.5 secs

     total energy              =     -22.64351958 Ry
     estimated scf accuracy    <       0.00527789 Ry

     iteration #  8     ecut=    50.00 Ry     beta= 0.01
     Davidson diagonalization with overlap
     ethr =  6.60E-05,  avg # of iterations =  1.0

     total cpu time spent up to now is       11.8 secs

     total energy              =     -22.64384483 Ry
     estimated scf accuracy    <       0.00179280 Ry

     iteration #  9     ecut=    50.00 Ry     beta= 0.01
     Davidson diagonalization with overlap
     ethr =  2.24E-05,  avg # of iterations =  1.0

     total cpu time spent up to now is       13.1 secs

     total energy              =     -22.64386505 Ry
     estimated scf accuracy    <       0.00200116 Ry

     iteration # 10     ecut=    50.00 Ry     beta= 0.01
     Davidson diagonalization with overlap
     ethr =  2.24E-05,  avg # of iterations =  1.0

     total cpu time spent up to now is       14.4 secs

     total energy              =     -22.64387169 Ry
     estimated scf accuracy    <       0.00155546 Ry

     iteration # 11     ecut=    50.00 Ry     beta= 0.01
     Davidson diagonalization with overlap
     ethr =  1.94E-05,  avg # of iterations =  1.0

     total cpu time spent up to now is       15.6 secs

     total energy              =     -22.64397224 Ry
     estimated scf accuracy    <       0.00137858 Ry

     iteration # 12     ecut=    50.00 Ry     beta= 0.01
     Davidson diagonalization with overlap
     ethr =  1.72E-05,  avg # of iterations =  1.0

     total cpu time spent up to now is       16.9 secs

     total energy              =     -22.64398644 Ry
     estimated scf accuracy    <       0.00005663 Ry

     iteration # 13     ecut=    50.00 Ry     beta= 0.01
     Davidson diagonalization with overlap
     ethr =  7.08E-07,  avg # of iterations =  1.0

     total cpu time spent up to now is       17.9 secs

     total energy              =     -22.64399196 Ry
     estimated scf accuracy    <       0.00002913 Ry

     iteration # 14     ecut=    50.00 Ry     beta= 0.01
     Davidson diagonalization with overlap
     ethr =  3.64E-07,  avg # of iterations =  1.0

     total cpu time spent up to now is       19.0 secs

     total energy              =     -22.64399292 Ry
     estimated scf accuracy    <       0.00014552 Ry

     iteration # 15     ecut=    50.00 Ry     beta= 0.01
     Davidson diagonalization with overlap
     ethr =  3.64E-07,  avg # of iterations =  1.0

     total cpu time spent up to now is       19.9 secs

     total energy              =     -22.64399312 Ry
     estimated scf accuracy    <       0.00011015 Ry

     iteration # 16     ecut=    50.00 Ry     beta= 0.01
     Davidson diagonalization with overlap
     ethr =  3.64E-07,  avg # of iterations =  1.0

     total cpu time spent up to now is       20.7 secs

     End of self-consistent calculation

          k = 0.0000 0.0000 0.0000 (   609 PWs)   bands (ev):

   -10.3176   8.5448   8.5448   8.5448

          k =-0.1000 0.1000-0.1000 (   606 PWs)   bands (ev):

   -10.0837   7.1138   8.2167   8.2167

          k =-0.2000 0.2000-0.2000 (   604 PWs)   bands (ev):

    -9.3901   4.3487   7.5416   7.5416

          k =-0.3000 0.3000-0.3000 (   610 PWs)   bands (ev):

    -8.2702   1.4468   6.9038   6.9038

          k =-0.4000 0.4000-0.4000 (   607 PWs)   bands (ev):

    -6.8488  -1.1159   6.4826   6.4826

          k = 0.5000-0.5000 0.5000 (   610 PWs)   bands (ev):

    -5.8811  -2.4786   6.3383   6.3383

          k = 0.0000 0.2000 0.0000 (   609 PWs)   bands (ev):

   -10.0057   7.5680   7.6484   7.6484

          k =-0.1000 0.3000-0.1000 (   600 PWs)   bands (ev):

    -9.4646   5.2646   6.9010   7.3583

          k =-0.2000 0.4000-0.2000 (   612 PWs)   bands (ev):

    -8.4831   2.4567   6.2941   6.6635

          k =-0.3000 0.5000-0.3000 (   606 PWs)   bands (ev):

    -7.1386  -0.2057   5.9739   5.9751

          k = 0.6000-0.4000 0.6000 (   610 PWs)   bands (ev):

    -5.8323  -2.1403   5.4791   5.9723

          k = 0.5000-0.3000 0.5000 (   609 PWs)   bands (ev):

    -6.1945  -1.6461   5.2690   6.2858

          k = 0.4000-0.2000 0.4000 (   608 PWs)   bands (ev):

    -7.6187   0.6507   5.3882   6.8602

          k = 0.3000-0.1000 0.3000 (   607 PWs)   bands (ev):

    -8.8579   3.3958   5.8525   7.5750

          k = 0.2000 0.0000 0.2000 (   604 PWs)   bands (ev):

    -9.6963   5.9141   6.7967   8.1683

          k = 0.0000 0.4000 0.0000 (   604 PWs)   bands (ev):

    -9.0783   5.3296   6.0964   6.0964

          k =-0.1000 0.5000-0.1000 (   610 PWs)   bands (ev):

    -8.2456   3.2515   5.4608   5.4709

          k =-0.2000 0.6000-0.2000 (   617 PWs)   bands (ev):

    -7.0172   0.8147   4.5830   5.1351

          k = 0.7000-0.3000 0.7000 (   618 PWs)   bands (ev):

    -5.6079  -1.3172   3.7775   5.1697

          k = 0.6000-0.2000 0.6000 (   615 PWs)   bands (ev):

    -5.2715  -1.7388   3.2665   5.5510

          k = 0.5000-0.1000 0.5000 (   614 PWs)   bands (ev):

    -6.5689   0.1092   3.1713   6.2086

          k = 0.4000 0.0000 0.4000 (   614 PWs)   bands (ev):

    -7.8917   2.2268   3.8416   6.9876

          k = 0.0000 0.6000 0.0000 (   612 PWs)   bands (ev):

    -7.5636   2.6077   4.7661   4.7661

          k =-0.1000 0.7000-0.1000 (   615 PWs)   bands (ev):

    -6.4708   0.9586   3.8650   4.3803

          k = 0.8000-0.2000 0.8000 (   616 PWs)   bands (ev):

    -5.0903  -0.7762   2.6187   4.3679

          k = 0.7000-0.1000 0.7000 (   612 PWs)   bands (ev):

    -4.2152  -1.7034   1.6982   4.7270

          k = 0.6000-0.0000 0.6000 (   614 PWs)   bands (ev):

    -5.2345  -0.6490   1.6356   5.3916

          k = 0.0000 0.8000 0.0000 (   620 PWs)   bands (ev):

    -5.5158  -0.2522   3.9099   3.9099

          k = 0.9000-0.1000 0.9000 (   614 PWs)   bands (ev):

    -4.2252  -1.6513   3.0816   3.8160

          k = 0.8000 0.0000 0.8000 (   622 PWs)   bands (ev):

    -3.2539  -2.4307   1.8514   4.0990

          k = 0.0000-1.0000 0.0000 (   620 PWs)   bands (ev):

    -3.0301  -3.0301   3.6211   3.6211

          k =-0.2000 0.4000 0.0000 (   609 PWs)   bands (ev):

    -8.7779   3.9590   5.2887   6.9718

          k =-0.3000 0.5000-0.1000 (   616 PWs)   bands (ev):

    -7.6707   1.6423   4.4211   6.3105

          k = 0.6000-0.4000 0.8000 (   606 PWs)   bands (ev):

    -6.2657  -0.7399   4.1196   5.6825

          k = 0.5000-0.3000 0.7000 (   606 PWs)   bands (ev):

    -5.3069  -2.0515   4.0590   5.4207

          k =-0.2000 0.6000 0.0000 (   612 PWs)   bands (ev):

    -7.2839   1.9271   4.0134   5.1245

          k = 0.7000-0.3000 0.9000 (   612 PWs)   bands (ev):

    -5.9692   0.0660   3.1232   4.5527

          k = 0.6000-0.2000 0.8000 (   619 PWs)   bands (ev):

    -4.6928  -1.5500   2.5170   4.4362

          k = 0.5000-0.1000 0.7000 (   619 PWs)   bands (ev):

    -5.0859  -1.0527   2.2203   4.8492

          k = 0.4000 0.0000 0.6000 (   612 PWs)   bands (ev):

    -6.4718   0.6279   2.6597   5.5859

          k = 0.8000-0.2000 1.0000 (   617 PWs)   bands (ev):

    -5.2814  -0.3838   3.2455   3.7106

          k = 0.7000-0.1000 0.9000 (   619 PWs)   bands (ev):

    -3.9191  -1.6844   2.1299   3.5847

          k = 0.6000 0.0000 0.8000 (   616 PWs)   bands (ev):

    -3.8343  -1.7109   1.4288   4.0508

          k =-0.2000-1.0000 0.0000 (   622 PWs)   bands (ev):

    -2.9010  -2.9010   3.1086   3.1086

          k = 0.6000-0.2000 1.0000 (   613 PWs)   bands (ev):

    -4.6400  -0.9045   2.0801   3.6669

          k = 0.5000-0.1000 0.9000 (   622 PWs)   bands (ev):

    -3.6732  -1.7861   1.8088   3.2409

          k =-0.4000-1.0000 0.0000 (   610 PWs)   bands (ev):

    -2.6612  -2.6612   2.3554   2.3554

     highest occupied level (ev):     8.5448

!    total energy              =     -22.64399427 Ry
     estimated scf accuracy    <       0.00000060 Ry

     The total energy is the sum of the following terms:
     one-electron contribution =       4.92920219 Ry
     hartree contribution      =       2.24943336 Ry
     xc contribution           =      -6.62816470 Ry
     ewald contribution        =     -23.19446511 Ry

     convergence has been achieved in  16 iterations
     Writing meta-gga kinetic term

     Writing all to output data dir ./input_pw/C/9/pwscf.save/
     Writing meta-gga kinetic term
 
     init_run     :      0.54s CPU      1.13s WALL (       1 calls)
     electrons    :     10.29s CPU     19.52s WALL (       1 calls)

     Called by init_run:
     wfcinit      :      0.50s CPU      1.03s WALL (       1 calls)
     potinit      :      0.01s CPU      0.01s WALL (       1 calls)
     hinit0       :      0.03s CPU      0.09s WALL (       1 calls)

     Called by electrons:
     c_bands      :      8.02s CPU     15.14s WALL (      16 calls)
     sum_band     :      2.05s CPU      3.99s WALL (      16 calls)
     v_of_rho     :      0.14s CPU      0.23s WALL (      17 calls)
     mix_rho      :      0.08s CPU      0.16s WALL (      16 calls)

     Called by c_bands:
     init_us_2    :      0.04s CPU      0.10s WALL (    1551 calls)
     init_us_2:cp :      0.04s CPU      0.10s WALL (    1551 calls)
     cegterg      :      7.98s CPU     15.06s WALL (     752 calls)

     Called by *egterg:
     cdiaghg      :      0.06s CPU      0.12s WALL (    1570 calls)
     h_psi        :      8.26s CPU     15.74s WALL (    1617 calls)
     g_psi        :      0.01s CPU      0.01s WALL (     818 calls)

     Called by h_psi:
     h_psi:calbec :      0.02s CPU      0.05s WALL (    1617 calls)
     vloc_psi     :      2.03s CPU      3.92s WALL (    1617 calls)
     add_vuspsi   :      0.03s CPU      0.04s WALL (    1617 calls)
     h_psi_meta   :      6.16s CPU     11.69s WALL (    1617 calls)

     General routines
     calbec       :      0.01s CPU      0.05s WALL (    1617 calls)
     fft          :      0.03s CPU      0.12s WALL (     201 calls)
     ffts         :      0.04s CPU      0.06s WALL (     283 calls)
     fftw         :      9.11s CPU     17.38s WALL (   64520 calls)
     interpolate  :      0.00s CPU      0.00s WALL (      17 calls)
 
     Parallel routines
 
     PWSCF        :     10.87s CPU     20.73s WALL

 
   This run was terminated on:  12:34:39  29Mar2023            

=------------------------------------------------------------------------------=
   JOB DONE.
=------------------------------------------------------------------------------=
