
     Program PWSCF v.7.0 starts on 14Mar2023 at 11:48:15 

     This program is part of the open-source Quantum ESPRESSO suite
     for quantum simulation of materials; please cite
         "P. Giannozzi et al., J. Phys.:Condens. Matter 21 395502 (2009);
         "P. Giannozzi et al., J. Phys.:Condens. Matter 29 465901 (2017);
         "P. Giannozzi et al., J. Chem. Phys. 152 154105 (2020);
          URL http://www.quantum-espresso.org", 
     in publications or presentations arising from this work. More details at
     http://www.quantum-espresso.org/quote

     Parallel version (MPI), running on     1 processors

     MPI processes distributed on     1 nodes
     27395 MiB available memory on the printing compute node when the environment starts
 
     Waiting for input...
     Reading input from standard input
Warning: card &CELL ignored
Warning: card / ignored

     Current dimensions of program PWSCF are:
     Max number of different atomic species (ntypx) = 10
     Max number of k-points (npk) =  40000
     Max angular momentum in pseudopotentials (lmaxx) =  4

     WARNING: the MGGA functional with ID    5 has been 
     read together with other dft terms, but it should 
     stand alone in order to work properly. The other 
     terms will be ignored.

     Subspace diagonalization in iterative solution of the eigenvalue problem:
     a serial algorithm will be used

 
     G-vector sticks info
     --------------------
     sticks:   dense  smooth     PW     G-vecs:    dense   smooth      PW
     Sum         385     385    121                 5065     5065     941
 
     Using Slab Decomposition
 


     bravais-lattice index     =            2
     lattice parameter (alat)  =       7.5543  a.u.
     unit-cell volume          =     107.7780 (a.u.)^3
     number of atoms/cell      =            2
     number of atomic types    =            1
     number of electrons       =         8.00
     number of Kohn-Sham states=            4
     kinetic-energy cutoff     =      50.0000  Ry
     charge density cutoff     =     200.0000  Ry
     scf convergence threshold =      1.0E-06
     mixing beta               =       0.0100
     number of iterations used =            8  local-TF  mixing
     Exchange-correlation= SLA  PW   SCAN SCAN
                           (   0   0   0   0   0 263 267)

     celldm(1)=   7.554343  celldm(2)=   0.000000  celldm(3)=   0.000000
     celldm(4)=   0.000000  celldm(5)=   0.000000  celldm(6)=   0.000000

     crystal axes: (cart. coord. in units of alat)
               a(1) = (  -0.500000   0.000000   0.500000 )  
               a(2) = (   0.000000   0.500000   0.500000 )  
               a(3) = (  -0.500000   0.500000   0.000000 )  

     reciprocal axes: (cart. coord. in units 2 pi/alat)
               b(1) = ( -1.000000 -1.000000  1.000000 )  
               b(2) = (  1.000000  1.000000  1.000000 )  
               b(3) = ( -1.000000  1.000000 -1.000000 )  


     PseudoPot. # 1 for C  read from file:
     ~/Documents/TA/PWDFT.jl/pseudopotentials/scan_upf/C.SCAN.UPF2
     MD5 check sum: Not computed, couldn't open file
     Pseudo is Norm-conserving, Zval =  4.0
     Generated by new atomic code, or converted to UPF format
     Using radial grid of 1389 points,  1 beta functions with: 
                l(1) =   0

     atomic species   valence    mass     pseudopotential
        C              4.00    12.01100     C ( 1.00)

     48 Sym. Ops., with inversion, found (24 have fractional translation)



   Cartesian axes

     site n.     atom                  positions (alat units)
         1           C   tau(   1) = (   0.0000000   0.0000000   0.0000000  )
         2           C   tau(   2) = (   0.2500000   0.2500000   0.2500000  )

     number of k points=    47
                       cart. coord. in units 2pi/alat
        k(    1) = (   0.0000000   0.0000000   0.0000000), wk =   0.0020000
        k(    2) = (  -0.1000000   0.1000000  -0.1000000), wk =   0.0160000
        k(    3) = (  -0.2000000   0.2000000  -0.2000000), wk =   0.0160000
        k(    4) = (  -0.3000000   0.3000000  -0.3000000), wk =   0.0160000
        k(    5) = (  -0.4000000   0.4000000  -0.4000000), wk =   0.0160000
        k(    6) = (   0.5000000  -0.5000000   0.5000000), wk =   0.0080000
        k(    7) = (   0.0000000   0.2000000   0.0000000), wk =   0.0120000
        k(    8) = (  -0.1000000   0.3000000  -0.1000000), wk =   0.0480000
        k(    9) = (  -0.2000000   0.4000000  -0.2000000), wk =   0.0480000
        k(   10) = (  -0.3000000   0.5000000  -0.3000000), wk =   0.0480000
        k(   11) = (   0.6000000  -0.4000000   0.6000000), wk =   0.0480000
        k(   12) = (   0.5000000  -0.3000000   0.5000000), wk =   0.0480000
        k(   13) = (   0.4000000  -0.2000000   0.4000000), wk =   0.0480000
        k(   14) = (   0.3000000  -0.1000000   0.3000000), wk =   0.0480000
        k(   15) = (   0.2000000   0.0000000   0.2000000), wk =   0.0240000
        k(   16) = (   0.0000000   0.4000000   0.0000000), wk =   0.0120000
        k(   17) = (  -0.1000000   0.5000000  -0.1000000), wk =   0.0480000
        k(   18) = (  -0.2000000   0.6000000  -0.2000000), wk =   0.0480000
        k(   19) = (   0.7000000  -0.3000000   0.7000000), wk =   0.0480000
        k(   20) = (   0.6000000  -0.2000000   0.6000000), wk =   0.0480000
        k(   21) = (   0.5000000  -0.1000000   0.5000000), wk =   0.0480000
        k(   22) = (   0.4000000   0.0000000   0.4000000), wk =   0.0240000
        k(   23) = (   0.0000000   0.6000000   0.0000000), wk =   0.0120000
        k(   24) = (  -0.1000000   0.7000000  -0.1000000), wk =   0.0480000
        k(   25) = (   0.8000000  -0.2000000   0.8000000), wk =   0.0480000
        k(   26) = (   0.7000000  -0.1000000   0.7000000), wk =   0.0480000
        k(   27) = (   0.6000000  -0.0000000   0.6000000), wk =   0.0240000
        k(   28) = (   0.0000000   0.8000000   0.0000000), wk =   0.0120000
        k(   29) = (   0.9000000  -0.1000000   0.9000000), wk =   0.0480000
        k(   30) = (   0.8000000   0.0000000   0.8000000), wk =   0.0240000
        k(   31) = (   0.0000000  -1.0000000   0.0000000), wk =   0.0060000
        k(   32) = (  -0.2000000   0.4000000   0.0000000), wk =   0.0480000
        k(   33) = (  -0.3000000   0.5000000  -0.1000000), wk =   0.0960000
        k(   34) = (   0.6000000  -0.4000000   0.8000000), wk =   0.0960000
        k(   35) = (   0.5000000  -0.3000000   0.7000000), wk =   0.0480000
        k(   36) = (  -0.2000000   0.6000000   0.0000000), wk =   0.0480000
        k(   37) = (   0.7000000  -0.3000000   0.9000000), wk =   0.0960000
        k(   38) = (   0.6000000  -0.2000000   0.8000000), wk =   0.0960000
        k(   39) = (   0.5000000  -0.1000000   0.7000000), wk =   0.0960000
        k(   40) = (   0.4000000   0.0000000   0.6000000), wk =   0.0480000
        k(   41) = (   0.8000000  -0.2000000   1.0000000), wk =   0.0480000
        k(   42) = (   0.7000000  -0.1000000   0.9000000), wk =   0.0960000
        k(   43) = (   0.6000000   0.0000000   0.8000000), wk =   0.0480000
        k(   44) = (  -0.2000000  -1.0000000   0.0000000), wk =   0.0240000
        k(   45) = (   0.6000000  -0.2000000   1.0000000), wk =   0.0480000
        k(   46) = (   0.5000000  -0.1000000   0.9000000), wk =   0.0480000
        k(   47) = (  -0.4000000  -1.0000000   0.0000000), wk =   0.0240000

     Dense  grid:     5065 G-vectors     FFT dimensions: (  32,  32,  32)

     Estimated max dynamical RAM per process >      11.40 MB

     WARNING: libxc functional with ID  263 depends
      on external parameters: check the user_guide of
      QE if you need to modify them or to check their
      default values.

     Initial potential from superposition of free atoms

     starting charge       7.9999, renormalised to       8.0000
     Starting wfcs are    8 randomized atomic wfcs

     total cpu time spent up to now is        1.3 secs

     Self-consistent Calculation

     iteration #  1     ecut=    50.00 Ry     beta= 0.01
     Davidson diagonalization with overlap
     ethr =  1.00E-02,  avg # of iterations =  2.0

     total cpu time spent up to now is        3.5 secs

     total energy              =     -22.53393813 Ry
     estimated scf accuracy    <       1.33001914 Ry

     iteration #  2     ecut=    50.00 Ry     beta= 0.01
     Davidson diagonalization with overlap
     ethr =  1.00E-02,  avg # of iterations =  1.0

     total cpu time spent up to now is        5.3 secs

     total energy              =     -22.28068905 Ry
     estimated scf accuracy    <       1.34742594 Ry

     iteration #  3     ecut=    50.00 Ry     beta= 0.01
     Davidson diagonalization with overlap
     ethr =  1.00E-02,  avg # of iterations =  1.0

     total cpu time spent up to now is        7.0 secs

     total energy              =     -22.58593766 Ry
     estimated scf accuracy    <       3.71280776 Ry

     iteration #  4     ecut=    50.00 Ry     beta= 0.01
     Davidson diagonalization with overlap
     ethr =  1.00E-02,  avg # of iterations =  1.0

     total cpu time spent up to now is        8.3 secs

     total energy              =     -22.62123705 Ry
     estimated scf accuracy    <       0.00703635 Ry

     iteration #  5     ecut=    50.00 Ry     beta= 0.01
     Davidson diagonalization with overlap
     ethr =  8.80E-05,  avg # of iterations =  1.7

     total cpu time spent up to now is        9.7 secs

     total energy              =     -22.62184340 Ry
     estimated scf accuracy    <       0.00666289 Ry

     iteration #  6     ecut=    50.00 Ry     beta= 0.01
     Davidson diagonalization with overlap
     ethr =  8.33E-05,  avg # of iterations =  1.0

     total cpu time spent up to now is       11.4 secs

     total energy              =     -22.62122843 Ry
     estimated scf accuracy    <       0.00600424 Ry

     iteration #  7     ecut=    50.00 Ry     beta= 0.01
     Davidson diagonalization with overlap
     ethr =  7.51E-05,  avg # of iterations =  1.0

     total cpu time spent up to now is       13.1 secs

     total energy              =     -22.62035312 Ry
     estimated scf accuracy    <       0.00299629 Ry

     iteration #  8     ecut=    50.00 Ry     beta= 0.01
     Davidson diagonalization with overlap
     ethr =  3.75E-05,  avg # of iterations =  1.3

     total cpu time spent up to now is       14.8 secs

     total energy              =     -22.62059496 Ry
     estimated scf accuracy    <       0.00185034 Ry

     iteration #  9     ecut=    50.00 Ry     beta= 0.01
     Davidson diagonalization with overlap
     ethr =  2.31E-05,  avg # of iterations =  1.0

     total cpu time spent up to now is       16.2 secs

     total energy              =     -22.62060500 Ry
     estimated scf accuracy    <       0.00202490 Ry

     iteration # 10     ecut=    50.00 Ry     beta= 0.01
     Davidson diagonalization with overlap
     ethr =  2.31E-05,  avg # of iterations =  1.0

     total cpu time spent up to now is       17.5 secs

     total energy              =     -22.62066769 Ry
     estimated scf accuracy    <       0.00163593 Ry

     iteration # 11     ecut=    50.00 Ry     beta= 0.01
     Davidson diagonalization with overlap
     ethr =  2.04E-05,  avg # of iterations =  1.0

     total cpu time spent up to now is       18.4 secs

     total energy              =     -22.62072648 Ry
     estimated scf accuracy    <       0.00097165 Ry

     iteration # 12     ecut=    50.00 Ry     beta= 0.01
     Davidson diagonalization with overlap
     ethr =  1.21E-05,  avg # of iterations =  1.0

     total cpu time spent up to now is       19.4 secs

     total energy              =     -22.62073291 Ry
     estimated scf accuracy    <       0.00001652 Ry

     iteration # 13     ecut=    50.00 Ry     beta= 0.01
     Davidson diagonalization with overlap
     ethr =  2.07E-07,  avg # of iterations =  1.0

     total cpu time spent up to now is       20.3 secs

     total energy              =     -22.62073375 Ry
     estimated scf accuracy    <       0.00001810 Ry

     iteration # 14     ecut=    50.00 Ry     beta= 0.01
     Davidson diagonalization with overlap
     ethr =  2.07E-07,  avg # of iterations =  1.0

     total cpu time spent up to now is       21.2 secs

     total energy              =     -22.62073437 Ry
     estimated scf accuracy    <       0.00001347 Ry

     iteration # 15     ecut=    50.00 Ry     beta= 0.01
     Davidson diagonalization with overlap
     ethr =  1.68E-07,  avg # of iterations =  1.0

     total cpu time spent up to now is       22.2 secs

     total energy              =     -22.62073624 Ry
     estimated scf accuracy    <       0.00001032 Ry

     iteration # 16     ecut=    50.00 Ry     beta= 0.01
     Davidson diagonalization with overlap
     ethr =  1.29E-07,  avg # of iterations =  1.0

     total cpu time spent up to now is       22.8 secs

     total energy              =     -22.62073782 Ry
     estimated scf accuracy    <       0.00000612 Ry

     iteration # 17     ecut=    50.00 Ry     beta= 0.01
     Davidson diagonalization with overlap
     ethr =  7.65E-08,  avg # of iterations =  2.0

     total cpu time spent up to now is       23.5 secs

     total energy              =     -22.62073845 Ry
     estimated scf accuracy    <       0.00000617 Ry

     iteration # 18     ecut=    50.00 Ry     beta= 0.01
     Davidson diagonalization with overlap
     ethr =  7.65E-08,  avg # of iterations =  1.0

     total cpu time spent up to now is       24.0 secs

     total energy              =     -22.62073842 Ry
     estimated scf accuracy    <       0.00000172 Ry

     iteration # 19     ecut=    50.00 Ry     beta= 0.01
     Davidson diagonalization with overlap
     ethr =  2.14E-08,  avg # of iterations =  1.0

     total cpu time spent up to now is       24.6 secs

     End of self-consistent calculation

          k = 0.0000 0.0000 0.0000 (   645 PWs)   bands (ev):

   -10.4854   7.8664   7.8664   7.8664

          k =-0.1000 0.1000-0.1000 (   631 PWs)   bands (ev):

   -10.2597   6.4526   7.5525   7.5525

          k =-0.2000 0.2000-0.2000 (   643 PWs)   bands (ev):

    -9.5920   3.7610   6.8997   6.8997

          k =-0.3000 0.3000-0.3000 (   640 PWs)   bands (ev):

    -8.5171   0.9674   6.2900   6.2900

          k =-0.4000 0.4000-0.4000 (   628 PWs)   bands (ev):

    -7.1646  -1.4978   5.8971   5.8971

          k = 0.5000-0.5000 0.5000 (   628 PWs)   bands (ev):

    -6.2673  -2.7730   5.7562   5.7562

          k = 0.0000 0.2000 0.0000 (   637 PWs)   bands (ev):

   -10.1845   6.8451   7.0170   7.0170

          k =-0.1000 0.3000-0.1000 (   643 PWs)   bands (ev):

    -9.6635   4.6339   6.2932   6.6992

          k =-0.2000 0.4000-0.2000 (   638 PWs)   bands (ev):

    -8.7202   1.9302   5.7165   6.0371

          k =-0.3000 0.5000-0.3000 (   634 PWs)   bands (ev):

    -7.4351  -0.6315   5.3747   5.4114

          k = 0.6000-0.4000 0.6000 (   641 PWs)   bands (ev):

    -6.2113  -2.4666   4.9042   5.4122

          k = 0.5000-0.3000 0.5000 (   639 PWs)   bands (ev):

    -6.5462  -2.0056   4.7083   5.7100

          k = 0.4000-0.2000 0.4000 (   628 PWs)   bands (ev):

    -7.8930   0.1922   4.8311   6.2528

          k = 0.3000-0.1000 0.3000 (   633 PWs)   bands (ev):

    -9.0801   2.8304   5.2863   6.9328

          k = 0.2000 0.0000 0.2000 (   642 PWs)   bands (ev):

    -9.8866   5.2525   6.2043   7.4964

          k = 0.0000 0.4000 0.0000 (   645 PWs)   bands (ev):

    -9.2911   4.6156   5.5296   5.5296

          k =-0.1000 0.5000-0.1000 (   647 PWs)   bands (ev):

    -8.4902   2.6422   4.8960   4.9235

          k =-0.2000 0.6000-0.2000 (   630 PWs)   bands (ev):

    -7.3123   0.3086   4.0434   4.6219

          k = 0.7000-0.3000 0.7000 (   649 PWs)   bands (ev):

    -5.9789  -1.7207   3.2628   4.6494

          k = 0.6000-0.2000 0.6000 (   648 PWs)   bands (ev):

    -5.6692  -2.1109   2.7780   5.0085

          k = 0.5000-0.1000 0.5000 (   643 PWs)   bands (ev):

    -6.8880  -0.3677   2.7070   5.6336

          k = 0.4000 0.0000 0.4000 (   636 PWs)   bands (ev):

    -8.1525   1.6581   3.3767   6.3776

          k = 0.0000 0.6000 0.0000 (   636 PWs)   bands (ev):

    -7.8329   1.9672   4.2642   4.2642

          k =-0.1000 0.7000-0.1000 (   644 PWs)   bands (ev):

    -6.7834   0.3716   3.4008   3.8987

          k = 0.8000-0.2000 0.8000 (   648 PWs)   bands (ev):

    -5.4671  -1.2870   2.2058   3.8823

          k = 0.7000-0.1000 0.7000 (   649 PWs)   bands (ev):

    -4.6560  -2.1509   1.3255   4.2227

          k = 0.6000-0.0000 0.6000 (   652 PWs)   bands (ev):

    -5.6169  -1.1535   1.2747   4.8532

          k = 0.0000 0.8000 0.0000 (   640 PWs)   bands (ev):

    -5.8638  -0.8043   3.4521   3.4521

          k = 0.9000-0.1000 0.9000 (   648 PWs)   bands (ev):

    -4.6261  -2.1538   2.6583   3.3548

          k = 0.8000 0.0000 0.8000 (   640 PWs)   bands (ev):

    -3.7225  -2.8887   1.5031   3.6282

          k = 0.0000-1.0000 0.0000 (   636 PWs)   bands (ev):

    -3.4734  -3.4734   3.1714   3.1714

          k =-0.2000 0.4000 0.0000 (   639 PWs)   bands (ev):

    -9.0027   3.3396   4.7619   6.3438

          k =-0.3000 0.5000-0.1000 (   636 PWs)   bands (ev):

    -7.9397   1.1165   3.9086   5.7233

          k = 0.6000-0.4000 0.8000 (   639 PWs)   bands (ev):

    -6.6027  -1.1628   3.5964   5.1297

          k = 0.5000-0.3000 0.7000 (   646 PWs)   bands (ev):

    -5.7106  -2.3932   3.5230   4.8851

          k =-0.2000 0.6000 0.0000 (   646 PWs)   bands (ev):

    -7.5657   1.3282   3.5423   4.5913

          k = 0.7000-0.3000 0.9000 (   648 PWs)   bands (ev):

    -6.3090  -0.4582   2.6690   4.0600

          k = 0.6000-0.2000 0.8000 (   652 PWs)   bands (ev):

    -5.1087  -1.9767   2.0772   3.9515

          k = 0.5000-0.1000 0.7000 (   647 PWs)   bands (ev):

    -5.4773  -1.5094   1.8066   4.3433

          k = 0.4000 0.0000 0.6000 (   644 PWs)   bands (ev):

    -6.7921   0.0839   2.2460   5.0404

          k = 0.8000-0.2000 1.0000 (   650 PWs)   bands (ev):

    -5.6429  -0.9352   2.8114   3.2656

          k = 0.7000-0.1000 0.9000 (   648 PWs)   bands (ev):

    -4.3480  -2.1862   1.7593   3.1417

          k = 0.6000 0.0000 0.8000 (   655 PWs)   bands (ev):

    -4.2866  -2.1971   1.0937   3.5824

          k =-0.2000-1.0000 0.0000 (   650 PWs)   bands (ev):

    -3.3575  -3.3575   2.6862   2.6862

          k = 0.6000-0.2000 1.0000 (   656 PWs)   bands (ev):

    -5.0415  -1.4335   1.7013   3.2200

          k = 0.5000-0.1000 0.9000 (   650 PWs)   bands (ev):

    -4.1300  -2.2733   1.4479   2.8242

          k =-0.4000-1.0000 0.0000 (   646 PWs)   bands (ev):

    -3.1454  -3.1454   1.9806   1.9806

     highest occupied level (ev):     7.8664

!    total energy              =     -22.62073851 Ry
     estimated scf accuracy    <       0.00000019 Ry

     The total energy is the sum of the following terms:
     one-electron contribution =       4.45364318 Ry
     hartree contribution      =       2.30834624 Ry
     xc contribution           =      -6.56439181 Ry
     ewald contribution        =     -22.81833611 Ry

     convergence has been achieved in  19 iterations
     Writing meta-gga kinetic term

     Writing all to output data dir ./input_pw/C/9/pwscf.save/
     Writing meta-gga kinetic term
 
     init_run     :      0.77s CPU      1.27s WALL (       1 calls)
     electrons    :     16.57s CPU     23.27s WALL (       1 calls)

     Called by init_run:
     wfcinit      :      0.71s CPU      1.17s WALL (       1 calls)
     potinit      :      0.02s CPU      0.04s WALL (       1 calls)
     hinit0       :      0.03s CPU      0.05s WALL (       1 calls)

     Called by electrons:
     c_bands      :     12.82s CPU     18.02s WALL (      19 calls)
     sum_band     :      3.27s CPU      4.58s WALL (      19 calls)
     v_of_rho     :      0.36s CPU      0.50s WALL (      20 calls)
     mix_rho      :      0.13s CPU      0.19s WALL (      19 calls)

     Called by c_bands:
     init_us_2    :      0.05s CPU      0.05s WALL (    1833 calls)
     init_us_2:cp :      0.04s CPU      0.05s WALL (    1833 calls)
     cegterg      :     12.77s CPU     17.96s WALL (     893 calls)

     Called by *egterg:
     cdiaghg      :      0.07s CPU      0.10s WALL (    1930 calls)
     h_psi        :     13.23s CPU     18.79s WALL (    1977 calls)
     g_psi        :      0.01s CPU      0.01s WALL (    1037 calls)

     Called by h_psi:
     h_psi:calbec :      0.02s CPU      0.02s WALL (    1977 calls)
     vloc_psi     :      3.28s CPU      4.57s WALL (    1977 calls)
     add_vuspsi   :      0.03s CPU      0.04s WALL (    1977 calls)
     h_psi_meta   :      9.88s CPU     14.13s WALL (    1977 calls)

     General routines
     calbec       :      0.02s CPU      0.02s WALL (    1977 calls)
     fft          :      0.04s CPU      0.08s WALL (     237 calls)
     ffts         :      0.06s CPU      0.09s WALL (     342 calls)
     fftw         :     13.90s CPU     19.71s WALL (   77216 calls)
     interpolate  :      0.00s CPU      0.00s WALL (      20 calls)
 
     Parallel routines
 
     PWSCF        :     17.36s CPU     24.58s WALL

 
   This run was terminated on:  11:48:40  14Mar2023            

=------------------------------------------------------------------------------=
   JOB DONE.
=------------------------------------------------------------------------------=
