
     Program PWSCF v.7.0 starts on 14Mar2023 at 12: 2:31 

     This program is part of the open-source Quantum ESPRESSO suite
     for quantum simulation of materials; please cite
         "P. Giannozzi et al., J. Phys.:Condens. Matter 21 395502 (2009);
         "P. Giannozzi et al., J. Phys.:Condens. Matter 29 465901 (2017);
         "P. Giannozzi et al., J. Chem. Phys. 152 154105 (2020);
          URL http://www.quantum-espresso.org", 
     in publications or presentations arising from this work. More details at
     http://www.quantum-espresso.org/quote

     Parallel version (MPI), running on     1 processors

     MPI processes distributed on     1 nodes
     26676 MiB available memory on the printing compute node when the environment starts
 
     Waiting for input...
     Reading input from standard input
Warning: card &CELL ignored
Warning: card / ignored

     Current dimensions of program PWSCF are:
     Max number of different atomic species (ntypx) = 10
     Max number of k-points (npk) =  40000
     Max angular momentum in pseudopotentials (lmaxx) =  4
     file Si.SCAN.UPF2: wavefunction(s)  0D renormalized

     WARNING: the MGGA functional with ID    5 has been 
     read together with other dft terms, but it should 
     stand alone in order to work properly. The other 
     terms will be ignored.

     WARNING: the MGGA functional with ID    5 has been 
     read together with other dft terms, but it should 
     stand alone in order to work properly. The other 
     terms will be ignored.

     Subspace diagonalization in iterative solution of the eigenvalue problem:
     a serial algorithm will be used

 
     G-vector sticks info
     --------------------
     sticks:   dense  smooth     PW     G-vecs:    dense   smooth      PW
     Sum         559     559    187                 8801     8801    1591
 
     Using Slab Decomposition
 


     bravais-lattice index     =            2
     lattice parameter (alat)  =       9.0370  a.u.
     unit-cell volume          =     184.5070 (a.u.)^3
     number of atoms/cell      =            2
     number of atomic types    =            2
     number of electrons       =         8.00
     number of Kohn-Sham states=            4
     kinetic-energy cutoff     =      50.0000  Ry
     charge density cutoff     =     200.0000  Ry
     scf convergence threshold =      1.0E-06
     mixing beta               =       0.0100
     number of iterations used =            8  local-TF  mixing
     Exchange-correlation= SLA  PW   SCAN SCAN
                           (   0   0   0   0   0 263 267)

     celldm(1)=   9.037000  celldm(2)=   0.000000  celldm(3)=   0.000000
     celldm(4)=   0.000000  celldm(5)=   0.000000  celldm(6)=   0.000000

     crystal axes: (cart. coord. in units of alat)
               a(1) = (  -0.500000   0.000000   0.500000 )  
               a(2) = (   0.000000   0.500000   0.500000 )  
               a(3) = (  -0.500000   0.500000   0.000000 )  

     reciprocal axes: (cart. coord. in units 2 pi/alat)
               b(1) = ( -1.000000 -1.000000  1.000000 )  
               b(2) = (  1.000000  1.000000  1.000000 )  
               b(3) = ( -1.000000  1.000000 -1.000000 )  


     PseudoPot. # 1 for Si read from file:
     ~/Documents/TA/PWDFT.jl/pseudopotentials/scan_upf/Si.SCAN.UPF2
     MD5 check sum: Not computed, couldn't open file
     Pseudo is Norm-conserving, Zval =  4.0
     Generated by new atomic code, or converted to UPF format
     Using radial grid of 1475 points,  2 beta functions with: 
                l(1) =   0
                l(2) =   1

     PseudoPot. # 2 for C  read from file:
     ~/Documents/TA/PWDFT.jl/pseudopotentials/scan_upf/C.SCAN.UPF2
     MD5 check sum: Not computed, couldn't open file
     Pseudo is Norm-conserving, Zval =  4.0
     Generated by new atomic code, or converted to UPF format
     Using radial grid of 1389 points,  1 beta functions with: 
                l(1) =   0

     atomic species   valence    mass     pseudopotential
        Si             4.00    28.08550     Si( 1.00)
        C              4.00    12.01100     C ( 1.00)

     24 Sym. Ops. (no inversion) found



   Cartesian axes

     site n.     atom                  positions (alat units)
         1           Si  tau(   1) = (   0.0000000   0.0000000   0.0000000  )
         2           C   tau(   2) = (   0.2500000   0.2500000   0.2500000  )

     number of k points=    47
                       cart. coord. in units 2pi/alat
        k(    1) = (   0.0000000   0.0000000   0.0000000), wk =   0.0020000
        k(    2) = (  -0.1000000   0.1000000  -0.1000000), wk =   0.0160000
        k(    3) = (  -0.2000000   0.2000000  -0.2000000), wk =   0.0160000
        k(    4) = (  -0.3000000   0.3000000  -0.3000000), wk =   0.0160000
        k(    5) = (  -0.4000000   0.4000000  -0.4000000), wk =   0.0160000
        k(    6) = (   0.5000000  -0.5000000   0.5000000), wk =   0.0080000
        k(    7) = (   0.0000000   0.2000000   0.0000000), wk =   0.0120000
        k(    8) = (  -0.1000000   0.3000000  -0.1000000), wk =   0.0480000
        k(    9) = (  -0.2000000   0.4000000  -0.2000000), wk =   0.0480000
        k(   10) = (  -0.3000000   0.5000000  -0.3000000), wk =   0.0480000
        k(   11) = (   0.6000000  -0.4000000   0.6000000), wk =   0.0480000
        k(   12) = (   0.5000000  -0.3000000   0.5000000), wk =   0.0480000
        k(   13) = (   0.4000000  -0.2000000   0.4000000), wk =   0.0480000
        k(   14) = (   0.3000000  -0.1000000   0.3000000), wk =   0.0480000
        k(   15) = (   0.2000000   0.0000000   0.2000000), wk =   0.0240000
        k(   16) = (   0.0000000   0.4000000   0.0000000), wk =   0.0120000
        k(   17) = (  -0.1000000   0.5000000  -0.1000000), wk =   0.0480000
        k(   18) = (  -0.2000000   0.6000000  -0.2000000), wk =   0.0480000
        k(   19) = (   0.7000000  -0.3000000   0.7000000), wk =   0.0480000
        k(   20) = (   0.6000000  -0.2000000   0.6000000), wk =   0.0480000
        k(   21) = (   0.5000000  -0.1000000   0.5000000), wk =   0.0480000
        k(   22) = (   0.4000000   0.0000000   0.4000000), wk =   0.0240000
        k(   23) = (   0.0000000   0.6000000   0.0000000), wk =   0.0120000
        k(   24) = (  -0.1000000   0.7000000  -0.1000000), wk =   0.0480000
        k(   25) = (   0.8000000  -0.2000000   0.8000000), wk =   0.0480000
        k(   26) = (   0.7000000  -0.1000000   0.7000000), wk =   0.0480000
        k(   27) = (   0.6000000  -0.0000000   0.6000000), wk =   0.0240000
        k(   28) = (   0.0000000   0.8000000   0.0000000), wk =   0.0120000
        k(   29) = (   0.9000000  -0.1000000   0.9000000), wk =   0.0480000
        k(   30) = (   0.8000000   0.0000000   0.8000000), wk =   0.0240000
        k(   31) = (   0.0000000  -1.0000000   0.0000000), wk =   0.0060000
        k(   32) = (  -0.2000000   0.4000000   0.0000000), wk =   0.0480000
        k(   33) = (  -0.3000000   0.5000000  -0.1000000), wk =   0.0960000
        k(   34) = (   0.6000000  -0.4000000   0.8000000), wk =   0.0960000
        k(   35) = (   0.5000000  -0.3000000   0.7000000), wk =   0.0480000
        k(   36) = (  -0.2000000   0.6000000   0.0000000), wk =   0.0480000
        k(   37) = (   0.7000000  -0.3000000   0.9000000), wk =   0.0960000
        k(   38) = (   0.6000000  -0.2000000   0.8000000), wk =   0.0960000
        k(   39) = (   0.5000000  -0.1000000   0.7000000), wk =   0.0960000
        k(   40) = (   0.4000000   0.0000000   0.6000000), wk =   0.0480000
        k(   41) = (   0.8000000  -0.2000000   1.0000000), wk =   0.0480000
        k(   42) = (   0.7000000  -0.1000000   0.9000000), wk =   0.0960000
        k(   43) = (   0.6000000   0.0000000   0.8000000), wk =   0.0480000
        k(   44) = (  -0.2000000  -1.0000000   0.0000000), wk =   0.0240000
        k(   45) = (   0.6000000  -0.2000000   1.0000000), wk =   0.0480000
        k(   46) = (   0.5000000  -0.1000000   0.9000000), wk =   0.0480000
        k(   47) = (  -0.4000000  -1.0000000   0.0000000), wk =   0.0240000

     Dense  grid:     8801 G-vectors     FFT dimensions: (  30,  30,  30)

     Estimated max dynamical RAM per process >      16.84 MB

     WARNING: libxc functional with ID  263 depends
      on external parameters: check the user_guide of
      QE if you need to modify them or to check their
      default values.

     Initial potential from superposition of free atoms

     starting charge       7.9995, renormalised to       8.0000
     Starting wfcs are   13 randomized atomic wfcs

     total cpu time spent up to now is        4.5 secs

     Self-consistent Calculation

     iteration #  1     ecut=    50.00 Ry     beta= 0.01
     Davidson diagonalization with overlap
     ethr =  1.00E-02,  avg # of iterations =  1.9

     total cpu time spent up to now is        8.2 secs

     total energy              =     -19.23054987 Ry
     estimated scf accuracy    <       1.59242186 Ry

     iteration #  2     ecut=    50.00 Ry     beta= 0.01
     Davidson diagonalization with overlap
     ethr =  1.00E-02,  avg # of iterations =  1.0

     total cpu time spent up to now is       11.2 secs

     total energy              =     -19.16779531 Ry
     estimated scf accuracy    <       1.56765111 Ry

     iteration #  3     ecut=    50.00 Ry     beta= 0.01
     Davidson diagonalization with overlap
     ethr =  1.00E-02,  avg # of iterations =  1.0

     total cpu time spent up to now is       14.5 secs

     total energy              =     -19.21266465 Ry
     estimated scf accuracy    <       0.02278875 Ry

     iteration #  4     ecut=    50.00 Ry     beta= 0.01
     Davidson diagonalization with overlap
     ethr =  2.85E-04,  avg # of iterations =  2.5

     total cpu time spent up to now is       19.2 secs

     total energy              =     -19.22088806 Ry
     estimated scf accuracy    <       0.03462748 Ry

     iteration #  5     ecut=    50.00 Ry     beta= 0.01
     Davidson diagonalization with overlap
     ethr =  2.85E-04,  avg # of iterations =  2.0

     total cpu time spent up to now is       23.4 secs

     total energy              =     -19.22197227 Ry
     estimated scf accuracy    <       0.12438557 Ry

     iteration #  6     ecut=    50.00 Ry     beta= 0.01
     Davidson diagonalization with overlap
     ethr =  2.85E-04,  avg # of iterations =  1.0

     total cpu time spent up to now is       26.8 secs

     total energy              =     -19.22463523 Ry
     estimated scf accuracy    <       0.16053536 Ry

     iteration #  7     ecut=    50.00 Ry     beta= 0.01
     Davidson diagonalization with overlap
     ethr =  2.85E-04,  avg # of iterations =  1.0

     total cpu time spent up to now is       30.0 secs

     total energy              =     -19.22619409 Ry
     estimated scf accuracy    <       0.01578043 Ry

     iteration #  8     ecut=    50.00 Ry     beta= 0.01
     Davidson diagonalization with overlap
     ethr =  1.97E-04,  avg # of iterations =  1.0

     total cpu time spent up to now is       33.4 secs

     total energy              =     -19.22622104 Ry
     estimated scf accuracy    <       0.01042131 Ry

     iteration #  9     ecut=    50.00 Ry     beta= 0.01
     Davidson diagonalization with overlap
     ethr =  1.30E-04,  avg # of iterations =  1.0

     total cpu time spent up to now is       36.3 secs

     total energy              =     -19.22486787 Ry
     estimated scf accuracy    <       0.00940692 Ry

     iteration # 10     ecut=    50.00 Ry     beta= 0.01
     Davidson diagonalization with overlap
     ethr =  1.18E-04,  avg # of iterations =  1.0

     total cpu time spent up to now is       39.2 secs

     total energy              =     -19.22518884 Ry
     estimated scf accuracy    <       0.00104333 Ry

     iteration # 11     ecut=    50.00 Ry     beta= 0.01
     Davidson diagonalization with overlap
     ethr =  1.30E-05,  avg # of iterations =  2.1

     total cpu time spent up to now is       43.5 secs

     total energy              =     -19.22560453 Ry
     estimated scf accuracy    <       0.00059197 Ry

     iteration # 12     ecut=    50.00 Ry     beta= 0.01
     Davidson diagonalization with overlap
     ethr =  7.40E-06,  avg # of iterations =  1.0

     total cpu time spent up to now is       46.4 secs

     total energy              =     -19.22568850 Ry
     estimated scf accuracy    <       0.00067855 Ry

     iteration # 13     ecut=    50.00 Ry     beta= 0.01
     Davidson diagonalization with overlap
     ethr =  7.40E-06,  avg # of iterations =  1.0

     total cpu time spent up to now is       49.2 secs

     total energy              =     -19.22552445 Ry
     estimated scf accuracy    <       0.00135308 Ry

     iteration # 14     ecut=    50.00 Ry     beta= 0.01
     Davidson diagonalization with overlap
     ethr =  7.40E-06,  avg # of iterations =  1.0

     total cpu time spent up to now is       52.0 secs

     total energy              =     -19.22534450 Ry
     estimated scf accuracy    <       0.00081518 Ry

     iteration # 15     ecut=    50.00 Ry     beta= 0.01
     Davidson diagonalization with overlap
     ethr =  7.40E-06,  avg # of iterations =  1.9

     total cpu time spent up to now is       55.7 secs

     total energy              =     -19.22541524 Ry
     estimated scf accuracy    <       0.00005903 Ry

     iteration # 16     ecut=    50.00 Ry     beta= 0.01
     Davidson diagonalization with overlap
     ethr =  7.38E-07,  avg # of iterations =  1.9

     total cpu time spent up to now is       58.7 secs

     total energy              =     -19.22542074 Ry
     estimated scf accuracy    <       0.00006069 Ry

     iteration # 17     ecut=    50.00 Ry     beta= 0.01
     Davidson diagonalization with overlap
     ethr =  7.38E-07,  avg # of iterations =  1.0

     total cpu time spent up to now is       60.7 secs

     total energy              =     -19.22541998 Ry
     estimated scf accuracy    <       0.00006403 Ry

     iteration # 18     ecut=    50.00 Ry     beta= 0.01
     Davidson diagonalization with overlap
     ethr =  7.38E-07,  avg # of iterations =  1.0

     total cpu time spent up to now is       63.3 secs

     total energy              =     -19.22541709 Ry
     estimated scf accuracy    <       0.00004246 Ry

     iteration # 19     ecut=    50.00 Ry     beta= 0.01
     Davidson diagonalization with overlap
     ethr =  5.31E-07,  avg # of iterations =  1.0

     total cpu time spent up to now is       65.6 secs

     total energy              =     -19.22541812 Ry
     estimated scf accuracy    <       0.00001260 Ry

     iteration # 20     ecut=    50.00 Ry     beta= 0.01
     Davidson diagonalization with overlap
     ethr =  1.58E-07,  avg # of iterations =  1.0

     total cpu time spent up to now is       67.7 secs

     total energy              =     -19.22541869 Ry
     estimated scf accuracy    <       0.00000844 Ry

     iteration # 21     ecut=    50.00 Ry     beta= 0.01
     Davidson diagonalization with overlap
     ethr =  1.06E-07,  avg # of iterations =  1.0

     total cpu time spent up to now is       70.0 secs

     total energy              =     -19.22541882 Ry
     estimated scf accuracy    <       0.00000925 Ry

     iteration # 22     ecut=    50.00 Ry     beta= 0.01
     Davidson diagonalization with overlap
     ethr =  1.06E-07,  avg # of iterations =  1.0

     total cpu time spent up to now is       71.5 secs

     total energy              =     -19.22541951 Ry
     estimated scf accuracy    <       0.00000878 Ry

     iteration # 23     ecut=    50.00 Ry     beta= 0.01
     Davidson diagonalization with overlap
     ethr =  1.06E-07,  avg # of iterations =  1.0

     total cpu time spent up to now is       73.5 secs

     total energy              =     -19.22541927 Ry
     estimated scf accuracy    <       0.00001315 Ry

     iteration # 24     ecut=    50.00 Ry     beta= 0.01
     Davidson diagonalization with overlap
     ethr =  1.06E-07,  avg # of iterations =  1.0

     total cpu time spent up to now is       75.2 secs

     total energy              =     -19.22541978 Ry
     estimated scf accuracy    <       0.00001186 Ry

     iteration # 25     ecut=    50.00 Ry     beta= 0.01
     Davidson diagonalization with overlap
     ethr =  1.06E-07,  avg # of iterations =  1.0

     total cpu time spent up to now is       76.5 secs

     total energy              =     -19.22541880 Ry
     estimated scf accuracy    <       0.00001563 Ry

     iteration # 26     ecut=    50.00 Ry     beta= 0.01
     Davidson diagonalization with overlap
     ethr =  1.06E-07,  avg # of iterations =  1.0

     total cpu time spent up to now is       78.2 secs

     total energy              =     -19.22541951 Ry
     estimated scf accuracy    <       0.00000764 Ry

     iteration # 27     ecut=    50.00 Ry     beta= 0.01
     Davidson diagonalization with overlap
     ethr =  9.55E-08,  avg # of iterations =  1.0

     total cpu time spent up to now is       79.6 secs

     total energy              =     -19.22541917 Ry
     estimated scf accuracy    <       0.00001342 Ry

     iteration # 28     ecut=    50.00 Ry     beta= 0.01
     Davidson diagonalization with overlap
     ethr =  9.55E-08,  avg # of iterations =  1.0

     total cpu time spent up to now is       81.0 secs

     total energy              =     -19.22541911 Ry
     estimated scf accuracy    <       0.00001075 Ry

     iteration # 29     ecut=    50.00 Ry     beta= 0.01
     Davidson diagonalization with overlap
     ethr =  9.55E-08,  avg # of iterations =  1.0

     total cpu time spent up to now is       82.4 secs

     total energy              =     -19.22541931 Ry
     estimated scf accuracy    <       0.00000999 Ry

     iteration # 30     ecut=    50.00 Ry     beta= 0.01
     Davidson diagonalization with overlap
     ethr =  9.55E-08,  avg # of iterations =  1.0

     total cpu time spent up to now is       83.8 secs

     total energy              =     -19.22541723 Ry
     estimated scf accuracy    <       0.00001179 Ry

     iteration # 31     ecut=    50.00 Ry     beta= 0.01
     Davidson diagonalization with overlap
     ethr =  9.55E-08,  avg # of iterations =  1.0

     total cpu time spent up to now is       85.3 secs

     End of self-consistent calculation

          k = 0.0000 0.0000 0.0000 (  1067 PWs)   bands (ev):

    -7.9173   6.1781   6.1781   6.1781

          k =-0.1000 0.1000-0.1000 (  1097 PWs)   bands (ev):

    -7.7572   5.1164   6.0461   6.0461

          k =-0.2000 0.2000-0.2000 (  1098 PWs)   bands (ev):

    -7.2877   3.1615   5.7517   5.7517

          k =-0.3000 0.3000-0.3000 (  1089 PWs)   bands (ev):

    -6.5545   1.1716   5.4491   5.4491

          k =-0.4000 0.4000-0.4000 (  1101 PWs)   bands (ev):

    -5.7057  -0.4868   5.2377   5.2377

          k = 0.5000-0.5000 0.5000 (  1104 PWs)   bands (ev):

    -5.2362  -1.2327   5.1621   5.1621

          k = 0.0000 0.2000 0.0000 (  1098 PWs)   bands (ev):

    -7.7037   5.2296   5.7617   5.7617

          k =-0.1000 0.3000-0.1000 (  1108 PWs)   bands (ev):

    -7.3364   3.7300   5.3780   5.5393

          k =-0.2000 0.4000-0.2000 (  1094 PWs)   bands (ev):

    -6.6866   1.8280   5.0655   5.1698

          k =-0.3000 0.5000-0.3000 (  1105 PWs)   bands (ev):

    -5.8539   0.0768   4.7621   4.9064

          k = 0.6000-0.4000 0.6000 (  1105 PWs)   bands (ev):

    -5.1789  -1.0361   4.4544   4.9320

          k = 0.5000-0.3000 0.5000 (  1109 PWs)   bands (ev):

    -5.3462  -0.7786   4.3182   5.1287

          k = 0.4000-0.2000 0.4000 (  1101 PWs)   bands (ev):

    -6.1418   0.6250   4.3921   5.4508

          k = 0.3000-0.1000 0.3000 (  1106 PWs)   bands (ev):

    -6.9326   2.4457   4.7001   5.8091

          k = 0.2000 0.0000 0.2000 (  1109 PWs)   bands (ev):

    -7.4935   4.1545   5.3058   6.0599

          k = 0.0000 0.4000 0.0000 (  1106 PWs)   bands (ev):

    -7.0745   3.5107   4.9155   4.9155

          k =-0.1000 0.5000-0.1000 (  1089 PWs)   bands (ev):

    -6.5232   2.2112   4.4443   4.5506

          k =-0.2000 0.6000-0.2000 (  1097 PWs)   bands (ev):

    -5.7530   0.6715   3.7965   4.3730

          k = 0.7000-0.3000 0.7000 (  1103 PWs)   bands (ev):

    -4.9942  -0.5583   3.2142   4.4168

          k = 0.6000-0.2000 0.6000 (  1114 PWs)   bands (ev):

    -4.8524  -0.7553   2.8630   4.6673

          k = 0.5000-0.1000 0.5000 (  1109 PWs)   bands (ev):

    -5.5015   0.2375   2.8570   5.0749

          k = 0.4000 0.0000 0.4000 (  1093 PWs)   bands (ev):

    -6.3037   1.5303   3.4222   5.5222

          k = 0.0000 0.6000 0.0000 (  1094 PWs)   bands (ev):

    -6.0767   1.6736   4.1211   4.1211

          k =-0.1000 0.7000-0.1000 (  1100 PWs)   bands (ev):

    -5.4027   0.6444   3.4802   3.8882

          k = 0.8000-0.2000 0.8000 (  1102 PWs)   bands (ev):

    -4.6732  -0.2912   2.5333   3.8943

          k = 0.7000-0.1000 0.7000 (  1111 PWs)   bands (ev):

    -4.3499  -0.6253   1.8437   4.1350

          k = 0.6000-0.0000 0.6000 (  1113 PWs)   bands (ev):

    -4.7766  -0.1909   1.8349   4.5651

          k = 0.0000 0.8000 0.0000 (  1094 PWs)   bands (ev):

    -4.8554  -0.0754   3.5911   3.5911

          k = 0.9000-0.1000 0.9000 (  1106 PWs)   bands (ev):

    -4.2844  -0.7163   2.9595   3.5333

          k = 0.8000 0.0000 0.8000 (  1105 PWs)   bands (ev):

    -4.0639  -0.8073   2.0291   3.7264

          k = 0.0000-1.0000 0.0000 (  1106 PWs)   bands (ev):

    -4.0771  -1.0384   3.4074   3.4074

          k =-0.2000 0.4000 0.0000 (  1104 PWs)   bands (ev):

    -6.8768   2.7152   4.4004   5.4089

          k =-0.3000 0.5000-0.1000 (  1093 PWs)   bands (ev):

    -6.1622   1.2120   3.7519   5.0667

          k = 0.6000-0.4000 0.8000 (  1100 PWs)   bands (ev):

    -5.3423  -0.2489   3.4763   4.7104

          k = 0.5000-0.3000 0.7000 (  1108 PWs)   bands (ev):

    -4.8954  -0.9299   3.4050   4.5609

          k =-0.2000 0.6000 0.0000 (  1094 PWs)   bands (ev):

    -5.9068   1.2756   3.5756   4.3091

          k = 0.7000-0.3000 0.9000 (  1095 PWs)   bands (ev):

    -5.1358   0.1707   2.8700   3.9551

          k = 0.6000-0.2000 0.8000 (  1101 PWs)   bands (ev):

    -4.5460  -0.6068   2.3724   3.8920

          k = 0.5000-0.1000 0.7000 (  1102 PWs)   bands (ev):

    -4.7119  -0.3810   2.1910   4.1612

          k = 0.4000 0.0000 0.6000 (  1103 PWs)   bands (ev):

    -5.4315   0.4901   2.5861   4.6318

          k = 0.8000-0.2000 1.0000 (  1094 PWs)   bands (ev):

    -4.7446  -0.1242   3.0634   3.4012

          k = 0.7000-0.1000 0.9000 (  1106 PWs)   bands (ev):

    -4.1974  -0.6213   2.2172   3.3069

          k = 0.6000 0.0000 0.8000 (  1110 PWs)   bands (ev):

    -4.1976  -0.5661   1.6922   3.6214

          k =-0.2000-1.0000 0.0000 (  1102 PWs)   bands (ev):

    -4.0385  -0.9137   2.9723   2.9870

          k = 0.6000-0.2000 1.0000 (  1099 PWs)   bands (ev):

    -4.4711  -0.3052   2.1698   3.3194

          k = 0.5000-0.1000 0.9000 (  1104 PWs)   bands (ev):

    -4.1401  -0.5670   1.9487   3.0259

          k =-0.4000-1.0000 0.0000 (  1104 PWs)   bands (ev):

    -3.9733  -0.6680   2.3111   2.4528

     highest occupied level (ev):     6.1781

!    total energy              =     -19.22541761 Ry
     estimated scf accuracy    <       0.00000052 Ry

     The total energy is the sum of the following terms:
     one-electron contribution =       2.99881679 Ry
     hartree contribution      =       2.57303358 Ry
     xc contribution           =      -5.72262620 Ry
     ewald contribution        =     -19.07464178 Ry

     convergence has been achieved in  31 iterations
     Writing meta-gga kinetic term

     Writing all to output data dir ./input_pw/SiC/8/pwscf.save/
     Writing meta-gga kinetic term
 
     init_run     :      1.72s CPU      4.36s WALL (       1 calls)
     electrons    :     42.36s CPU     80.73s WALL (       1 calls)

     Called by init_run:
     wfcinit      :      1.61s CPU      3.99s WALL (       1 calls)
     potinit      :      0.02s CPU      0.07s WALL (       1 calls)
     hinit0       :      0.09s CPU      0.21s WALL (       1 calls)

     Called by electrons:
     c_bands      :     33.10s CPU     63.04s WALL (      31 calls)
     sum_band     :      8.28s CPU     15.85s WALL (      31 calls)
     v_of_rho     :      0.54s CPU      1.11s WALL (      32 calls)
     mix_rho      :      0.43s CPU      0.76s WALL (      31 calls)

     Called by c_bands:
     init_us_2    :      0.42s CPU      0.73s WALL (    2961 calls)
     init_us_2:cp :      0.41s CPU      0.72s WALL (    2961 calls)
     cegterg      :     32.70s CPU     62.24s WALL (    1457 calls)

     Called by *egterg:
     cdiaghg      :      0.18s CPU      0.30s WALL (    3205 calls)
     h_psi        :     33.60s CPU     64.94s WALL (    3252 calls)
     g_psi        :      0.02s CPU      0.02s WALL (    1748 calls)

     Called by h_psi:
     h_psi:calbec :      0.11s CPU      0.17s WALL (    3252 calls)
     vloc_psi     :      8.27s CPU     15.64s WALL (    3252 calls)
     add_vuspsi   :      0.11s CPU      0.26s WALL (    3252 calls)
     h_psi_meta   :     25.05s CPU     48.72s WALL (    3252 calls)

     General routines
     calbec       :      0.10s CPU      0.15s WALL (    3252 calls)
     fft          :      0.11s CPU      0.29s WALL (     381 calls)
     ffts         :      0.18s CPU      0.36s WALL (     628 calls)
     fftw         :     36.58s CPU     71.22s WALL (  127720 calls)
     interpolate  :      0.00s CPU      0.00s WALL (      32 calls)
 
     Parallel routines
 
     PWSCF        :     44.13s CPU   1m25.30s WALL

 
   This run was terminated on:  12: 3:56  14Mar2023            

=------------------------------------------------------------------------------=
   JOB DONE.
=------------------------------------------------------------------------------=
