
     Program PWSCF v.7.0 starts on  7Jul2023 at 14:30:57 

     This program is part of the open-source Quantum ESPRESSO suite
     for quantum simulation of materials; please cite
         "P. Giannozzi et al., J. Phys.:Condens. Matter 21 395502 (2009);
         "P. Giannozzi et al., J. Phys.:Condens. Matter 29 465901 (2017);
         "P. Giannozzi et al., J. Chem. Phys. 152 154105 (2020);
          URL http://www.quantum-espresso.org", 
     in publications or presentations arising from this work. More details at
     http://www.quantum-espresso.org/quote

     Parallel version (MPI), running on     1 processors

     MPI processes distributed on     1 nodes
     26883 MiB available memory on the printing compute node when the environment starts
 
     Waiting for input...
     Reading input from standard input
Warning: card &CELL ignored
Warning: card / ignored

     Current dimensions of program PWSCF are:
     Max number of different atomic species (ntypx) = 10
     Max number of k-points (npk) =  40000
     Max angular momentum in pseudopotentials (lmaxx) =  4
     file Si.SCAN.UPF2: wavefunction(s)  0D renormalized

     WARNING: the MGGA functional with ID    5 has been 
     read together with other dft terms, but it should 
     stand alone in order to work properly. The other 
     terms will be ignored.

     WARNING: the MGGA functional with ID    5 has been 
     read together with other dft terms, but it should 
     stand alone in order to work properly. The other 
     terms will be ignored.

     Subspace diagonalization in iterative solution of the eigenvalue problem:
     a serial algorithm will be used

 
     G-vector sticks info
     --------------------
     sticks:   dense  smooth     PW     G-vecs:    dense   smooth      PW
     Sum         511     511    163                 7727     7727    1411
 
     Using Slab Decomposition
 


     bravais-lattice index     =            2
     lattice parameter (alat)  =       8.6172  a.u.
     unit-cell volume          =     159.9673 (a.u.)^3
     number of atoms/cell      =            2
     number of atomic types    =            2
     number of electrons       =         8.00
     number of Kohn-Sham states=            4
     kinetic-energy cutoff     =      50.0000  Ry
     charge density cutoff     =     200.0000  Ry
     scf convergence threshold =      2.0E-05
     mixing beta               =       0.2000
     number of iterations used =            8  local-TF  mixing
     Exchange-correlation= SLA  PW   SCAN SCAN
                           (   0   0   0   0   0 263 267)

     celldm(1)=   8.617151  celldm(2)=   0.000000  celldm(3)=   0.000000
     celldm(4)=   0.000000  celldm(5)=   0.000000  celldm(6)=   0.000000

     crystal axes: (cart. coord. in units of alat)
               a(1) = (  -0.500000   0.000000   0.500000 )  
               a(2) = (   0.000000   0.500000   0.500000 )  
               a(3) = (  -0.500000   0.500000   0.000000 )  

     reciprocal axes: (cart. coord. in units 2 pi/alat)
               b(1) = ( -1.000000 -1.000000  1.000000 )  
               b(2) = (  1.000000  1.000000  1.000000 )  
               b(3) = ( -1.000000  1.000000 -1.000000 )  


     PseudoPot. # 1 for Si read from file:
     ~/Documents/TA/PWDFT.jl/pseudopotentials/scan_upf/Si.SCAN.UPF2
     MD5 check sum: Not computed, couldn't open file
     Pseudo is Norm-conserving, Zval =  4.0
     Generated by new atomic code, or converted to UPF format
     Using radial grid of 1475 points,  2 beta functions with: 
                l(1) =   0
                l(2) =   1

     PseudoPot. # 2 for C  read from file:
     ~/Documents/TA/PWDFT.jl/pseudopotentials/scan_upf/C.SCAN.UPF2
     MD5 check sum: Not computed, couldn't open file
     Pseudo is Norm-conserving, Zval =  4.0
     Generated by new atomic code, or converted to UPF format
     Using radial grid of 1389 points,  1 beta functions with: 
                l(1) =   0

     atomic species   valence    mass     pseudopotential
        Si             4.00    28.08550     Si( 1.00)
        C              4.00    12.01100     C ( 1.00)

     24 Sym. Ops. (no inversion) found



   Cartesian axes

     site n.     atom                  positions (alat units)
         1           Si  tau(   1) = (   0.0000000   0.0000000   0.0000000  )
         2           C   tau(   2) = (   0.2500000   0.2500000   0.2500000  )

     number of k points=    47
                       cart. coord. in units 2pi/alat
        k(    1) = (   0.0000000   0.0000000   0.0000000), wk =   0.0020000
        k(    2) = (  -0.1000000   0.1000000  -0.1000000), wk =   0.0160000
        k(    3) = (  -0.2000000   0.2000000  -0.2000000), wk =   0.0160000
        k(    4) = (  -0.3000000   0.3000000  -0.3000000), wk =   0.0160000
        k(    5) = (  -0.4000000   0.4000000  -0.4000000), wk =   0.0160000
        k(    6) = (   0.5000000  -0.5000000   0.5000000), wk =   0.0080000
        k(    7) = (   0.0000000   0.2000000   0.0000000), wk =   0.0120000
        k(    8) = (  -0.1000000   0.3000000  -0.1000000), wk =   0.0480000
        k(    9) = (  -0.2000000   0.4000000  -0.2000000), wk =   0.0480000
        k(   10) = (  -0.3000000   0.5000000  -0.3000000), wk =   0.0480000
        k(   11) = (   0.6000000  -0.4000000   0.6000000), wk =   0.0480000
        k(   12) = (   0.5000000  -0.3000000   0.5000000), wk =   0.0480000
        k(   13) = (   0.4000000  -0.2000000   0.4000000), wk =   0.0480000
        k(   14) = (   0.3000000  -0.1000000   0.3000000), wk =   0.0480000
        k(   15) = (   0.2000000   0.0000000   0.2000000), wk =   0.0240000
        k(   16) = (   0.0000000   0.4000000   0.0000000), wk =   0.0120000
        k(   17) = (  -0.1000000   0.5000000  -0.1000000), wk =   0.0480000
        k(   18) = (  -0.2000000   0.6000000  -0.2000000), wk =   0.0480000
        k(   19) = (   0.7000000  -0.3000000   0.7000000), wk =   0.0480000
        k(   20) = (   0.6000000  -0.2000000   0.6000000), wk =   0.0480000
        k(   21) = (   0.5000000  -0.1000000   0.5000000), wk =   0.0480000
        k(   22) = (   0.4000000   0.0000000   0.4000000), wk =   0.0240000
        k(   23) = (   0.0000000   0.6000000   0.0000000), wk =   0.0120000
        k(   24) = (  -0.1000000   0.7000000  -0.1000000), wk =   0.0480000
        k(   25) = (   0.8000000  -0.2000000   0.8000000), wk =   0.0480000
        k(   26) = (   0.7000000  -0.1000000   0.7000000), wk =   0.0480000
        k(   27) = (   0.6000000  -0.0000000   0.6000000), wk =   0.0240000
        k(   28) = (   0.0000000   0.8000000   0.0000000), wk =   0.0120000
        k(   29) = (   0.9000000  -0.1000000   0.9000000), wk =   0.0480000
        k(   30) = (   0.8000000   0.0000000   0.8000000), wk =   0.0240000
        k(   31) = (   0.0000000  -1.0000000   0.0000000), wk =   0.0060000
        k(   32) = (  -0.2000000   0.4000000   0.0000000), wk =   0.0480000
        k(   33) = (  -0.3000000   0.5000000  -0.1000000), wk =   0.0960000
        k(   34) = (   0.6000000  -0.4000000   0.8000000), wk =   0.0960000
        k(   35) = (   0.5000000  -0.3000000   0.7000000), wk =   0.0480000
        k(   36) = (  -0.2000000   0.6000000   0.0000000), wk =   0.0480000
        k(   37) = (   0.7000000  -0.3000000   0.9000000), wk =   0.0960000
        k(   38) = (   0.6000000  -0.2000000   0.8000000), wk =   0.0960000
        k(   39) = (   0.5000000  -0.1000000   0.7000000), wk =   0.0960000
        k(   40) = (   0.4000000   0.0000000   0.6000000), wk =   0.0480000
        k(   41) = (   0.8000000  -0.2000000   1.0000000), wk =   0.0480000
        k(   42) = (   0.7000000  -0.1000000   0.9000000), wk =   0.0960000
        k(   43) = (   0.6000000   0.0000000   0.8000000), wk =   0.0480000
        k(   44) = (  -0.2000000  -1.0000000   0.0000000), wk =   0.0240000
        k(   45) = (   0.6000000  -0.2000000   1.0000000), wk =   0.0480000
        k(   46) = (   0.5000000  -0.1000000   0.9000000), wk =   0.0480000
        k(   47) = (  -0.4000000  -1.0000000   0.0000000), wk =   0.0240000

     Dense  grid:     7727 G-vectors     FFT dimensions: (  27,  27,  27)

     Estimated max dynamical RAM per process >      14.31 MB

     WARNING: libxc functional with ID  263 depends
      on external parameters: check the user_guide of
      QE if you need to modify them or to check their
      default values.

     Initial potential from superposition of free atoms

     starting charge       7.9995, renormalised to       8.0000
     Starting wfcs are   13 randomized atomic wfcs

     total cpu time spent up to now is        2.8 secs

     Self-consistent Calculation

     iteration #  1     ecut=    50.00 Ry     beta= 0.20
     Davidson diagonalization with overlap
     ethr =  1.00E-02,  avg # of iterations =  2.0

     total cpu time spent up to now is        5.4 secs

     total energy              =     -19.28837356 Ry
     estimated scf accuracy    <       1.84771447 Ry

     iteration #  2     ecut=    50.00 Ry     beta= 0.20
     Davidson diagonalization with overlap
     ethr =  1.00E-02,  avg # of iterations =  1.0

     total cpu time spent up to now is        7.3 secs

     total energy              =     -19.21542884 Ry
     estimated scf accuracy    <       1.16078834 Ry

     iteration #  3     ecut=    50.00 Ry     beta= 0.20
     Davidson diagonalization with overlap
     ethr =  1.00E-02,  avg # of iterations =  1.0

     total cpu time spent up to now is        9.4 secs

     total energy              =     -19.26867178 Ry
     estimated scf accuracy    <       0.04439118 Ry

     iteration #  4     ecut=    50.00 Ry     beta= 0.20
     Davidson diagonalization with overlap
     ethr =  5.55E-04,  avg # of iterations =  2.0

     total cpu time spent up to now is       11.9 secs

     total energy              =     -19.27754642 Ry
     estimated scf accuracy    <       0.01426854 Ry

     iteration #  5     ecut=    50.00 Ry     beta= 0.20
     Davidson diagonalization with overlap
     ethr =  1.78E-04,  avg # of iterations =  1.0

     total cpu time spent up to now is       13.5 secs

     total energy              =     -19.27682139 Ry
     estimated scf accuracy    <       0.03181366 Ry

     iteration #  6     ecut=    50.00 Ry     beta= 0.20
     Davidson diagonalization with overlap
     ethr =  1.78E-04,  avg # of iterations =  2.0

     total cpu time spent up to now is       15.7 secs

     total energy              =     -19.27831195 Ry
     estimated scf accuracy    <       0.00451558 Ry

     iteration #  7     ecut=    50.00 Ry     beta= 0.20
     Davidson diagonalization with overlap
     ethr =  5.64E-05,  avg # of iterations =  1.0

     total cpu time spent up to now is       17.4 secs

     total energy              =     -19.27807182 Ry
     estimated scf accuracy    <       0.00264326 Ry

     iteration #  8     ecut=    50.00 Ry     beta= 0.20
     Davidson diagonalization with overlap
     ethr =  3.30E-05,  avg # of iterations =  1.0

     total cpu time spent up to now is       19.0 secs

     total energy              =     -19.27822291 Ry
     estimated scf accuracy    <       0.00005937 Ry

     iteration #  9     ecut=    50.00 Ry     beta= 0.20
     Davidson diagonalization with overlap
     ethr =  7.42E-07,  avg # of iterations =  3.0

     total cpu time spent up to now is       21.0 secs

     total energy              =     -19.27821568 Ry
     estimated scf accuracy    <       0.00013201 Ry

     iteration # 10     ecut=    50.00 Ry     beta= 0.20
     Davidson diagonalization with overlap
     ethr =  7.42E-07,  avg # of iterations =  1.1

     total cpu time spent up to now is       22.2 secs

     total energy              =     -19.27819687 Ry
     estimated scf accuracy    <       0.00004335 Ry

     iteration # 11     ecut=    50.00 Ry     beta= 0.20
     Davidson diagonalization with overlap
     ethr =  5.42E-07,  avg # of iterations =  2.0

     total cpu time spent up to now is       23.1 secs

     End of self-consistent calculation

          k = 0.0000 0.0000 0.0000 (   941 PWs)   bands (ev):

    -7.4089   7.7090   7.7090   7.7090

          k =-0.1000 0.1000-0.1000 (   944 PWs)   bands (ev):

    -7.2277   6.6731   7.5735   7.5735

          k =-0.2000 0.2000-0.2000 (   947 PWs)   bands (ev):

    -6.6946   4.5948   7.2620   7.2620

          k =-0.3000 0.3000-0.3000 (   947 PWs)   bands (ev):

    -5.8532   2.3966   6.9417   6.9417

          k =-0.4000 0.4000-0.4000 (   950 PWs)   bands (ev):

    -4.8521   0.5138   6.7173   6.7173

          k = 0.5000-0.5000 0.5000 (   960 PWs)   bands (ev):

    -4.2691  -0.3733   6.6381   6.6381

          k = 0.0000 0.2000 0.0000 (   937 PWs)   bands (ev):

    -7.1671   6.8706   7.2537   7.2537

          k =-0.1000 0.3000-0.1000 (   945 PWs)   bands (ev):

    -6.7507   5.2572   6.8350   7.0646

          k =-0.2000 0.4000-0.2000 (   948 PWs)   bands (ev):

    -6.0082   3.1563   6.4974   6.6859

          k =-0.3000 0.5000-0.3000 (   956 PWs)   bands (ev):

    -5.0373   1.1796   6.2475   6.3336

          k = 0.6000-0.4000 0.6000 (   956 PWs)   bands (ev):

    -4.2132  -0.1270   5.9062   6.3734

          k = 0.5000-0.3000 0.5000 (   950 PWs)   bands (ev):

    -4.4224   0.1822   5.7422   6.5993

          k = 0.4000-0.2000 0.4000 (   955 PWs)   bands (ev):

    -5.3759   1.8028   5.8006   6.9565

          k = 0.3000-0.1000 0.3000 (   941 PWs)   bands (ev):

    -6.2897   3.8451   6.1125   7.3482

          k = 0.2000 0.0000 0.2000 (   937 PWs)   bands (ev):

    -6.9288   5.7074   6.7546   7.6085

          k = 0.0000 0.4000 0.0000 (   966 PWs)   bands (ev):

    -6.4542   5.1525   6.3159   6.3159

          k =-0.1000 0.5000-0.1000 (   962 PWs)   bands (ev):

    -5.8253   3.7021   5.8430   5.9136

          k =-0.2000 0.6000-0.2000 (   956 PWs)   bands (ev):

    -4.9333   1.9440   5.1609   5.7255

          k = 0.7000-0.3000 0.7000 (   956 PWs)   bands (ev):

    -4.0213   0.4993   4.5205   5.7836

          k = 0.6000-0.2000 0.6000 (   963 PWs)   bands (ev):

    -3.8404   0.2538   4.1150   6.0736

          k = 0.5000-0.1000 0.5000 (   957 PWs)   bands (ev):

    -4.6306   1.4345   4.0702   6.5355

          k = 0.4000 0.0000 0.4000 (   953 PWs)   bands (ev):

    -5.5683   2.9039   4.6642   7.0343

          k = 0.0000 0.6000 0.0000 (   962 PWs)   bands (ev):

    -5.3167   3.1982   5.4357   5.4357

          k =-0.1000 0.7000-0.1000 (   954 PWs)   bands (ev):

    -4.5374   2.0506   4.7172   5.1818

          k = 0.8000-0.2000 0.8000 (   955 PWs)   bands (ev):

    -3.6668   0.9670   3.6364   5.1935

          k = 0.7000-0.1000 0.7000 (   960 PWs)   bands (ev):

    -3.2549   0.5562   2.8359   5.4695

          k = 0.6000-0.0000 0.6000 (   957 PWs)   bands (ev):

    -3.7713   1.0581   2.8227   5.9583

          k = 0.0000 0.8000 0.0000 (   962 PWs)   bands (ev):

    -3.9022   1.2476   4.8488   4.8488

          k = 0.9000-0.1000 0.9000 (   963 PWs)   bands (ev):

    -3.2143   0.5094   4.1078   4.7875

          k = 0.8000 0.0000 0.8000 (   955 PWs)   bands (ev):

    -2.9273   0.4179   2.9950   5.0068

          k = 0.0000-1.0000 0.0000 (   982 PWs)   bands (ev):

    -2.9611   0.1143   4.6429   4.6429

          k =-0.2000 0.4000 0.0000 (   956 PWs)   bands (ev):

    -6.2277   4.2075   5.7514   6.9136

          k =-0.3000 0.5000-0.1000 (   956 PWs)   bands (ev):

    -5.4056   2.5268   5.0695   6.5306

          k = 0.6000-0.4000 0.8000 (   953 PWs)   bands (ev):

    -4.4370   0.8412   4.8111   6.1188

          k = 0.5000-0.3000 0.7000 (   960 PWs)   bands (ev):

    -3.8827   0.0243   4.7528   5.9418

          k =-0.2000 0.6000 0.0000 (   963 PWs)   bands (ev):

    -5.1172   2.7141   4.8302   5.6583

          k = 0.7000-0.3000 0.9000 (   955 PWs)   bands (ev):

    -4.2128   1.4554   4.0651   5.2401

          k = 0.6000-0.2000 0.8000 (   958 PWs)   bands (ev):

    -3.4893   0.5139   3.5218   5.1667

          k = 0.5000-0.1000 0.7000 (   955 PWs)   bands (ev):

    -3.6917   0.7879   3.2916   5.4836

          k = 0.4000 0.0000 0.6000 (   950 PWs)   bands (ev):

    -4.5550   1.8026   3.7130   6.0295

          k = 0.8000-0.2000 1.0000 (   962 PWs)   bands (ev):

    -3.7638   1.2001   4.2453   4.5984

          k = 0.7000-0.1000 0.9000 (   958 PWs)   bands (ev):

    -3.0924   0.6389   3.2303   4.5002

          k = 0.6000 0.0000 0.8000 (   964 PWs)   bands (ev):

    -3.0771   0.7064   2.5993   4.8636

          k =-0.2000-1.0000 0.0000 (   962 PWs)   bands (ev):

    -2.9073   0.2809   4.1230   4.1354

          k = 0.6000-0.2000 1.0000 (   952 PWs)   bands (ev):

    -3.4188   0.9955   3.2009   4.4922

          k = 0.5000-0.1000 0.9000 (   952 PWs)   bands (ev):

    -3.0102   0.7079   2.9256   4.1494

          k =-0.4000-1.0000 0.0000 (   952 PWs)   bands (ev):

    -2.8150   0.6316   3.3020   3.4963

     highest occupied level (ev):     7.7090

!    total energy              =     -19.27820729 Ry
     estimated scf accuracy    <       0.00000949 Ry

     The total energy is the sum of the following terms:
     one-electron contribution =       4.17311514 Ry
     hartree contribution      =       2.46268161 Ry
     xc contribution           =      -5.90999865 Ry
     ewald contribution        =     -20.00400539 Ry

     convergence has been achieved in  11 iterations
     Writing meta-gga kinetic term

     Writing all to output data dir ./input_pw/SiC/8/pwscf.save/
     Writing meta-gga kinetic term
 
     init_run     :      1.31s CPU      2.77s WALL (       1 calls)
     electrons    :     12.17s CPU     20.28s WALL (       1 calls)

     Called by init_run:
     wfcinit      :      1.20s CPU      2.57s WALL (       1 calls)
     potinit      :      0.01s CPU      0.08s WALL (       1 calls)
     hinit0       :      0.09s CPU      0.10s WALL (       1 calls)

     Called by electrons:
     c_bands      :      9.79s CPU     16.33s WALL (      11 calls)
     sum_band     :      2.16s CPU      3.59s WALL (      11 calls)
     v_of_rho     :      0.14s CPU      0.27s WALL (      12 calls)
     mix_rho      :      0.09s CPU      0.16s WALL (      11 calls)

     Called by c_bands:
     init_us_2    :      0.13s CPU      0.18s WALL (    1081 calls)
     init_us_2:cp :      0.12s CPU      0.17s WALL (    1081 calls)
     cegterg      :      9.68s CPU     16.16s WALL (     517 calls)

     Called by *egterg:
     cdiaghg      :      0.06s CPU      0.09s WALL (    1317 calls)
     h_psi        :     10.61s CPU     18.34s WALL (    1364 calls)
     g_psi        :      0.01s CPU      0.01s WALL (     800 calls)

     Called by h_psi:
     h_psi:calbec :      0.03s CPU      0.03s WALL (    1364 calls)
     vloc_psi     :      2.61s CPU      4.33s WALL (    1364 calls)
     add_vuspsi   :      0.04s CPU      0.05s WALL (    1364 calls)
     h_psi_meta   :      7.91s CPU     13.90s WALL (    1364 calls)

     General routines
     calbec       :      0.03s CPU      0.03s WALL (    1364 calls)
     fft          :      0.03s CPU      0.04s WALL (     141 calls)
     ffts         :      0.04s CPU      0.08s WALL (     204 calls)
     fftw         :     11.36s CPU     19.77s WALL (   53328 calls)
     interpolate  :      0.00s CPU      0.00s WALL (      12 calls)
 
     Parallel routines
 
     PWSCF        :     13.52s CPU     23.10s WALL

 
   This run was terminated on:  14:31:20   7Jul2023            

=------------------------------------------------------------------------------=
   JOB DONE.
=------------------------------------------------------------------------------=
