
     Program PWSCF v.7.0 starts on 29Mar2023 at 11:45:50 

     This program is part of the open-source Quantum ESPRESSO suite
     for quantum simulation of materials; please cite
         "P. Giannozzi et al., J. Phys.:Condens. Matter 21 395502 (2009);
         "P. Giannozzi et al., J. Phys.:Condens. Matter 29 465901 (2017);
         "P. Giannozzi et al., J. Chem. Phys. 152 154105 (2020);
          URL http://www.quantum-espresso.org", 
     in publications or presentations arising from this work. More details at
     http://www.quantum-espresso.org/quote

     Parallel version (MPI), running on     1 processors

     MPI processes distributed on     1 nodes
     23563 MiB available memory on the printing compute node when the environment starts
 
     Waiting for input...
     Reading input from standard input
Warning: card &CELL ignored
Warning: card / ignored

     Current dimensions of program PWSCF are:
     Max number of different atomic species (ntypx) = 10
     Max number of k-points (npk) =  40000
     Max angular momentum in pseudopotentials (lmaxx) =  4
     file Ge.SCAN.UPF2: wavefunction(s)  0D renormalized

     WARNING: the MGGA functional with ID    5 has been 
     read together with other dft terms, but it should 
     stand alone in order to work properly. The other 
     terms will be ignored.

     Subspace diagonalization in iterative solution of the eigenvalue problem:
     a serial algorithm will be used

 
     G-vector sticks info
     --------------------
     sticks:   dense  smooth     PW     G-vecs:    dense   smooth      PW
     Sum        1099    1099    313                23829    23829    3839
 
     Using Slab Decomposition
 


     bravais-lattice index     =            2
     lattice parameter (alat)  =      12.5956  a.u.
     unit-cell volume          =     499.5666 (a.u.)^3
     number of atoms/cell      =            2
     number of atomic types    =            1
     number of electrons       =         8.00
     number of Kohn-Sham states=            4
     kinetic-energy cutoff     =      50.0000  Ry
     charge density cutoff     =     200.0000  Ry
     scf convergence threshold =      1.0E-06
     mixing beta               =       0.0100
     number of iterations used =            8  local-TF  mixing
     Exchange-correlation= SLA  PW  SCAN SCAN
                           (   0   0   0   0   0 263 267)

     celldm(1)=  12.595569  celldm(2)=   0.000000  celldm(3)=   0.000000
     celldm(4)=   0.000000  celldm(5)=   0.000000  celldm(6)=   0.000000

     crystal axes: (cart. coord. in units of alat)
               a(1) = (  -0.500000   0.000000   0.500000 )  
               a(2) = (   0.000000   0.500000   0.500000 )  
               a(3) = (  -0.500000   0.500000   0.000000 )  

     reciprocal axes: (cart. coord. in units 2 pi/alat)
               b(1) = ( -1.000000 -1.000000  1.000000 )  
               b(2) = (  1.000000  1.000000  1.000000 )  
               b(3) = ( -1.000000  1.000000 -1.000000 )  


     PseudoPot. # 1 for Ge read from file:
     ~/Documents/TA/PWDFT.jl/pseudopotentials/scan_upf/Ge.SCAN.UPF2
     MD5 check sum: Not computed, couldn't open file
     Pseudo is Norm-conserving, Zval =  4.0
     Generated by new atomic code, or converted to UPF format
     Using radial grid of 1557 points,  2 beta functions with: 
                l(1) =   0
                l(2) =   1

     atomic species   valence    mass     pseudopotential
        Ge             4.00    72.64000     Ge( 1.00)

     48 Sym. Ops., with inversion, found (24 have fractional translation)



   Cartesian axes

     site n.     atom                  positions (alat units)
         1           Ge  tau(   1) = (   0.0000000   0.0000000   0.0000000  )
         2           Ge  tau(   2) = (   0.2500000   0.2500000   0.2500000  )

     number of k points=    47
                       cart. coord. in units 2pi/alat
        k(    1) = (   0.0000000   0.0000000   0.0000000), wk =   0.0020000
        k(    2) = (  -0.1000000   0.1000000  -0.1000000), wk =   0.0160000
        k(    3) = (  -0.2000000   0.2000000  -0.2000000), wk =   0.0160000
        k(    4) = (  -0.3000000   0.3000000  -0.3000000), wk =   0.0160000
        k(    5) = (  -0.4000000   0.4000000  -0.4000000), wk =   0.0160000
        k(    6) = (   0.5000000  -0.5000000   0.5000000), wk =   0.0080000
        k(    7) = (   0.0000000   0.2000000   0.0000000), wk =   0.0120000
        k(    8) = (  -0.1000000   0.3000000  -0.1000000), wk =   0.0480000
        k(    9) = (  -0.2000000   0.4000000  -0.2000000), wk =   0.0480000
        k(   10) = (  -0.3000000   0.5000000  -0.3000000), wk =   0.0480000
        k(   11) = (   0.6000000  -0.4000000   0.6000000), wk =   0.0480000
        k(   12) = (   0.5000000  -0.3000000   0.5000000), wk =   0.0480000
        k(   13) = (   0.4000000  -0.2000000   0.4000000), wk =   0.0480000
        k(   14) = (   0.3000000  -0.1000000   0.3000000), wk =   0.0480000
        k(   15) = (   0.2000000   0.0000000   0.2000000), wk =   0.0240000
        k(   16) = (   0.0000000   0.4000000   0.0000000), wk =   0.0120000
        k(   17) = (  -0.1000000   0.5000000  -0.1000000), wk =   0.0480000
        k(   18) = (  -0.2000000   0.6000000  -0.2000000), wk =   0.0480000
        k(   19) = (   0.7000000  -0.3000000   0.7000000), wk =   0.0480000
        k(   20) = (   0.6000000  -0.2000000   0.6000000), wk =   0.0480000
        k(   21) = (   0.5000000  -0.1000000   0.5000000), wk =   0.0480000
        k(   22) = (   0.4000000   0.0000000   0.4000000), wk =   0.0240000
        k(   23) = (   0.0000000   0.6000000   0.0000000), wk =   0.0120000
        k(   24) = (  -0.1000000   0.7000000  -0.1000000), wk =   0.0480000
        k(   25) = (   0.8000000  -0.2000000   0.8000000), wk =   0.0480000
        k(   26) = (   0.7000000  -0.1000000   0.7000000), wk =   0.0480000
        k(   27) = (   0.6000000  -0.0000000   0.6000000), wk =   0.0240000
        k(   28) = (   0.0000000   0.8000000   0.0000000), wk =   0.0120000
        k(   29) = (   0.9000000  -0.1000000   0.9000000), wk =   0.0480000
        k(   30) = (   0.8000000   0.0000000   0.8000000), wk =   0.0240000
        k(   31) = (   0.0000000  -1.0000000   0.0000000), wk =   0.0060000
        k(   32) = (  -0.2000000   0.4000000   0.0000000), wk =   0.0480000
        k(   33) = (  -0.3000000   0.5000000  -0.1000000), wk =   0.0960000
        k(   34) = (   0.6000000  -0.4000000   0.8000000), wk =   0.0960000
        k(   35) = (   0.5000000  -0.3000000   0.7000000), wk =   0.0480000
        k(   36) = (  -0.2000000   0.6000000   0.0000000), wk =   0.0480000
        k(   37) = (   0.7000000  -0.3000000   0.9000000), wk =   0.0960000
        k(   38) = (   0.6000000  -0.2000000   0.8000000), wk =   0.0960000
        k(   39) = (   0.5000000  -0.1000000   0.7000000), wk =   0.0960000
        k(   40) = (   0.4000000   0.0000000   0.6000000), wk =   0.0480000
        k(   41) = (   0.8000000  -0.2000000   1.0000000), wk =   0.0480000
        k(   42) = (   0.7000000  -0.1000000   0.9000000), wk =   0.0960000
        k(   43) = (   0.6000000   0.0000000   0.8000000), wk =   0.0480000
        k(   44) = (  -0.2000000  -1.0000000   0.0000000), wk =   0.0240000
        k(   45) = (   0.6000000  -0.2000000   1.0000000), wk =   0.0480000
        k(   46) = (   0.5000000  -0.1000000   0.9000000), wk =   0.0480000
        k(   47) = (  -0.4000000  -1.0000000   0.0000000), wk =   0.0240000

     Dense  grid:    23829 G-vectors     FFT dimensions: (  48,  48,  48)

     Estimated max dynamical RAM per process >      48.85 MB

     WARNING: libxc functional with ID  263 depends
      on external parameters: check the user_guide of
      QE if you need to modify them or to check their
      default values.

     Initial potential from superposition of free atoms

     starting charge       7.9987, renormalised to       8.0000
     Starting wfcs are   18 randomized atomic wfcs

     total cpu time spent up to now is       23.1 secs

     Self-consistent Calculation

     iteration #  1     ecut=    50.00 Ry     beta= 0.01
     Davidson diagonalization with overlap
     ethr =  1.00E-02,  avg # of iterations =  1.3

     Threshold (ethr) on eigenvalues was too large:
     Diagonalizing with lowered threshold

     Davidson diagonalization with overlap
     ethr =  2.08E-04,  avg # of iterations =  6.2

     total cpu time spent up to now is       70.9 secs

     total energy              =     -15.67942552 Ry
     estimated scf accuracy    <       0.02125683 Ry

     iteration #  2     ecut=    50.00 Ry     beta= 0.01
     Davidson diagonalization with overlap
     ethr =  2.66E-04,  avg # of iterations =  1.0

     total cpu time spent up to now is       83.3 secs

     total energy              =     -15.67956769 Ry
     estimated scf accuracy    <       0.02126621 Ry

     iteration #  3     ecut=    50.00 Ry     beta= 0.01
     Davidson diagonalization with overlap
     ethr =  2.66E-04,  avg # of iterations =  1.0

     total cpu time spent up to now is       97.8 secs

     total energy              =     -15.71427501 Ry
     estimated scf accuracy    <       0.02172019 Ry

     iteration #  4     ecut=    50.00 Ry     beta= 0.01
     Davidson diagonalization with overlap
     ethr =  2.66E-04,  avg # of iterations =  1.9

     total cpu time spent up to now is      111.9 secs

     total energy              =     -15.71582561 Ry
     estimated scf accuracy    <       0.00128766 Ry

     iteration #  5     ecut=    50.00 Ry     beta= 0.01
     Davidson diagonalization with overlap
     ethr =  1.61E-05,  avg # of iterations =  6.4

     total cpu time spent up to now is      140.2 secs

     total energy              =     -15.71719032 Ry
     estimated scf accuracy    <       0.00220116 Ry

     iteration #  6     ecut=    50.00 Ry     beta= 0.01
     Davidson diagonalization with overlap
     ethr =  1.61E-05,  avg # of iterations =  1.1

     total cpu time spent up to now is      150.4 secs

     total energy              =     -15.71720630 Ry
     estimated scf accuracy    <       0.00221711 Ry

     iteration #  7     ecut=    50.00 Ry     beta= 0.01
     Davidson diagonalization with overlap
     ethr =  1.61E-05,  avg # of iterations =  1.0

     total cpu time spent up to now is      161.4 secs

     total energy              =     -15.71727110 Ry
     estimated scf accuracy    <       0.00256621 Ry

     iteration #  8     ecut=    50.00 Ry     beta= 0.01
     Davidson diagonalization with overlap
     ethr =  1.61E-05,  avg # of iterations =  1.2

     total cpu time spent up to now is      171.1 secs

     total energy              =     -15.71735161 Ry
     estimated scf accuracy    <       0.00040740 Ry

     iteration #  9     ecut=    50.00 Ry     beta= 0.01
     Davidson diagonalization with overlap
     ethr =  5.09E-06,  avg # of iterations =  4.0

     total cpu time spent up to now is      184.1 secs

     total energy              =     -15.71747057 Ry
     estimated scf accuracy    <       0.00042398 Ry

     iteration # 10     ecut=    50.00 Ry     beta= 0.01
     Davidson diagonalization with overlap
     ethr =  5.09E-06,  avg # of iterations =  1.1

     total cpu time spent up to now is      192.5 secs

     total energy              =     -15.71743520 Ry
     estimated scf accuracy    <       0.00040350 Ry

     iteration # 11     ecut=    50.00 Ry     beta= 0.01
     Davidson diagonalization with overlap
     ethr =  5.04E-06,  avg # of iterations =  1.6

     total cpu time spent up to now is      201.0 secs

     total energy              =     -15.71747730 Ry
     estimated scf accuracy    <       0.00006123 Ry

     iteration # 12     ecut=    50.00 Ry     beta= 0.01
     Davidson diagonalization with overlap
     ethr =  7.65E-07,  avg # of iterations =  7.7

     total cpu time spent up to now is      215.7 secs

     total energy              =     -15.71754667 Ry
     estimated scf accuracy    <       0.00005311 Ry

     iteration # 13     ecut=    50.00 Ry     beta= 0.01
     Davidson diagonalization with overlap
     ethr =  6.64E-07,  avg # of iterations =  1.6

     total cpu time spent up to now is      219.8 secs

     total energy              =     -15.71754142 Ry
     estimated scf accuracy    <       0.00004462 Ry

     iteration # 14     ecut=    50.00 Ry     beta= 0.01
     Davidson diagonalization with overlap
     ethr =  5.58E-07,  avg # of iterations =  1.0

     total cpu time spent up to now is      223.6 secs

     total energy              =     -15.71753261 Ry
     estimated scf accuracy    <       0.00005600 Ry

     iteration # 15     ecut=    50.00 Ry     beta= 0.01
     Davidson diagonalization with overlap
     ethr =  5.58E-07,  avg # of iterations =  5.1

     total cpu time spent up to now is      231.0 secs

     total energy              =     -15.71756547 Ry
     estimated scf accuracy    <       0.00002659 Ry

     iteration # 16     ecut=    50.00 Ry     beta= 0.01
     Davidson diagonalization with overlap
     ethr =  3.32E-07,  avg # of iterations =  1.6

     total cpu time spent up to now is      235.2 secs

     total energy              =     -15.71756144 Ry
     estimated scf accuracy    <       0.00002671 Ry

     iteration # 17     ecut=    50.00 Ry     beta= 0.01
     Davidson diagonalization with overlap
     ethr =  3.32E-07,  avg # of iterations =  1.5

     total cpu time spent up to now is      239.2 secs

     total energy              =     -15.71756039 Ry
     estimated scf accuracy    <       0.00002706 Ry

     iteration # 18     ecut=    50.00 Ry     beta= 0.01
     Davidson diagonalization with overlap
     ethr =  3.32E-07,  avg # of iterations =  1.4

     total cpu time spent up to now is      243.0 secs

     total energy              =     -15.71754150 Ry
     estimated scf accuracy    <       0.00005940 Ry

     iteration # 19     ecut=    50.00 Ry     beta= 0.01
     Davidson diagonalization with overlap
     ethr =  3.32E-07,  avg # of iterations =  1.5

     total cpu time spent up to now is      246.9 secs

     total energy              =     -15.71754216 Ry
     estimated scf accuracy    <       0.00006327 Ry

     iteration # 20     ecut=    50.00 Ry     beta= 0.01
     Davidson diagonalization with overlap
     ethr =  3.32E-07,  avg # of iterations =  1.0

     total cpu time spent up to now is      250.4 secs

     total energy              =     -15.71756210 Ry
     estimated scf accuracy    <       0.00004916 Ry

     iteration # 21     ecut=    50.00 Ry     beta= 0.01
     Davidson diagonalization with overlap
     ethr =  3.32E-07,  avg # of iterations =  1.7

     total cpu time spent up to now is      254.1 secs

     End of self-consistent calculation

          k = 0.0000 0.0000 0.0000 (  2975 PWs)   bands (ev):

    -8.6820  -1.9080   1.5920   1.5920

          k =-0.1000 0.1000-0.1000 (  2981 PWs)   bands (ev):

    -8.6058  -2.2516   1.4722   1.4723

          k =-0.2000 0.2000-0.2000 (  2956 PWs)   bands (ev):

    -8.3846  -3.0370   1.2185   1.2186

          k =-0.3000 0.3000-0.3000 (  2962 PWs)   bands (ev):

    -8.0475  -3.9208   0.9747   0.9747

          k =-0.4000 0.4000-0.4000 (  2974 PWs)   bands (ev):

    -7.6787  -4.6607   0.8112   0.8112

          k = 0.5000-0.5000 0.5000 (  2998 PWs)   bands (ev):

    -7.4924  -4.9768   0.7544   0.7545

          k = 0.0000 0.2000 0.0000 (  2978 PWs)   bands (ev):

    -8.5800  -2.3469   1.2755   1.2755

          k =-0.1000 0.3000-0.1000 (  2960 PWs)   bands (ev):

    -8.4053  -2.9459   0.9477   0.9981

          k =-0.2000 0.4000-0.2000 (  2973 PWs)   bands (ev):

    -8.1014  -3.7577   0.5472   0.7665

          k =-0.3000 0.5000-0.3000 (  2975 PWs)   bands (ev):

    -7.7260  -4.5314   0.2156   0.6373

          k = 0.6000-0.4000 0.6000 (  2988 PWs)   bands (ev):

    -7.4436  -5.0097   0.0232   0.6291

          k = 0.5000-0.3000 0.5000 (  2976 PWs)   bands (ev):

    -7.5118  -4.9006  -0.0057   0.7399

          k = 0.4000-0.2000 0.4000 (  2968 PWs)   bands (ev):

    -7.8549  -4.2876   0.1392   0.9511

          k = 0.3000-0.1000 0.3000 (  2969 PWs)   bands (ev):

    -8.2169  -3.4795   0.4612   1.2177

          k = 0.2000 0.0000 0.2000 (  2984 PWs)   bands (ev):

    -8.4806  -2.7137   0.9445   1.4417

          k = 0.0000 0.4000 0.0000 (  2962 PWs)   bands (ev):

    -8.2770  -3.2799   0.7074   0.7074

          k =-0.1000 0.5000-0.1000 (  2965 PWs)   bands (ev):

    -8.0113  -3.8996   0.3253   0.4697

          k =-0.2000 0.6000-0.2000 (  2983 PWs)   bands (ev):

    -7.6459  -4.5945  -0.1342   0.3432

          k = 0.7000-0.3000 0.7000 (  2984 PWs)   bands (ev):

    -7.2963  -5.1437  -0.4789   0.3475

          k = 0.6000-0.2000 0.6000 (  2992 PWs)   bands (ev):

    -7.2393  -5.2249  -0.6253   0.4800

          k = 0.5000-0.1000 0.5000 (  2991 PWs)   bands (ev):

    -7.5421  -4.7712  -0.5336   0.7170

          k = 0.4000 0.0000 0.4000 (  2966 PWs)   bands (ev):

    -7.9191  -4.1114  -0.1735   1.0013

          k = 0.0000 0.6000 0.0000 (  2970 PWs)   bands (ev):

    -7.7827  -4.3266   0.2159   0.2159

          k =-0.1000 0.7000-0.1000 (  2990 PWs)   bands (ev):

    -7.4380  -4.8933  -0.1346   0.0713

          k = 0.8000-0.2000 0.8000 (  2985 PWs)   bands (ev):

    -7.0499  -5.4297  -0.5784   0.0610

          k = 0.7000-0.1000 0.7000 (  2976 PWs)   bands (ev):

    -6.8824  -5.6344  -0.8632   0.1857

          k = 0.6000-0.0000 0.6000 (  2992 PWs)   bands (ev):

    -7.1586  -5.2914  -0.8678   0.4233

          k = 0.0000 0.8000 0.0000 (  2990 PWs)   bands (ev):

    -7.1134  -5.3506  -0.0999  -0.0999

          k = 0.9000-0.1000 0.9000 (  2977 PWs)   bands (ev):

    -6.7093  -5.8413  -0.3739  -0.1378

          k = 0.8000 0.0000 0.8000 (  2978 PWs)   bands (ev):

    -6.5214  -6.0387  -0.7318  -0.0369

          k = 0.0000-1.0000 0.0000 (  2954 PWs)   bands (ev):

    -6.2925  -6.2925  -0.2079  -0.2079

          k =-0.2000 0.4000 0.0000 (  2960 PWs)   bands (ev):

    -8.1862  -3.5261   0.3741   0.9003

          k =-0.3000 0.5000-0.1000 (  2979 PWs)   bands (ev):

    -7.8496  -4.2453  -0.0867   0.6910

          k = 0.6000-0.4000 0.8000 (  2987 PWs)   bands (ev):

    -7.4741  -4.8970  -0.3654   0.5085

          k = 0.5000-0.3000 0.7000 (  2984 PWs)   bands (ev):

    -7.2780  -5.1925  -0.4575   0.4402

          k =-0.2000 0.6000 0.0000 (  2970 PWs)   bands (ev):

    -7.7080  -4.4660  -0.0878   0.2975

          k = 0.7000-0.3000 0.9000 (  2990 PWs)   bands (ev):

    -7.3248  -5.0646  -0.4782   0.1336

          k = 0.6000-0.2000 0.8000 (  2995 PWs)   bands (ev):

    -7.0237  -5.4697  -0.7344   0.1044

          k = 0.5000-0.1000 0.7000 (  2996 PWs)   bands (ev):

    -7.1231  -5.3411  -0.7814   0.2308

          k = 0.4000 0.0000 0.6000 (  2997 PWs)   bands (ev):

    -7.4922  -4.8247  -0.5704   0.4662

          k = 0.8000-0.2000 1.0000 (  2993 PWs)   bands (ev):

    -7.0655  -5.4058  -0.3427  -0.1414

          k = 0.7000-0.1000 0.9000 (  2991 PWs)   bands (ev):

    -6.6891  -5.8500  -0.6672  -0.1929

          k = 0.6000 0.0000 0.8000 (  2985 PWs)   bands (ev):

    -6.7417  -5.7871  -0.8712  -0.0413

          k =-0.2000-1.0000 0.0000 (  2982 PWs)   bands (ev):

    -6.2864  -6.2864  -0.3614  -0.3614

          k = 0.6000-0.2000 1.0000 (  2992 PWs)   bands (ev):

    -6.9326  -5.5618  -0.7121  -0.1477

          k = 0.5000-0.1000 0.9000 (  2998 PWs)   bands (ev):

    -6.6762  -5.8559  -0.7818  -0.2776

          k =-0.4000-1.0000 0.0000 (  3000 PWs)   bands (ev):

    -6.2764  -6.2764  -0.5671  -0.5671

     highest occupied level (ev):     1.5920

!    total energy              =     -15.71755455 Ry
     estimated scf accuracy    <       0.00000077 Ry

     The total energy is the sum of the following terms:
     one-electron contribution =       0.50808763 Ry
     hartree contribution      =       1.72244590 Ry
     xc contribution           =      -4.26251821 Ry
     ewald contribution        =     -13.68556988 Ry

     convergence has been achieved in  21 iterations
     Writing meta-gga kinetic term

     Writing all to output data dir ./input_pw/Ge/11/pwscf.save/
     Writing meta-gga kinetic term
 
     init_run     :     11.27s CPU     23.06s WALL (       1 calls)
     electrons    :    165.93s CPU    231.04s WALL (       1 calls)

     Called by init_run:
     wfcinit      :     11.07s CPU     22.47s WALL (       1 calls)
     potinit      :      0.09s CPU      0.30s WALL (       1 calls)
     hinit0       :      0.08s CPU      0.24s WALL (       1 calls)

     Called by electrons:
     c_bands      :    135.15s CPU    189.48s WALL (      22 calls)
     sum_band     :     27.98s CPU     37.83s WALL (      22 calls)
     v_of_rho     :      1.50s CPU      2.31s WALL (      22 calls)
     mix_rho      :      1.31s CPU      1.61s WALL (      22 calls)

     Called by c_bands:
     init_us_2    :      0.71s CPU      0.91s WALL (    2115 calls)
     init_us_2:cp :      0.70s CPU      0.91s WALL (    2115 calls)
     cegterg      :    134.27s CPU    188.22s WALL (    1034 calls)

     Called by *egterg:
     cdiaghg      :      0.28s CPU      0.33s WALL (    3426 calls)
     h_psi        :    143.44s CPU    208.02s WALL (    3520 calls)
     g_psi        :      0.07s CPU      0.08s WALL (    2439 calls)

     Called by h_psi:
     h_psi:calbec :      0.47s CPU      0.69s WALL (    3520 calls)
     vloc_psi     :     35.69s CPU     52.14s WALL (    3520 calls)
     add_vuspsi   :      0.33s CPU      0.47s WALL (    3520 calls)
     h_psi_meta   :    106.81s CPU    154.51s WALL (    3520 calls)

     General routines
     calbec       :      0.45s CPU      0.68s WALL (    3520 calls)
     fft          :      0.30s CPU      0.44s WALL (     263 calls)
     ffts         :      0.50s CPU      0.66s WALL (     418 calls)
     fftw         :    134.60s CPU    193.69s WALL (  114616 calls)
     interpolate  :      0.01s CPU      0.01s WALL (      22 calls)
 
     Parallel routines
 
     PWSCF        :   2m57.23s CPU   4m14.17s WALL

 
   This run was terminated on:  11:50: 5  29Mar2023            

=------------------------------------------------------------------------------=
   JOB DONE.
=------------------------------------------------------------------------------=
