
     Program PWSCF v.7.0 starts on  7Jul2023 at 14:25:49 

     This program is part of the open-source Quantum ESPRESSO suite
     for quantum simulation of materials; please cite
         "P. Giannozzi et al., J. Phys.:Condens. Matter 21 395502 (2009);
         "P. Giannozzi et al., J. Phys.:Condens. Matter 29 465901 (2017);
         "P. Giannozzi et al., J. Chem. Phys. 152 154105 (2020);
          URL http://www.quantum-espresso.org", 
     in publications or presentations arising from this work. More details at
     http://www.quantum-espresso.org/quote

     Parallel version (MPI), running on     1 processors

     MPI processes distributed on     1 nodes
     27248 MiB available memory on the printing compute node when the environment starts
 
     Waiting for input...
     Reading input from standard input
Warning: card &CELL ignored
Warning: card / ignored

     Current dimensions of program PWSCF are:
     Max number of different atomic species (ntypx) = 10
     Max number of k-points (npk) =  40000
     Max angular momentum in pseudopotentials (lmaxx) =  4
     file Ge.SCAN.UPF2: wavefunction(s)  0D renormalized

     WARNING: the MGGA functional with ID    5 has been 
     read together with other dft terms, but it should 
     stand alone in order to work properly. The other 
     terms will be ignored.

     Subspace diagonalization in iterative solution of the eigenvalue problem:
     a serial algorithm will be used

 
     G-vector sticks info
     --------------------
     sticks:   dense  smooth     PW     G-vecs:    dense   smooth      PW
     Sum        1099    1099    313                23829    23829    3839
 
     Using Slab Decomposition
 


     bravais-lattice index     =            2
     lattice parameter (alat)  =      12.5956  a.u.
     unit-cell volume          =     499.5666 (a.u.)^3
     number of atoms/cell      =            2
     number of atomic types    =            1
     number of electrons       =         8.00
     number of Kohn-Sham states=            4
     kinetic-energy cutoff     =      50.0000  Ry
     charge density cutoff     =     200.0000  Ry
     scf convergence threshold =      2.0E-05
     mixing beta               =       0.2000
     number of iterations used =            8  local-TF  mixing
     Exchange-correlation= SLA  PW  SCAN SCAN
                           (   0   0   0   0   0 263 267)

     celldm(1)=  12.595569  celldm(2)=   0.000000  celldm(3)=   0.000000
     celldm(4)=   0.000000  celldm(5)=   0.000000  celldm(6)=   0.000000

     crystal axes: (cart. coord. in units of alat)
               a(1) = (  -0.500000   0.000000   0.500000 )  
               a(2) = (   0.000000   0.500000   0.500000 )  
               a(3) = (  -0.500000   0.500000   0.000000 )  

     reciprocal axes: (cart. coord. in units 2 pi/alat)
               b(1) = ( -1.000000 -1.000000  1.000000 )  
               b(2) = (  1.000000  1.000000  1.000000 )  
               b(3) = ( -1.000000  1.000000 -1.000000 )  


     PseudoPot. # 1 for Ge read from file:
     ~/Documents/TA/PWDFT.jl/pseudopotentials/scan_upf/Ge.SCAN.UPF2
     MD5 check sum: Not computed, couldn't open file
     Pseudo is Norm-conserving, Zval =  4.0
     Generated by new atomic code, or converted to UPF format
     Using radial grid of 1557 points,  2 beta functions with: 
                l(1) =   0
                l(2) =   1

     atomic species   valence    mass     pseudopotential
        Ge             4.00    72.64000     Ge( 1.00)

     48 Sym. Ops., with inversion, found (24 have fractional translation)



   Cartesian axes

     site n.     atom                  positions (alat units)
         1           Ge  tau(   1) = (   0.0000000   0.0000000   0.0000000  )
         2           Ge  tau(   2) = (   0.2500000   0.2500000   0.2500000  )

     number of k points=    47
                       cart. coord. in units 2pi/alat
        k(    1) = (   0.0000000   0.0000000   0.0000000), wk =   0.0020000
        k(    2) = (  -0.1000000   0.1000000  -0.1000000), wk =   0.0160000
        k(    3) = (  -0.2000000   0.2000000  -0.2000000), wk =   0.0160000
        k(    4) = (  -0.3000000   0.3000000  -0.3000000), wk =   0.0160000
        k(    5) = (  -0.4000000   0.4000000  -0.4000000), wk =   0.0160000
        k(    6) = (   0.5000000  -0.5000000   0.5000000), wk =   0.0080000
        k(    7) = (   0.0000000   0.2000000   0.0000000), wk =   0.0120000
        k(    8) = (  -0.1000000   0.3000000  -0.1000000), wk =   0.0480000
        k(    9) = (  -0.2000000   0.4000000  -0.2000000), wk =   0.0480000
        k(   10) = (  -0.3000000   0.5000000  -0.3000000), wk =   0.0480000
        k(   11) = (   0.6000000  -0.4000000   0.6000000), wk =   0.0480000
        k(   12) = (   0.5000000  -0.3000000   0.5000000), wk =   0.0480000
        k(   13) = (   0.4000000  -0.2000000   0.4000000), wk =   0.0480000
        k(   14) = (   0.3000000  -0.1000000   0.3000000), wk =   0.0480000
        k(   15) = (   0.2000000   0.0000000   0.2000000), wk =   0.0240000
        k(   16) = (   0.0000000   0.4000000   0.0000000), wk =   0.0120000
        k(   17) = (  -0.1000000   0.5000000  -0.1000000), wk =   0.0480000
        k(   18) = (  -0.2000000   0.6000000  -0.2000000), wk =   0.0480000
        k(   19) = (   0.7000000  -0.3000000   0.7000000), wk =   0.0480000
        k(   20) = (   0.6000000  -0.2000000   0.6000000), wk =   0.0480000
        k(   21) = (   0.5000000  -0.1000000   0.5000000), wk =   0.0480000
        k(   22) = (   0.4000000   0.0000000   0.4000000), wk =   0.0240000
        k(   23) = (   0.0000000   0.6000000   0.0000000), wk =   0.0120000
        k(   24) = (  -0.1000000   0.7000000  -0.1000000), wk =   0.0480000
        k(   25) = (   0.8000000  -0.2000000   0.8000000), wk =   0.0480000
        k(   26) = (   0.7000000  -0.1000000   0.7000000), wk =   0.0480000
        k(   27) = (   0.6000000  -0.0000000   0.6000000), wk =   0.0240000
        k(   28) = (   0.0000000   0.8000000   0.0000000), wk =   0.0120000
        k(   29) = (   0.9000000  -0.1000000   0.9000000), wk =   0.0480000
        k(   30) = (   0.8000000   0.0000000   0.8000000), wk =   0.0240000
        k(   31) = (   0.0000000  -1.0000000   0.0000000), wk =   0.0060000
        k(   32) = (  -0.2000000   0.4000000   0.0000000), wk =   0.0480000
        k(   33) = (  -0.3000000   0.5000000  -0.1000000), wk =   0.0960000
        k(   34) = (   0.6000000  -0.4000000   0.8000000), wk =   0.0960000
        k(   35) = (   0.5000000  -0.3000000   0.7000000), wk =   0.0480000
        k(   36) = (  -0.2000000   0.6000000   0.0000000), wk =   0.0480000
        k(   37) = (   0.7000000  -0.3000000   0.9000000), wk =   0.0960000
        k(   38) = (   0.6000000  -0.2000000   0.8000000), wk =   0.0960000
        k(   39) = (   0.5000000  -0.1000000   0.7000000), wk =   0.0960000
        k(   40) = (   0.4000000   0.0000000   0.6000000), wk =   0.0480000
        k(   41) = (   0.8000000  -0.2000000   1.0000000), wk =   0.0480000
        k(   42) = (   0.7000000  -0.1000000   0.9000000), wk =   0.0960000
        k(   43) = (   0.6000000   0.0000000   0.8000000), wk =   0.0480000
        k(   44) = (  -0.2000000  -1.0000000   0.0000000), wk =   0.0240000
        k(   45) = (   0.6000000  -0.2000000   1.0000000), wk =   0.0480000
        k(   46) = (   0.5000000  -0.1000000   0.9000000), wk =   0.0480000
        k(   47) = (  -0.4000000  -1.0000000   0.0000000), wk =   0.0240000

     Dense  grid:    23829 G-vectors     FFT dimensions: (  48,  48,  48)

     Estimated max dynamical RAM per process >      48.85 MB

     WARNING: libxc functional with ID  263 depends
      on external parameters: check the user_guide of
      QE if you need to modify them or to check their
      default values.

     Initial potential from superposition of free atoms

     starting charge       7.9987, renormalised to       8.0000
     Starting wfcs are   18 randomized atomic wfcs

     total cpu time spent up to now is       23.3 secs

     Self-consistent Calculation

     iteration #  1     ecut=    50.00 Ry     beta= 0.20
     Davidson diagonalization with overlap
     ethr =  1.00E-02,  avg # of iterations =  1.3

     Threshold (ethr) on eigenvalues was too large:
     Diagonalizing with lowered threshold

     Davidson diagonalization with overlap
     ethr =  2.08E-04,  avg # of iterations =  6.2

     total cpu time spent up to now is       68.5 secs

     total energy              =     -15.68814630 Ry
     estimated scf accuracy    <       0.02125683 Ry

     iteration #  2     ecut=    50.00 Ry     beta= 0.20
     Davidson diagonalization with overlap
     ethr =  2.66E-04,  avg # of iterations =  1.5

     total cpu time spent up to now is       83.6 secs

     total energy              =     -15.71450703 Ry
     estimated scf accuracy    <       0.01570465 Ry

     iteration #  3     ecut=    50.00 Ry     beta= 0.20
     Davidson diagonalization with overlap
     ethr =  1.96E-04,  avg # of iterations =  1.5

     total cpu time spent up to now is       97.8 secs

     total energy              =     -15.71571354 Ry
     estimated scf accuracy    <       0.00086785 Ry

     iteration #  4     ecut=    50.00 Ry     beta= 0.20
     Davidson diagonalization with overlap
     ethr =  1.08E-05,  avg # of iterations =  8.9

     total cpu time spent up to now is      121.8 secs

     total energy              =     -15.71724413 Ry
     estimated scf accuracy    <       0.00091132 Ry

     iteration #  5     ecut=    50.00 Ry     beta= 0.20
     Davidson diagonalization with overlap
     ethr =  1.08E-05,  avg # of iterations =  2.0

     total cpu time spent up to now is      125.7 secs

     total energy              =     -15.71733511 Ry
     estimated scf accuracy    <       0.00031308 Ry

     iteration #  6     ecut=    50.00 Ry     beta= 0.20
     Davidson diagonalization with overlap
     ethr =  3.91E-06,  avg # of iterations =  5.6

     total cpu time spent up to now is      131.9 secs

     total energy              =     -15.71749328 Ry
     estimated scf accuracy    <       0.00012076 Ry

     iteration #  7     ecut=    50.00 Ry     beta= 0.20
     Davidson diagonalization with overlap
     ethr =  1.51E-06,  avg # of iterations =  4.4

     total cpu time spent up to now is      137.1 secs

     total energy              =     -15.71753141 Ry
     estimated scf accuracy    <       0.00003458 Ry

     iteration #  8     ecut=    50.00 Ry     beta= 0.20
     Davidson diagonalization with overlap
     ethr =  4.32E-07,  avg # of iterations =  5.4

     total cpu time spent up to now is      143.3 secs

     End of self-consistent calculation

          k = 0.0000 0.0000 0.0000 (  2975 PWs)   bands (ev):

    -8.6845  -1.9167   1.5901   1.5901

          k =-0.1000 0.1000-0.1000 (  2981 PWs)   bands (ev):

    -8.6083  -2.2593   1.4703   1.4703

          k =-0.2000 0.2000-0.2000 (  2956 PWs)   bands (ev):

    -8.3872  -3.0433   1.2166   1.2168

          k =-0.3000 0.3000-0.3000 (  2962 PWs)   bands (ev):

    -8.0502  -3.9260   0.9728   0.9729

          k =-0.4000 0.4000-0.4000 (  2974 PWs)   bands (ev):

    -7.6816  -4.6652   0.8094   0.8094

          k = 0.5000-0.5000 0.5000 (  2998 PWs)   bands (ev):

    -7.4954  -4.9810   0.7526   0.7527

          k = 0.0000 0.2000 0.0000 (  2978 PWs)   bands (ev):

    -8.5825  -2.3545   1.2736   1.2736

          k =-0.1000 0.3000-0.1000 (  2960 PWs)   bands (ev):

    -8.4079  -2.9525   0.9455   0.9962

          k =-0.2000 0.4000-0.2000 (  2973 PWs)   bands (ev):

    -8.1041  -3.7632   0.5449   0.7647

          k =-0.3000 0.5000-0.3000 (  2975 PWs)   bands (ev):

    -7.7289  -4.5361   0.2132   0.6355

          k = 0.6000-0.4000 0.6000 (  2988 PWs)   bands (ev):

    -7.4467  -5.0140   0.0208   0.6273

          k = 0.5000-0.3000 0.5000 (  2976 PWs)   bands (ev):

    -7.5149  -4.9049  -0.0080   0.7381

          k = 0.4000-0.2000 0.4000 (  2968 PWs)   bands (ev):

    -7.8578  -4.2925   0.1370   0.9492

          k = 0.3000-0.1000 0.3000 (  2969 PWs)   bands (ev):

    -8.2195  -3.4853   0.4591   1.2158

          k = 0.2000 0.0000 0.2000 (  2984 PWs)   bands (ev):

    -8.4832  -2.7206   0.9425   1.4398

          k = 0.0000 0.4000 0.0000 (  2962 PWs)   bands (ev):

    -8.2797  -3.2861   0.7055   0.7055

          k =-0.1000 0.5000-0.1000 (  2965 PWs)   bands (ev):

    -8.0141  -3.9050   0.3234   0.4680

          k =-0.2000 0.6000-0.2000 (  2983 PWs)   bands (ev):

    -7.6488  -4.5993  -0.1362   0.3414

          k = 0.7000-0.3000 0.7000 (  2984 PWs)   bands (ev):

    -7.2995  -5.1481  -0.4808   0.3457

          k = 0.6000-0.2000 0.6000 (  2992 PWs)   bands (ev):

    -7.2425  -5.2291  -0.6272   0.4782

          k = 0.5000-0.1000 0.5000 (  2991 PWs)   bands (ev):

    -7.5451  -4.7758  -0.5355   0.7152

          k = 0.4000 0.0000 0.4000 (  2966 PWs)   bands (ev):

    -7.9220  -4.1166  -0.1754   0.9994

          k = 0.0000 0.6000 0.0000 (  2970 PWs)   bands (ev):

    -7.7856  -4.3317   0.2142   0.2142

          k =-0.1000 0.7000-0.1000 (  2990 PWs)   bands (ev):

    -7.4411  -4.8979  -0.1363   0.0696

          k = 0.8000-0.2000 0.8000 (  2985 PWs)   bands (ev):

    -7.0532  -5.4339  -0.5801   0.0593

          k = 0.7000-0.1000 0.7000 (  2976 PWs)   bands (ev):

    -6.8858  -5.6384  -0.8648   0.1840

          k = 0.6000-0.0000 0.6000 (  2992 PWs)   bands (ev):

    -7.1618  -5.2956  -0.8694   0.4215

          k = 0.0000 0.8000 0.0000 (  2990 PWs)   bands (ev):

    -7.1166  -5.3549  -0.1015  -0.1015

          k = 0.9000-0.1000 0.9000 (  2977 PWs)   bands (ev):

    -6.7127  -5.8452  -0.3755  -0.1394

          k = 0.8000 0.0000 0.8000 (  2978 PWs)   bands (ev):

    -6.5249  -6.0425  -0.7334  -0.0386

          k = 0.0000-1.0000 0.0000 (  2954 PWs)   bands (ev):

    -6.2962  -6.2961  -0.2095  -0.2095

          k =-0.2000 0.4000 0.0000 (  2960 PWs)   bands (ev):

    -8.1889  -3.5319   0.3722   0.8984

          k =-0.3000 0.5000-0.1000 (  2979 PWs)   bands (ev):

    -7.8525  -4.2504  -0.0887   0.6892

          k = 0.6000-0.4000 0.8000 (  2987 PWs)   bands (ev):

    -7.4772  -4.9014  -0.3674   0.5067

          k = 0.5000-0.3000 0.7000 (  2984 PWs)   bands (ev):

    -7.2812  -5.1967  -0.4596   0.4384

          k =-0.2000 0.6000 0.0000 (  2970 PWs)   bands (ev):

    -7.7110  -4.4709  -0.0896   0.2958

          k = 0.7000-0.3000 0.9000 (  2990 PWs)   bands (ev):

    -7.3279  -5.0690  -0.4800   0.1319

          k = 0.6000-0.2000 0.8000 (  2995 PWs)   bands (ev):

    -7.0270  -5.4738  -0.7362   0.1027

          k = 0.5000-0.1000 0.7000 (  2996 PWs)   bands (ev):

    -7.1263  -5.3454  -0.7831   0.2291

          k = 0.4000 0.0000 0.6000 (  2997 PWs)   bands (ev):

    -7.4952  -4.8293  -0.5722   0.4644

          k = 0.8000-0.2000 1.0000 (  2993 PWs)   bands (ev):

    -7.0688  -5.4101  -0.3444  -0.1430

          k = 0.7000-0.1000 0.9000 (  2991 PWs)   bands (ev):

    -6.6926  -5.8540  -0.6688  -0.1945

          k = 0.6000 0.0000 0.8000 (  2985 PWs)   bands (ev):

    -6.7451  -5.7910  -0.8728  -0.0430

          k =-0.2000-1.0000 0.0000 (  2982 PWs)   bands (ev):

    -6.2901  -6.2901  -0.3631  -0.3631

          k = 0.6000-0.2000 1.0000 (  2992 PWs)   bands (ev):

    -6.9360  -5.5659  -0.7138  -0.1494

          k = 0.5000-0.1000 0.9000 (  2998 PWs)   bands (ev):

    -6.6797  -5.8599  -0.7835  -0.2793

          k =-0.4000-1.0000 0.0000 (  3000 PWs)   bands (ev):

    -6.2801  -6.2801  -0.5687  -0.5687

     highest occupied level (ev):     1.5901

!    total energy              =     -15.71755209 Ry
     estimated scf accuracy    <       0.00000027 Ry

     The total energy is the sum of the following terms:
     one-electron contribution =       0.50819780 Ry
     hartree contribution      =       1.72227225 Ry
     xc contribution           =      -4.26245226 Ry
     ewald contribution        =     -13.68556988 Ry

     convergence has been achieved in   8 iterations
     Writing meta-gga kinetic term

     Writing all to output data dir ./input_pw/Ge/11/pwscf.save/
     Writing meta-gga kinetic term
 
     init_run     :     11.35s CPU     23.19s WALL (       1 calls)
     electrons    :     80.65s CPU    120.04s WALL (       1 calls)

     Called by init_run:
     wfcinit      :     11.17s CPU     22.78s WALL (       1 calls)
     potinit      :      0.08s CPU      0.26s WALL (       1 calls)
     hinit0       :      0.06s CPU      0.10s WALL (       1 calls)

     Called by electrons:
     c_bands      :     69.80s CPU    103.35s WALL (       9 calls)
     sum_band     :      9.98s CPU     15.33s WALL (       9 calls)
     v_of_rho     :      0.57s CPU      1.02s WALL (       9 calls)
     mix_rho      :      0.35s CPU      0.53s WALL (       9 calls)

     Called by c_bands:
     init_us_2    :      0.28s CPU      0.43s WALL (     893 calls)
     init_us_2:cp :      0.28s CPU      0.43s WALL (     893 calls)
     cegterg      :     69.46s CPU    102.71s WALL (     423 calls)

     Called by *egterg:
     cdiaghg      :      0.16s CPU      0.32s WALL (    2102 calls)
     h_psi        :     79.43s CPU    123.47s WALL (    2196 calls)
     g_psi        :      0.05s CPU      0.07s WALL (    1726 calls)

     Called by h_psi:
     h_psi:calbec :      0.27s CPU      0.35s WALL (    2196 calls)
     vloc_psi     :     19.71s CPU     30.51s WALL (    2196 calls)
     add_vuspsi   :      0.18s CPU      0.31s WALL (    2196 calls)
     h_psi_meta   :     59.18s CPU     92.19s WALL (    2196 calls)

     General routines
     calbec       :      0.26s CPU      0.35s WALL (    2196 calls)
     fft          :      0.10s CPU      0.19s WALL (     107 calls)
     ffts         :      0.16s CPU      0.18s WALL (     149 calls)
     fftw         :     71.16s CPU    110.51s WALL (   65640 calls)
     interpolate  :      0.00s CPU      0.02s WALL (       9 calls)
 
     Parallel routines
 
     PWSCF        :   1m32.05s CPU   2m23.33s WALL

 
   This run was terminated on:  14:28:12   7Jul2023            

=------------------------------------------------------------------------------=
   JOB DONE.
=------------------------------------------------------------------------------=
