
     Program PWSCF v.7.0 starts on 14Mar2023 at 11:36:59 

     This program is part of the open-source Quantum ESPRESSO suite
     for quantum simulation of materials; please cite
         "P. Giannozzi et al., J. Phys.:Condens. Matter 21 395502 (2009);
         "P. Giannozzi et al., J. Phys.:Condens. Matter 29 465901 (2017);
         "P. Giannozzi et al., J. Chem. Phys. 152 154105 (2020);
          URL http://www.quantum-espresso.org", 
     in publications or presentations arising from this work. More details at
     http://www.quantum-espresso.org/quote

     Parallel version (MPI), running on     1 processors

     MPI processes distributed on     1 nodes
     27353 MiB available memory on the printing compute node when the environment starts
 
     Waiting for input...
     Reading input from standard input
Warning: card &CELL ignored
Warning: card / ignored

     Current dimensions of program PWSCF are:
     Max number of different atomic species (ntypx) = 10
     Max number of k-points (npk) =  40000
     Max angular momentum in pseudopotentials (lmaxx) =  4
     file Ge.SCAN.UPF2: wavefunction(s)  0D renormalized

     WARNING: the MGGA functional with ID    5 has been 
     read together with other dft terms, but it should 
     stand alone in order to work properly. The other 
     terms will be ignored.

     Subspace diagonalization in iterative solution of the eigenvalue problem:
     a serial algorithm will be used

 
     G-vector sticks info
     --------------------
     sticks:   dense  smooth     PW     G-vecs:    dense   smooth      PW
     Sum        1147    1147    337                25269    25269    4015
 
     Using Slab Decomposition
 


     bravais-lattice index     =            2
     lattice parameter (alat)  =      12.8388  a.u.
     unit-cell volume          =     529.0702 (a.u.)^3
     number of atoms/cell      =            2
     number of atomic types    =            1
     number of electrons       =         8.00
     number of Kohn-Sham states=            4
     kinetic-energy cutoff     =      50.0000  Ry
     charge density cutoff     =     200.0000  Ry
     scf convergence threshold =      1.0E-06
     mixing beta               =       0.0100
     number of iterations used =            8  local-TF  mixing
     Exchange-correlation= SLA  PW  SCAN SCAN
                           (   0   0   0   0   0 263 267)

     celldm(1)=  12.838800  celldm(2)=   0.000000  celldm(3)=   0.000000
     celldm(4)=   0.000000  celldm(5)=   0.000000  celldm(6)=   0.000000

     crystal axes: (cart. coord. in units of alat)
               a(1) = (  -0.500000   0.000000   0.500000 )  
               a(2) = (   0.000000   0.500000   0.500000 )  
               a(3) = (  -0.500000   0.500000   0.000000 )  

     reciprocal axes: (cart. coord. in units 2 pi/alat)
               b(1) = ( -1.000000 -1.000000  1.000000 )  
               b(2) = (  1.000000  1.000000  1.000000 )  
               b(3) = ( -1.000000  1.000000 -1.000000 )  


     PseudoPot. # 1 for Ge read from file:
     ~/Documents/TA/PWDFT.jl/pseudopotentials/scan_upf/Ge.SCAN.UPF2
     MD5 check sum: Not computed, couldn't open file
     Pseudo is Norm-conserving, Zval =  4.0
     Generated by new atomic code, or converted to UPF format
     Using radial grid of 1557 points,  2 beta functions with: 
                l(1) =   0
                l(2) =   1

     atomic species   valence    mass     pseudopotential
        Ge             4.00    72.64000     Ge( 1.00)

     48 Sym. Ops., with inversion, found (24 have fractional translation)



   Cartesian axes

     site n.     atom                  positions (alat units)
         1           Ge  tau(   1) = (   0.0000000   0.0000000   0.0000000  )
         2           Ge  tau(   2) = (   0.2500000   0.2500000   0.2500000  )

     number of k points=    47
                       cart. coord. in units 2pi/alat
        k(    1) = (   0.0000000   0.0000000   0.0000000), wk =   0.0020000
        k(    2) = (  -0.1000000   0.1000000  -0.1000000), wk =   0.0160000
        k(    3) = (  -0.2000000   0.2000000  -0.2000000), wk =   0.0160000
        k(    4) = (  -0.3000000   0.3000000  -0.3000000), wk =   0.0160000
        k(    5) = (  -0.4000000   0.4000000  -0.4000000), wk =   0.0160000
        k(    6) = (   0.5000000  -0.5000000   0.5000000), wk =   0.0080000
        k(    7) = (   0.0000000   0.2000000   0.0000000), wk =   0.0120000
        k(    8) = (  -0.1000000   0.3000000  -0.1000000), wk =   0.0480000
        k(    9) = (  -0.2000000   0.4000000  -0.2000000), wk =   0.0480000
        k(   10) = (  -0.3000000   0.5000000  -0.3000000), wk =   0.0480000
        k(   11) = (   0.6000000  -0.4000000   0.6000000), wk =   0.0480000
        k(   12) = (   0.5000000  -0.3000000   0.5000000), wk =   0.0480000
        k(   13) = (   0.4000000  -0.2000000   0.4000000), wk =   0.0480000
        k(   14) = (   0.3000000  -0.1000000   0.3000000), wk =   0.0480000
        k(   15) = (   0.2000000   0.0000000   0.2000000), wk =   0.0240000
        k(   16) = (   0.0000000   0.4000000   0.0000000), wk =   0.0120000
        k(   17) = (  -0.1000000   0.5000000  -0.1000000), wk =   0.0480000
        k(   18) = (  -0.2000000   0.6000000  -0.2000000), wk =   0.0480000
        k(   19) = (   0.7000000  -0.3000000   0.7000000), wk =   0.0480000
        k(   20) = (   0.6000000  -0.2000000   0.6000000), wk =   0.0480000
        k(   21) = (   0.5000000  -0.1000000   0.5000000), wk =   0.0480000
        k(   22) = (   0.4000000   0.0000000   0.4000000), wk =   0.0240000
        k(   23) = (   0.0000000   0.6000000   0.0000000), wk =   0.0120000
        k(   24) = (  -0.1000000   0.7000000  -0.1000000), wk =   0.0480000
        k(   25) = (   0.8000000  -0.2000000   0.8000000), wk =   0.0480000
        k(   26) = (   0.7000000  -0.1000000   0.7000000), wk =   0.0480000
        k(   27) = (   0.6000000  -0.0000000   0.6000000), wk =   0.0240000
        k(   28) = (   0.0000000   0.8000000   0.0000000), wk =   0.0120000
        k(   29) = (   0.9000000  -0.1000000   0.9000000), wk =   0.0480000
        k(   30) = (   0.8000000   0.0000000   0.8000000), wk =   0.0240000
        k(   31) = (   0.0000000  -1.0000000   0.0000000), wk =   0.0060000
        k(   32) = (  -0.2000000   0.4000000   0.0000000), wk =   0.0480000
        k(   33) = (  -0.3000000   0.5000000  -0.1000000), wk =   0.0960000
        k(   34) = (   0.6000000  -0.4000000   0.8000000), wk =   0.0960000
        k(   35) = (   0.5000000  -0.3000000   0.7000000), wk =   0.0480000
        k(   36) = (  -0.2000000   0.6000000   0.0000000), wk =   0.0480000
        k(   37) = (   0.7000000  -0.3000000   0.9000000), wk =   0.0960000
        k(   38) = (   0.6000000  -0.2000000   0.8000000), wk =   0.0960000
        k(   39) = (   0.5000000  -0.1000000   0.7000000), wk =   0.0960000
        k(   40) = (   0.4000000   0.0000000   0.6000000), wk =   0.0480000
        k(   41) = (   0.8000000  -0.2000000   1.0000000), wk =   0.0480000
        k(   42) = (   0.7000000  -0.1000000   0.9000000), wk =   0.0960000
        k(   43) = (   0.6000000   0.0000000   0.8000000), wk =   0.0480000
        k(   44) = (  -0.2000000  -1.0000000   0.0000000), wk =   0.0240000
        k(   45) = (   0.6000000  -0.2000000   1.0000000), wk =   0.0480000
        k(   46) = (   0.5000000  -0.1000000   0.9000000), wk =   0.0480000
        k(   47) = (  -0.4000000  -1.0000000   0.0000000), wk =   0.0240000

     Dense  grid:    25269 G-vectors     FFT dimensions: (  48,  48,  48)

     Estimated max dynamical RAM per process >      51.02 MB

     WARNING: libxc functional with ID  263 depends
      on external parameters: check the user_guide of
      QE if you need to modify them or to check their
      default values.

     Initial potential from superposition of free atoms

     starting charge       7.9987, renormalised to       8.0000
     Starting wfcs are   18 randomized atomic wfcs

     total cpu time spent up to now is       20.7 secs

     Self-consistent Calculation

     iteration #  1     ecut=    50.00 Ry     beta= 0.01
     Davidson diagonalization with overlap
     ethr =  1.00E-02,  avg # of iterations =  1.0

     Threshold (ethr) on eigenvalues was too large:
     Diagonalizing with lowered threshold

     Davidson diagonalization with overlap
     ethr =  2.05E-04,  avg # of iterations =  5.9

     total cpu time spent up to now is       60.4 secs

     total energy              =     -15.66017691 Ry
     estimated scf accuracy    <       0.02003085 Ry

     iteration #  2     ecut=    50.00 Ry     beta= 0.01
     Davidson diagonalization with overlap
     ethr =  2.50E-04,  avg # of iterations =  1.0

     total cpu time spent up to now is       70.4 secs

     total energy              =     -15.66350432 Ry
     estimated scf accuracy    <       0.02000837 Ry

     iteration #  3     ecut=    50.00 Ry     beta= 0.01
     Davidson diagonalization with overlap
     ethr =  2.50E-04,  avg # of iterations =  1.0

     total cpu time spent up to now is       80.3 secs

     total energy              =     -15.69356841 Ry
     estimated scf accuracy    <       0.01885505 Ry

     iteration #  4     ecut=    50.00 Ry     beta= 0.01
     Davidson diagonalization with overlap
     ethr =  2.36E-04,  avg # of iterations =  2.0

     total cpu time spent up to now is       91.2 secs

     total energy              =     -15.69541547 Ry
     estimated scf accuracy    <       0.00136460 Ry

     iteration #  5     ecut=    50.00 Ry     beta= 0.01
     Davidson diagonalization with overlap
     ethr =  1.71E-05,  avg # of iterations =  6.2

     total cpu time spent up to now is      109.4 secs

     total energy              =     -15.69659921 Ry
     estimated scf accuracy    <       0.00169183 Ry

     iteration #  6     ecut=    50.00 Ry     beta= 0.01
     Davidson diagonalization with overlap
     ethr =  1.71E-05,  avg # of iterations =  1.2

     total cpu time spent up to now is      117.8 secs

     total energy              =     -15.69675275 Ry
     estimated scf accuracy    <       0.00179829 Ry

     iteration #  7     ecut=    50.00 Ry     beta= 0.01
     Davidson diagonalization with overlap
     ethr =  1.71E-05,  avg # of iterations =  1.1

     total cpu time spent up to now is      125.4 secs

     total energy              =     -15.69679138 Ry
     estimated scf accuracy    <       0.00029722 Ry

     iteration #  8     ecut=    50.00 Ry     beta= 0.01
     Davidson diagonalization with overlap
     ethr =  3.72E-06,  avg # of iterations =  6.0

     total cpu time spent up to now is      137.1 secs

     total energy              =     -15.69696504 Ry
     estimated scf accuracy    <       0.00015983 Ry

     iteration #  9     ecut=    50.00 Ry     beta= 0.01
     Davidson diagonalization with overlap
     ethr =  2.00E-06,  avg # of iterations =  3.7

     total cpu time spent up to now is      142.0 secs

     total energy              =     -15.69701084 Ry
     estimated scf accuracy    <       0.00011298 Ry

     iteration # 10     ecut=    50.00 Ry     beta= 0.01
     Davidson diagonalization with overlap
     ethr =  1.41E-06,  avg # of iterations =  2.4

     total cpu time spent up to now is      146.0 secs

     total energy              =     -15.69702911 Ry
     estimated scf accuracy    <       0.00007564 Ry

     iteration # 11     ecut=    50.00 Ry     beta= 0.01
     Davidson diagonalization with overlap
     ethr =  9.46E-07,  avg # of iterations =  4.0

     total cpu time spent up to now is      151.1 secs

     total energy              =     -15.69706175 Ry
     estimated scf accuracy    <       0.00000555 Ry

     iteration # 12     ecut=    50.00 Ry     beta= 0.01
     Davidson diagonalization with overlap
     c_bands:  1 eigenvalues not converged
     c_bands:  1 eigenvalues not converged
     c_bands:  1 eigenvalues not converged
     c_bands:  1 eigenvalues not converged
     ethr =  6.93E-08,  avg # of iterations = 12.0

     total cpu time spent up to now is      161.8 secs

     total energy              =     -15.69708103 Ry
     estimated scf accuracy    <       0.00000571 Ry

     iteration # 13     ecut=    50.00 Ry     beta= 0.01
     Davidson diagonalization with overlap
     c_bands:  1 eigenvalues not converged
     c_bands:  1 eigenvalues not converged
     ethr =  6.93E-08,  avg # of iterations =  2.6

     total cpu time spent up to now is      165.0 secs

     total energy              =     -15.69706918 Ry
     estimated scf accuracy    <       0.00000571 Ry

     iteration # 14     ecut=    50.00 Ry     beta= 0.01
     Davidson diagonalization with overlap
     c_bands:  1 eigenvalues not converged
     c_bands:  1 eigenvalues not converged
     ethr =  6.93E-08,  avg # of iterations =  5.5

     total cpu time spent up to now is      170.3 secs

     total energy              =     -15.69707334 Ry
     estimated scf accuracy    <       0.00000167 Ry

     iteration # 15     ecut=    50.00 Ry     beta= 0.01
     Davidson diagonalization with overlap
     c_bands:  1 eigenvalues not converged
     c_bands:  1 eigenvalues not converged
     ethr =  2.09E-08,  avg # of iterations =  4.3

     total cpu time spent up to now is      174.3 secs

     total energy              =     -15.69707476 Ry
     estimated scf accuracy    <       0.00000160 Ry

     iteration # 16     ecut=    50.00 Ry     beta= 0.01
     Davidson diagonalization with overlap
     c_bands:  1 eigenvalues not converged
     c_bands:  1 eigenvalues not converged
     c_bands:  1 eigenvalues not converged
     ethr =  2.00E-08,  avg # of iterations =  2.5

     total cpu time spent up to now is      177.4 secs

     total energy              =     -15.69707489 Ry
     estimated scf accuracy    <       0.00000243 Ry

     iteration # 17     ecut=    50.00 Ry     beta= 0.01
     Davidson diagonalization with overlap
     c_bands:  1 eigenvalues not converged
     c_bands:  1 eigenvalues not converged
     ethr =  2.00E-08,  avg # of iterations =  2.0

     total cpu time spent up to now is      180.4 secs

     total energy              =     -15.69707381 Ry
     estimated scf accuracy    <       0.00000246 Ry

     iteration # 18     ecut=    50.00 Ry     beta= 0.01
     Davidson diagonalization with overlap
     c_bands:  1 eigenvalues not converged
     ethr =  2.00E-08,  avg # of iterations =  3.1

     total cpu time spent up to now is      183.8 secs

     End of self-consistent calculation

          k = 0.0000 0.0000 0.0000 (  3143 PWs)   bands (ev):

    -8.7954  -2.6170   1.2510   1.2510

          k =-0.1000 0.1000-0.1000 (  3164 PWs)   bands (ev):

    -8.7241  -2.9000   1.1395   1.1395

          k =-0.2000 0.2000-0.2000 (  3146 PWs)   bands (ev):

    -8.5174  -3.5733   0.9019   0.9019

          k =-0.3000 0.3000-0.3000 (  3155 PWs)   bands (ev):

    -8.2034  -4.3566   0.6721   0.6722

          k =-0.4000 0.4000-0.4000 (  3157 PWs)   bands (ev):

    -7.8622  -5.0227   0.5175   0.5175

          k = 0.5000-0.5000 0.5000 (  3178 PWs)   bands (ev):

    -7.6914  -5.3082   0.4637   0.4638

          k = 0.0000 0.2000 0.0000 (  3171 PWs)   bands (ev):

    -8.6999  -2.9823   0.9580   0.9580

          k =-0.1000 0.3000-0.1000 (  3158 PWs)   bands (ev):

    -8.5366  -3.4995   0.6457   0.6984

          k =-0.2000 0.4000-0.2000 (  3156 PWs)   bands (ev):

    -8.2531  -4.2180   0.2597   0.4798

          k =-0.3000 0.5000-0.3000 (  3157 PWs)   bands (ev):

    -7.9048  -4.9139  -0.0603   0.3567

          k = 0.6000-0.4000 0.6000 (  3156 PWs)   bands (ev):

    -7.6450  -5.3463  -0.2439   0.3475

          k = 0.5000-0.3000 0.5000 (  3161 PWs)   bands (ev):

    -7.7076  -5.2476  -0.2669   0.4507

          k = 0.4000-0.2000 0.4000 (  3150 PWs)   bands (ev):

    -8.0242  -4.6935  -0.1210   0.6487

          k = 0.3000-0.1000 0.3000 (  3159 PWs)   bands (ev):

    -8.3607  -3.9691   0.1928   0.8987

          k = 0.2000 0.0000 0.2000 (  3157 PWs)   bands (ev):

    -8.6070  -3.2952   0.6506   1.1088

          k = 0.0000 0.4000 0.0000 (  3183 PWs)   bands (ev):

    -8.4165  -3.8007   0.4266   0.4266

          k =-0.1000 0.5000-0.1000 (  3159 PWs)   bands (ev):

    -8.1683  -4.3577   0.0663   0.2027

          k =-0.2000 0.6000-0.2000 (  3169 PWs)   bands (ev):

    -7.8284  -4.9873  -0.3682   0.0824

          k = 0.7000-0.3000 0.7000 (  3162 PWs)   bands (ev):

    -7.5056  -5.4867  -0.6936   0.0851

          k = 0.6000-0.2000 0.6000 (  3173 PWs)   bands (ev):

    -7.4536  -5.5600  -0.8290   0.2085

          k = 0.5000-0.1000 0.5000 (  3145 PWs)   bands (ev):

    -7.7330  -5.1461  -0.7376   0.4301

          k = 0.4000 0.0000 0.4000 (  3140 PWs)   bands (ev):

    -8.0832  -4.5439  -0.3964   0.6960

          k = 0.0000 0.6000 0.0000 (  3146 PWs)   bands (ev):

    -7.9544  -4.7502  -0.0359  -0.0359

          k =-0.1000 0.7000-0.1000 (  3155 PWs)   bands (ev):

    -7.6332  -5.2698  -0.3634  -0.1727

          k = 0.8000-0.2000 0.8000 (  3169 PWs)   bands (ev):

    -7.2735  -5.7630  -0.7766  -0.1833

          k = 0.7000-0.1000 0.7000 (  3170 PWs)   bands (ev):

    -7.1203  -5.9497  -1.0410  -0.0668

          k = 0.6000-0.0000 0.6000 (  3160 PWs)   bands (ev):

    -7.3766  -5.6313  -1.0449   0.1556

          k = 0.0000 0.8000 0.0000 (  3178 PWs)   bands (ev):

    -7.3300  -5.6930  -0.3340  -0.3340

          k = 0.9000-0.1000 0.9000 (  3168 PWs)   bands (ev):

    -6.9544  -6.1473  -0.5873  -0.3701

          k = 0.8000 0.0000 0.8000 (  3170 PWs)   bands (ev):

    -6.7829  -6.3284  -0.9175  -0.2755

          k = 0.0000-1.0000 0.0000 (  3138 PWs)   bands (ev):

    -6.5661  -6.5661  -0.4360  -0.4360

          k =-0.2000 0.4000 0.0000 (  3161 PWs)   bands (ev):

    -8.3319  -4.0168   0.1164   0.6006

          k =-0.3000 0.5000-0.1000 (  3157 PWs)   bands (ev):

    -8.0184  -4.6658  -0.3201   0.4053

          k = 0.6000-0.4000 0.8000 (  3154 PWs)   bands (ev):

    -7.6706  -5.2572  -0.5891   0.2359

          k = 0.5000-0.3000 0.7000 (  3154 PWs)   bands (ev):

    -7.4903  -5.5255  -0.6789   0.1726

          k =-0.2000 0.6000 0.0000 (  3156 PWs)   bands (ev):

    -7.8854  -4.8751  -0.3180   0.0398

          k = 0.7000-0.3000 0.9000 (  3156 PWs)   bands (ev):

    -7.5294  -5.4240  -0.6844  -0.1126

          k = 0.6000-0.2000 0.8000 (  3157 PWs)   bands (ev):

    -7.2517  -5.7951  -0.9245  -0.1396

          k = 0.5000-0.1000 0.7000 (  3164 PWs)   bands (ev):

    -7.3438  -5.6766  -0.9667  -0.0220

          k = 0.4000 0.0000 0.6000 (  3160 PWs)   bands (ev):

    -7.6858  -5.2007  -0.7682   0.1968

          k = 0.8000-0.2000 1.0000 (  3159 PWs)   bands (ev):

    -7.2864  -5.7437  -0.5579  -0.3697

          k = 0.7000-0.1000 0.9000 (  3156 PWs)   bands (ev):

    -6.9378  -6.1548  -0.8577  -0.4175

          k = 0.6000 0.0000 0.8000 (  3166 PWs)   bands (ev):

    -6.9887  -6.0943  -1.0468  -0.2760

          k =-0.2000-1.0000 0.0000 (  3168 PWs)   bands (ev):

    -6.5613  -6.5613  -0.5756  -0.5756

          k = 0.6000-0.2000 1.0000 (  3137 PWs)   bands (ev):

    -7.1649  -5.8868  -0.8998  -0.3729

          k = 0.5000-0.1000 0.9000 (  3166 PWs)   bands (ev):

    -6.9272  -6.1598  -0.9641  -0.4936

          k =-0.4000-1.0000 0.0000 (  3164 PWs)   bands (ev):

    -6.5534  -6.5534  -0.7635  -0.7635

     highest occupied level (ev):     1.2510

!    total energy              =     -15.69707416 Ry
     estimated scf accuracy    <       0.00000062 Ry

     The total energy is the sum of the following terms:
     one-electron contribution =       0.16339226 Ry
     hartree contribution      =       1.78981202 Ry
     xc contribution           =      -4.22398176 Ry
     ewald contribution        =     -13.42629668 Ry

     convergence has been achieved in  18 iterations
     Writing meta-gga kinetic term

     Writing all to output data dir ./input_pw/Ge/11/pwscf.save/
     Writing meta-gga kinetic term
 
     init_run     :     10.61s CPU     20.62s WALL (       1 calls)
     electrons    :    128.39s CPU    163.18s WALL (       1 calls)

     Called by init_run:
     wfcinit      :     10.42s CPU     20.07s WALL (       1 calls)
     potinit      :      0.09s CPU      0.16s WALL (       1 calls)
     hinit0       :      0.07s CPU      0.32s WALL (       1 calls)

     Called by electrons:
     c_bands      :    107.99s CPU    138.03s WALL (      19 calls)
     sum_band     :     18.50s CPU     22.86s WALL (      19 calls)
     v_of_rho     :      1.11s CPU      1.37s WALL (      19 calls)
     mix_rho      :      0.83s CPU      1.01s WALL (      19 calls)

     Called by c_bands:
     init_us_2    :      0.56s CPU      0.72s WALL (    1833 calls)
     init_us_2:cp :      0.55s CPU      0.72s WALL (    1833 calls)
     cegterg      :    107.31s CPU    137.09s WALL (     893 calls)

     Called by *egterg:
     cdiaghg      :      0.23s CPU      0.31s WALL (    4011 calls)
     h_psi        :    115.98s CPU    154.72s WALL (    4105 calls)
     g_psi        :      0.07s CPU      0.09s WALL (    3165 calls)

     Called by h_psi:
     h_psi:calbec :      0.37s CPU      0.47s WALL (    4105 calls)
     vloc_psi     :     28.75s CPU     38.32s WALL (    4105 calls)
     add_vuspsi   :      0.28s CPU      0.37s WALL (    4105 calls)
     h_psi_meta   :     86.46s CPU    115.43s WALL (    4105 calls)

     General routines
     calbec       :      0.35s CPU      0.44s WALL (    4105 calls)
     fft          :      0.21s CPU      0.44s WALL (     227 calls)
     ffts         :      0.35s CPU      0.38s WALL (     357 calls)
     fftw         :    110.35s CPU    145.68s WALL (  117760 calls)
     interpolate  :      0.00s CPU      0.00s WALL (      19 calls)
 
     Parallel routines
 
     PWSCF        :   2m19.05s CPU   3m 3.87s WALL

 
   This run was terminated on:  11:40: 3  14Mar2023            

=------------------------------------------------------------------------------=
   JOB DONE.
=------------------------------------------------------------------------------=
