
     Program PWSCF v.7.0 starts on 21Feb2023 at 12:49:40 

     This program is part of the open-source Quantum ESPRESSO suite
     for quantum simulation of materials; please cite
         "P. Giannozzi et al., J. Phys.:Condens. Matter 21 395502 (2009);
         "P. Giannozzi et al., J. Phys.:Condens. Matter 29 465901 (2017);
         "P. Giannozzi et al., J. Chem. Phys. 152 154105 (2020);
          URL http://www.quantum-espresso.org", 
     in publications or presentations arising from this work. More details at
     http://www.quantum-espresso.org/quote

     Parallel version (MPI), running on     1 processors

     MPI processes distributed on     1 nodes
     3236 MiB available memory on the printing compute node when the environment starts
 
     Waiting for input...
     Reading input from standard input
Warning: card &CELL ignored
Warning: card / ignored

     Current dimensions of program PWSCF are:
     Max number of different atomic species (ntypx) = 10
     Max number of k-points (npk) =  40000
     Max angular momentum in pseudopotentials (lmaxx) =  4
     file Si.SCAN.UPF2: wavefunction(s)  0D renormalized

     WARNING: the MGGA functional with ID    5 has been 
     read together with other dft terms, but it should 
     stand alone in order to work properly. The other 
     terms will be ignored.

     Subspace diagonalization in iterative solution of the eigenvalue problem:
     a serial algorithm will be used

 
     G-vector sticks info
     --------------------
     sticks:   dense  smooth     PW     G-vecs:    dense   smooth      PW
     Sum         703     703    211                12339    12339    2109
 
     Using Slab Decomposition
 


     bravais-lattice index     =            2
     lattice parameter (alat)  =      10.1114  a.u.
     unit-cell volume          =     258.4484 (a.u.)^3
     number of atoms/cell      =            2
     number of atomic types    =            1
     number of electrons       =         8.00
     number of Kohn-Sham states=            4
     kinetic-energy cutoff     =      50.0000  Ry
     charge density cutoff     =     200.0000  Ry
     scf convergence threshold =      1.0E-06
     mixing beta               =       0.0100
     number of iterations used =            8  local-TF  mixing
     Exchange-correlation= SLA  PW   SCAN SCAN
                           (   0   0   0   0   0 263 267)

     celldm(1)=  10.111400  celldm(2)=   0.000000  celldm(3)=   0.000000
     celldm(4)=   0.000000  celldm(5)=   0.000000  celldm(6)=   0.000000

     crystal axes: (cart. coord. in units of alat)
               a(1) = (  -0.500000   0.000000   0.500000 )  
               a(2) = (   0.000000   0.500000   0.500000 )  
               a(3) = (  -0.500000   0.500000   0.000000 )  

     reciprocal axes: (cart. coord. in units 2 pi/alat)
               b(1) = ( -1.000000 -1.000000  1.000000 )  
               b(2) = (  1.000000  1.000000  1.000000 )  
               b(3) = ( -1.000000  1.000000 -1.000000 )  


     PseudoPot. # 1 for Si read from file:
     ~/Documents/TA/PWDFT.jl/pseudopotentials/scan_upf/Si.SCAN.UPF2
     MD5 check sum: Not computed, couldn't open file
     Pseudo is Norm-conserving, Zval =  4.0
     Generated by new atomic code, or converted to UPF format
     Using radial grid of 1475 points,  2 beta functions with: 
                l(1) =   0
                l(2) =   1

     atomic species   valence    mass     pseudopotential
        Si             4.00    28.08550     Si( 1.00)

     48 Sym. Ops., with inversion, found (24 have fractional translation)



   Cartesian axes

     site n.     atom                  positions (alat units)
         1           Si  tau(   1) = (   0.0000000   0.0000000   0.0000000  )
         2           Si  tau(   2) = (   0.2500000   0.2500000   0.2500000  )

     number of k points=    47
                       cart. coord. in units 2pi/alat
        k(    1) = (   0.0000000   0.0000000   0.0000000), wk =   0.0020000
        k(    2) = (  -0.1000000   0.1000000  -0.1000000), wk =   0.0160000
        k(    3) = (  -0.2000000   0.2000000  -0.2000000), wk =   0.0160000
        k(    4) = (  -0.3000000   0.3000000  -0.3000000), wk =   0.0160000
        k(    5) = (  -0.4000000   0.4000000  -0.4000000), wk =   0.0160000
        k(    6) = (   0.5000000  -0.5000000   0.5000000), wk =   0.0080000
        k(    7) = (   0.0000000   0.2000000   0.0000000), wk =   0.0120000
        k(    8) = (  -0.1000000   0.3000000  -0.1000000), wk =   0.0480000
        k(    9) = (  -0.2000000   0.4000000  -0.2000000), wk =   0.0480000
        k(   10) = (  -0.3000000   0.5000000  -0.3000000), wk =   0.0480000
        k(   11) = (   0.6000000  -0.4000000   0.6000000), wk =   0.0480000
        k(   12) = (   0.5000000  -0.3000000   0.5000000), wk =   0.0480000
        k(   13) = (   0.4000000  -0.2000000   0.4000000), wk =   0.0480000
        k(   14) = (   0.3000000  -0.1000000   0.3000000), wk =   0.0480000
        k(   15) = (   0.2000000   0.0000000   0.2000000), wk =   0.0240000
        k(   16) = (   0.0000000   0.4000000   0.0000000), wk =   0.0120000
        k(   17) = (  -0.1000000   0.5000000  -0.1000000), wk =   0.0480000
        k(   18) = (  -0.2000000   0.6000000  -0.2000000), wk =   0.0480000
        k(   19) = (   0.7000000  -0.3000000   0.7000000), wk =   0.0480000
        k(   20) = (   0.6000000  -0.2000000   0.6000000), wk =   0.0480000
        k(   21) = (   0.5000000  -0.1000000   0.5000000), wk =   0.0480000
        k(   22) = (   0.4000000   0.0000000   0.4000000), wk =   0.0240000
        k(   23) = (   0.0000000   0.6000000   0.0000000), wk =   0.0120000
        k(   24) = (  -0.1000000   0.7000000  -0.1000000), wk =   0.0480000
        k(   25) = (   0.8000000  -0.2000000   0.8000000), wk =   0.0480000
        k(   26) = (   0.7000000  -0.1000000   0.7000000), wk =   0.0480000
        k(   27) = (   0.6000000  -0.0000000   0.6000000), wk =   0.0240000
        k(   28) = (   0.0000000   0.8000000   0.0000000), wk =   0.0120000
        k(   29) = (   0.9000000  -0.1000000   0.9000000), wk =   0.0480000
        k(   30) = (   0.8000000   0.0000000   0.8000000), wk =   0.0240000
        k(   31) = (   0.0000000  -1.0000000   0.0000000), wk =   0.0060000
        k(   32) = (  -0.2000000   0.4000000   0.0000000), wk =   0.0480000
        k(   33) = (  -0.3000000   0.5000000  -0.1000000), wk =   0.0960000
        k(   34) = (   0.6000000  -0.4000000   0.8000000), wk =   0.0960000
        k(   35) = (   0.5000000  -0.3000000   0.7000000), wk =   0.0480000
        k(   36) = (  -0.2000000   0.6000000   0.0000000), wk =   0.0480000
        k(   37) = (   0.7000000  -0.3000000   0.9000000), wk =   0.0960000
        k(   38) = (   0.6000000  -0.2000000   0.8000000), wk =   0.0960000
        k(   39) = (   0.5000000  -0.1000000   0.7000000), wk =   0.0960000
        k(   40) = (   0.4000000   0.0000000   0.6000000), wk =   0.0480000
        k(   41) = (   0.8000000  -0.2000000   1.0000000), wk =   0.0480000
        k(   42) = (   0.7000000  -0.1000000   0.9000000), wk =   0.0960000
        k(   43) = (   0.6000000   0.0000000   0.8000000), wk =   0.0480000
        k(   44) = (  -0.2000000  -1.0000000   0.0000000), wk =   0.0240000
        k(   45) = (   0.6000000  -0.2000000   1.0000000), wk =   0.0480000
        k(   46) = (   0.5000000  -0.1000000   0.9000000), wk =   0.0480000
        k(   47) = (  -0.4000000  -1.0000000   0.0000000), wk =   0.0240000

     Dense  grid:    12339 G-vectors     FFT dimensions: (  36,  36,  36)

     Estimated max dynamical RAM per process >      24.13 MB

     WARNING: libxc functional with ID  263 depends
      on external parameters: check the user_guide of
      QE if you need to modify them or to check their
      default values.

     Initial potential from superposition of free atoms

     starting charge       7.9990, renormalised to       8.0000
     Starting wfcs are   18 randomized atomic wfcs

     total cpu time spent up to now is        8.2 secs

     Self-consistent Calculation

     iteration #  1     ecut=    50.00 Ry     beta= 0.01
     Davidson diagonalization with overlap
     ethr =  1.00E-02,  avg # of iterations =  2.0

     Threshold (ethr) on eigenvalues was too large:
     Diagonalizing with lowered threshold

     Davidson diagonalization with overlap
     ethr =  8.02E-04,  avg # of iterations =  1.5

     total cpu time spent up to now is       19.1 secs

     total energy              =     -15.64078745 Ry
     estimated scf accuracy    <       0.06801553 Ry

     iteration #  2     ecut=    50.00 Ry     beta= 0.01
     Davidson diagonalization with overlap
     ethr =  8.50E-04,  avg # of iterations =  1.0

     total cpu time spent up to now is       23.8 secs

     total energy              =     -15.73908356 Ry
     estimated scf accuracy    <       0.06750918 Ry

     iteration #  3     ecut=    50.00 Ry     beta= 0.01
     Davidson diagonalization with overlap
     ethr =  8.44E-04,  avg # of iterations =  1.8

     total cpu time spent up to now is       29.0 secs

     total energy              =     -15.74287380 Ry
     estimated scf accuracy    <       0.03956471 Ry

     iteration #  4     ecut=    50.00 Ry     beta= 0.01
     Davidson diagonalization with overlap
     ethr =  4.95E-04,  avg # of iterations =  1.2

     total cpu time spent up to now is       33.7 secs

     total energy              =     -15.75003490 Ry
     estimated scf accuracy    <       0.00632210 Ry

     iteration #  5     ecut=    50.00 Ry     beta= 0.01
     Davidson diagonalization with overlap
     ethr =  7.90E-05,  avg # of iterations =  1.4

     total cpu time spent up to now is       38.4 secs

     total energy              =     -15.75071242 Ry
     estimated scf accuracy    <       0.00808676 Ry

     iteration #  6     ecut=    50.00 Ry     beta= 0.01
     Davidson diagonalization with overlap
     ethr =  7.90E-05,  avg # of iterations =  1.0

     total cpu time spent up to now is       41.2 secs

     total energy              =     -15.74942615 Ry
     estimated scf accuracy    <       0.00913406 Ry

     iteration #  7     ecut=    50.00 Ry     beta= 0.01
     Davidson diagonalization with overlap
     ethr =  7.90E-05,  avg # of iterations =  1.0

     total cpu time spent up to now is       43.9 secs

     total energy              =     -15.74890943 Ry
     estimated scf accuracy    <       0.00273544 Ry

     iteration #  8     ecut=    50.00 Ry     beta= 0.01
     Davidson diagonalization with overlap
     ethr =  3.42E-05,  avg # of iterations =  1.0

     total cpu time spent up to now is       46.9 secs

     total energy              =     -15.74907784 Ry
     estimated scf accuracy    <       0.00025925 Ry

     iteration #  9     ecut=    50.00 Ry     beta= 0.01
     Davidson diagonalization with overlap
     ethr =  3.24E-06,  avg # of iterations =  1.3

     total cpu time spent up to now is       49.8 secs

     total energy              =     -15.74909335 Ry
     estimated scf accuracy    <       0.00020700 Ry

     iteration # 10     ecut=    50.00 Ry     beta= 0.01
     Davidson diagonalization with overlap
     ethr =  2.59E-06,  avg # of iterations =  1.0

     total cpu time spent up to now is       52.5 secs

     total energy              =     -15.74899523 Ry
     estimated scf accuracy    <       0.00025386 Ry

     iteration # 11     ecut=    50.00 Ry     beta= 0.01
     Davidson diagonalization with overlap
     ethr =  2.59E-06,  avg # of iterations =  2.0

     total cpu time spent up to now is       55.7 secs

     total energy              =     -15.74902570 Ry
     estimated scf accuracy    <       0.00001527 Ry

     iteration # 12     ecut=    50.00 Ry     beta= 0.01
     Davidson diagonalization with overlap
     ethr =  1.91E-07,  avg # of iterations =  1.5

     total cpu time spent up to now is       58.2 secs

     total energy              =     -15.74902642 Ry
     estimated scf accuracy    <       0.00001226 Ry

     iteration # 13     ecut=    50.00 Ry     beta= 0.01
     Davidson diagonalization with overlap
     ethr =  1.53E-07,  avg # of iterations =  1.0

     total cpu time spent up to now is       60.9 secs

     total energy              =     -15.74902393 Ry
     estimated scf accuracy    <       0.00000982 Ry

     iteration # 14     ecut=    50.00 Ry     beta= 0.01
     Davidson diagonalization with overlap
     ethr =  1.23E-07,  avg # of iterations =  1.0

     total cpu time spent up to now is       63.8 secs

     total energy              =     -15.74901212 Ry
     estimated scf accuracy    <       0.00000832 Ry

     iteration # 15     ecut=    50.00 Ry     beta= 0.01
     Davidson diagonalization with overlap
     ethr =  1.04E-07,  avg # of iterations =  2.0

     total cpu time spent up to now is       66.1 secs

     total energy              =     -15.74901344 Ry
     estimated scf accuracy    <       0.00000467 Ry

     iteration # 16     ecut=    50.00 Ry     beta= 0.01
     Davidson diagonalization with overlap
     ethr =  5.84E-08,  avg # of iterations =  1.9

     total cpu time spent up to now is       67.5 secs

     End of self-consistent calculation

          k = 0.0000 0.0000 0.0000 (  1471 PWs)   bands (ev):

    -6.1407   6.4795   6.4795   6.4795

          k =-0.1000 0.1000-0.1000 (  1516 PWs)   bands (ev):

    -5.9983   5.3707   6.2773   6.2773

          k =-0.2000 0.2000-0.2000 (  1528 PWs)   bands (ev):

    -5.5776   3.4350   5.8805   5.8805

          k =-0.3000 0.3000-0.3000 (  1540 PWs)   bands (ev):

    -4.9057   1.5290   5.5261   5.5261

          k =-0.4000 0.4000-0.4000 (  1537 PWs)   bands (ev):

    -4.0832  -0.0690   5.2997   5.2997

          k = 0.5000-0.5000 0.5000 (  1538 PWs)   bands (ev):

    -3.5763  -0.8388   5.2231   5.2231

          k = 0.0000 0.2000 0.0000 (  1515 PWs)   bands (ev):

    -5.9506   5.6378   5.8840   5.8840

          k =-0.1000 0.3000-0.1000 (  1529 PWs)   bands (ev):

    -5.6214   4.0456   5.4240   5.6520

          k =-0.2000 0.4000-0.2000 (  1535 PWs)   bands (ev):

    -5.0287   2.1679   5.0836   5.2088

          k =-0.3000 0.5000-0.3000 (  1551 PWs)   bands (ev):

    -4.2348   0.4690   4.7741   4.9254

          k = 0.6000-0.4000 0.6000 (  1535 PWs)   bands (ev):

    -3.5206  -0.6693   4.4614   4.9602

          k = 0.5000-0.3000 0.5000 (  1537 PWs)   bands (ev):

    -3.7089  -0.3938   4.3185   5.1735

          k = 0.4000-0.2000 0.4000 (  1546 PWs)   bands (ev):

    -4.5157   1.0045   4.3744   5.5300

          k = 0.3000-0.1000 0.3000 (  1537 PWs)   bands (ev):

    -5.2550   2.7802   4.6554   5.9591

          k = 0.2000 0.0000 0.2000 (  1528 PWs)   bands (ev):

    -5.7627   4.4869   5.2818   6.2996

          k = 0.0000 0.4000 0.0000 (  1531 PWs)   bands (ev):

    -5.3843   3.9467   4.9159   4.9159

          k =-0.1000 0.5000-0.1000 (  1541 PWs)   bands (ev):

    -4.8771   2.5963   4.4149   4.5423

          k =-0.2000 0.6000-0.2000 (  1544 PWs)   bands (ev):

    -4.1388   1.0293   3.7706   4.3703

          k = 0.7000-0.3000 0.7000 (  1549 PWs)   bands (ev):

    -3.3304  -0.2720   3.2305   4.4172

          k = 0.6000-0.2000 0.6000 (  1549 PWs)   bands (ev):

    -3.1572  -0.5057   2.9047   4.6729

          k = 0.5000-0.1000 0.5000 (  1542 PWs)   bands (ev):

    -3.8840   0.5842   2.8659   5.0984

          k = 0.4000 0.0000 0.4000 (  1538 PWs)   bands (ev):

    -4.6710   1.9298   3.3311   5.5993

          k = 0.0000 0.6000 0.0000 (  1551 PWs)   bands (ev):

    -4.4554   2.0519   4.1197   4.1197

          k =-0.1000 0.7000-0.1000 (  1543 PWs)   bands (ev):

    -3.7871   0.9647   3.4644   3.8989

          k = 0.8000-0.2000 0.8000 (  1549 PWs)   bands (ev):

    -2.9631  -0.1347   2.5857   3.9058

          k = 0.7000-0.1000 0.7000 (  1548 PWs)   bands (ev):

    -2.4911  -0.6677   1.9900   4.1377

          k = 0.6000-0.0000 0.6000 (  1542 PWs)   bands (ev):

    -3.0862  -0.0240   1.9601   4.5637

          k = 0.0000 0.8000 0.0000 (  1552 PWs)   bands (ev):

    -3.1894   0.1506   3.6185   3.6185

          k = 0.9000-0.1000 0.9000 (  1556 PWs)   bands (ev):

    -2.3933  -0.7600   2.9997   3.5660

          k = 0.8000 0.0000 0.8000 (  1554 PWs)   bands (ev):

    -1.8576  -1.2259   2.1585   3.7462

          k = 0.0000-1.0000 0.0000 (  1572 PWs)   bands (ev):

    -1.6305  -1.6305   3.4484   3.4484

          k =-0.2000 0.4000 0.0000 (  1541 PWs)   bands (ev):

    -5.2039   3.1044   4.3058   5.4872

          k =-0.3000 0.5000-0.1000 (  1541 PWs)   bands (ev):

    -4.5364   1.5851   3.7035   5.0826

          k = 0.6000-0.4000 0.8000 (  1543 PWs)   bands (ev):

    -3.7147   0.0974   3.4790   4.6996

          k = 0.5000-0.3000 0.7000 (  1540 PWs)   bands (ev):

    -3.2004  -0.6531   3.4242   4.5466

          k =-0.2000 0.6000 0.0000 (  1551 PWs)   bands (ev):

    -4.2909   1.6511   3.5240   4.2875

          k = 0.7000-0.3000 0.9000 (  1550 PWs)   bands (ev):

    -3.5020   0.4528   2.8802   3.9290

          k = 0.6000-0.2000 0.8000 (  1543 PWs)   bands (ev):

    -2.7795  -0.5044   2.4524   3.8683

          k = 0.5000-0.1000 0.7000 (  1540 PWs)   bands (ev):

    -3.0031  -0.2167   2.2813   4.1299

          k = 0.4000 0.0000 0.6000 (  1547 PWs)   bands (ev):

    -3.8143   0.8219   2.5919   4.6054

          k = 0.8000-0.2000 1.0000 (  1550 PWs)   bands (ev):

    -3.0575   0.0602   3.0755   3.4112

          k = 0.7000-0.1000 0.9000 (  1547 PWs)   bands (ev):

    -2.2444  -0.7811   2.3180   3.3187

          k = 0.6000 0.0000 0.8000 (  1548 PWs)   bands (ev):

    -2.2402  -0.7623   1.8690   3.6109

          k =-0.2000-1.0000 0.0000 (  1548 PWs)   bands (ev):

    -1.5678  -1.5678   3.0201   3.0201

          k = 0.6000-0.2000 1.0000 (  1545 PWs)   bands (ev):

    -2.6991  -0.2660   2.2629   3.3112

          k = 0.5000-0.1000 0.9000 (  1558 PWs)   bands (ev):

    -2.1332  -0.8212   2.0905   3.0402

          k =-0.4000-1.0000 0.0000 (  1556 PWs)   bands (ev):

    -1.4560  -1.4560   2.4695   2.4695

     highest occupied level (ev):     6.4795

!    total energy              =     -15.74901326 Ry
     estimated scf accuracy    <       0.00000082 Ry

     The total energy is the sum of the following terms:
     one-electron contribution =       5.11289813 Ry
     hartree contribution      =       1.07640688 Ry
     xc contribution           =      -4.89047744 Ry
     ewald contribution        =     -17.04784083 Ry

     convergence has been achieved in  16 iterations
     Writing meta-gga kinetic term

     Writing all to output data dir ./input_pw/Si/7/pwscf.save/
     Writing meta-gga kinetic term
 
     init_run     :      4.10s CPU      8.16s WALL (       1 calls)
     electrons    :     40.62s CPU     59.28s WALL (       1 calls)

     Called by init_run:
     wfcinit      :      3.97s CPU      7.81s WALL (       1 calls)
     potinit      :      0.04s CPU      0.12s WALL (       1 calls)
     hinit0       :      0.07s CPU      0.19s WALL (       1 calls)

     Called by electrons:
     c_bands      :     32.11s CPU     47.06s WALL (      17 calls)
     sum_band     :      7.71s CPU     11.20s WALL (      17 calls)
     v_of_rho     :      0.49s CPU      0.69s WALL (      17 calls)
     mix_rho      :      0.32s CPU      0.40s WALL (      17 calls)

     Called by c_bands:
     init_us_2    :      0.30s CPU      0.39s WALL (    1645 calls)
     init_us_2:cp :      0.29s CPU      0.38s WALL (    1645 calls)
     cegterg      :     31.75s CPU     46.52s WALL (     799 calls)

     Called by *egterg:
     cdiaghg      :      0.11s CPU      0.13s WALL (    1863 calls)
     h_psi        :     35.15s CPU     53.45s WALL (    1957 calls)
     g_psi        :      0.02s CPU      0.03s WALL (    1111 calls)

     Called by h_psi:
     h_psi:calbec :      0.12s CPU      0.20s WALL (    1957 calls)
     vloc_psi     :      8.70s CPU     13.10s WALL (    1957 calls)
     add_vuspsi   :      0.09s CPU      0.12s WALL (    1957 calls)
     h_psi_meta   :     26.20s CPU     39.96s WALL (    1957 calls)

     General routines
     calbec       :      0.11s CPU      0.20s WALL (    1957 calls)
     fft          :      0.10s CPU      0.16s WALL (     203 calls)
     ffts         :      0.14s CPU      0.20s WALL (     279 calls)
     fftw         :     37.17s CPU     56.29s WALL (   76376 calls)
     interpolate  :      0.00s CPU      0.00s WALL (      17 calls)
 
     Parallel routines
 
     PWSCF        :     44.76s CPU   1m 7.51s WALL

 
   This run was terminated on:  12:50:48  21Feb2023            

=------------------------------------------------------------------------------=
   JOB DONE.
=------------------------------------------------------------------------------=
