
     Program PWSCF v.7.0 starts on 29Mar2023 at 11:31: 6 

     This program is part of the open-source Quantum ESPRESSO suite
     for quantum simulation of materials; please cite
         "P. Giannozzi et al., J. Phys.:Condens. Matter 21 395502 (2009);
         "P. Giannozzi et al., J. Phys.:Condens. Matter 29 465901 (2017);
         "P. Giannozzi et al., J. Chem. Phys. 152 154105 (2020);
          URL http://www.quantum-espresso.org", 
     in publications or presentations arising from this work. More details at
     http://www.quantum-espresso.org/quote

     Parallel version (MPI), running on     1 processors

     MPI processes distributed on     1 nodes
     23648 MiB available memory on the printing compute node when the environment starts
 
     Waiting for input...
     Reading input from standard input
Warning: card &CELL ignored
Warning: card / ignored

     Current dimensions of program PWSCF are:
     Max number of different atomic species (ntypx) = 10
     Max number of k-points (npk) =  40000
     Max angular momentum in pseudopotentials (lmaxx) =  4
     file Si.SCAN.UPF2: wavefunction(s)  0D renormalized

     WARNING: the MGGA functional with ID    5 has been 
     read together with other dft terms, but it should 
     stand alone in order to work properly. The other 
     terms will be ignored.

     Subspace diagonalization in iterative solution of the eigenvalue problem:
     a serial algorithm will be used

 
     G-vector sticks info
     --------------------
     sticks:   dense  smooth     PW     G-vecs:    dense   smooth      PW
     Sum         721     721    223                12627    12627    2133
 
     Using Slab Decomposition
 


     bravais-lattice index     =            2
     lattice parameter (alat)  =      10.1971  a.u.
     unit-cell volume          =     265.0768 (a.u.)^3
     number of atoms/cell      =            2
     number of atomic types    =            1
     number of electrons       =         8.00
     number of Kohn-Sham states=            4
     kinetic-energy cutoff     =      50.0000  Ry
     charge density cutoff     =     200.0000  Ry
     scf convergence threshold =      1.0E-06
     mixing beta               =       0.0100
     number of iterations used =            8  local-TF  mixing
     Exchange-correlation= SLA  PW   SCAN SCAN
                           (   0   0   0   0   0 263 267)

     celldm(1)=  10.197113  celldm(2)=   0.000000  celldm(3)=   0.000000
     celldm(4)=   0.000000  celldm(5)=   0.000000  celldm(6)=   0.000000

     crystal axes: (cart. coord. in units of alat)
               a(1) = (  -0.500000   0.000000   0.500000 )  
               a(2) = (   0.000000   0.500000   0.500000 )  
               a(3) = (  -0.500000   0.500000   0.000000 )  

     reciprocal axes: (cart. coord. in units 2 pi/alat)
               b(1) = ( -1.000000 -1.000000  1.000000 )  
               b(2) = (  1.000000  1.000000  1.000000 )  
               b(3) = ( -1.000000  1.000000 -1.000000 )  


     PseudoPot. # 1 for Si read from file:
     ~/Documents/TA/PWDFT.jl/pseudopotentials/scan_upf/Si.SCAN.UPF2
     MD5 check sum: Not computed, couldn't open file
     Pseudo is Norm-conserving, Zval =  4.0
     Generated by new atomic code, or converted to UPF format
     Using radial grid of 1475 points,  2 beta functions with: 
                l(1) =   0
                l(2) =   1

     atomic species   valence    mass     pseudopotential
        Si             4.00    28.08550     Si( 1.00)

     48 Sym. Ops., with inversion, found (24 have fractional translation)



   Cartesian axes

     site n.     atom                  positions (alat units)
         1           Si  tau(   1) = (   0.0000000   0.0000000   0.0000000  )
         2           Si  tau(   2) = (   0.2500000   0.2500000   0.2500000  )

     number of k points=    47
                       cart. coord. in units 2pi/alat
        k(    1) = (   0.0000000   0.0000000   0.0000000), wk =   0.0020000
        k(    2) = (  -0.1000000   0.1000000  -0.1000000), wk =   0.0160000
        k(    3) = (  -0.2000000   0.2000000  -0.2000000), wk =   0.0160000
        k(    4) = (  -0.3000000   0.3000000  -0.3000000), wk =   0.0160000
        k(    5) = (  -0.4000000   0.4000000  -0.4000000), wk =   0.0160000
        k(    6) = (   0.5000000  -0.5000000   0.5000000), wk =   0.0080000
        k(    7) = (   0.0000000   0.2000000   0.0000000), wk =   0.0120000
        k(    8) = (  -0.1000000   0.3000000  -0.1000000), wk =   0.0480000
        k(    9) = (  -0.2000000   0.4000000  -0.2000000), wk =   0.0480000
        k(   10) = (  -0.3000000   0.5000000  -0.3000000), wk =   0.0480000
        k(   11) = (   0.6000000  -0.4000000   0.6000000), wk =   0.0480000
        k(   12) = (   0.5000000  -0.3000000   0.5000000), wk =   0.0480000
        k(   13) = (   0.4000000  -0.2000000   0.4000000), wk =   0.0480000
        k(   14) = (   0.3000000  -0.1000000   0.3000000), wk =   0.0480000
        k(   15) = (   0.2000000   0.0000000   0.2000000), wk =   0.0240000
        k(   16) = (   0.0000000   0.4000000   0.0000000), wk =   0.0120000
        k(   17) = (  -0.1000000   0.5000000  -0.1000000), wk =   0.0480000
        k(   18) = (  -0.2000000   0.6000000  -0.2000000), wk =   0.0480000
        k(   19) = (   0.7000000  -0.3000000   0.7000000), wk =   0.0480000
        k(   20) = (   0.6000000  -0.2000000   0.6000000), wk =   0.0480000
        k(   21) = (   0.5000000  -0.1000000   0.5000000), wk =   0.0480000
        k(   22) = (   0.4000000   0.0000000   0.4000000), wk =   0.0240000
        k(   23) = (   0.0000000   0.6000000   0.0000000), wk =   0.0120000
        k(   24) = (  -0.1000000   0.7000000  -0.1000000), wk =   0.0480000
        k(   25) = (   0.8000000  -0.2000000   0.8000000), wk =   0.0480000
        k(   26) = (   0.7000000  -0.1000000   0.7000000), wk =   0.0480000
        k(   27) = (   0.6000000  -0.0000000   0.6000000), wk =   0.0240000
        k(   28) = (   0.0000000   0.8000000   0.0000000), wk =   0.0120000
        k(   29) = (   0.9000000  -0.1000000   0.9000000), wk =   0.0480000
        k(   30) = (   0.8000000   0.0000000   0.8000000), wk =   0.0240000
        k(   31) = (   0.0000000  -1.0000000   0.0000000), wk =   0.0060000
        k(   32) = (  -0.2000000   0.4000000   0.0000000), wk =   0.0480000
        k(   33) = (  -0.3000000   0.5000000  -0.1000000), wk =   0.0960000
        k(   34) = (   0.6000000  -0.4000000   0.8000000), wk =   0.0960000
        k(   35) = (   0.5000000  -0.3000000   0.7000000), wk =   0.0480000
        k(   36) = (  -0.2000000   0.6000000   0.0000000), wk =   0.0480000
        k(   37) = (   0.7000000  -0.3000000   0.9000000), wk =   0.0960000
        k(   38) = (   0.6000000  -0.2000000   0.8000000), wk =   0.0960000
        k(   39) = (   0.5000000  -0.1000000   0.7000000), wk =   0.0960000
        k(   40) = (   0.4000000   0.0000000   0.6000000), wk =   0.0480000
        k(   41) = (   0.8000000  -0.2000000   1.0000000), wk =   0.0480000
        k(   42) = (   0.7000000  -0.1000000   0.9000000), wk =   0.0960000
        k(   43) = (   0.6000000   0.0000000   0.8000000), wk =   0.0480000
        k(   44) = (  -0.2000000  -1.0000000   0.0000000), wk =   0.0240000
        k(   45) = (   0.6000000  -0.2000000   1.0000000), wk =   0.0480000
        k(   46) = (   0.5000000  -0.1000000   0.9000000), wk =   0.0480000
        k(   47) = (  -0.4000000  -1.0000000   0.0000000), wk =   0.0240000

     Dense  grid:    12627 G-vectors     FFT dimensions: (  36,  36,  36)

     Estimated max dynamical RAM per process >      24.57 MB

     WARNING: libxc functional with ID  263 depends
      on external parameters: check the user_guide of
      QE if you need to modify them or to check their
      default values.

     Initial potential from superposition of free atoms

     starting charge       7.9990, renormalised to       8.0000
     Starting wfcs are   18 randomized atomic wfcs

     total cpu time spent up to now is        8.2 secs

     Self-consistent Calculation

     iteration #  1     ecut=    50.00 Ry     beta= 0.01
     Davidson diagonalization with overlap
     ethr =  1.00E-02,  avg # of iterations =  2.0

     Threshold (ethr) on eigenvalues was too large:
     Diagonalizing with lowered threshold

     Davidson diagonalization with overlap
     ethr =  7.71E-04,  avg # of iterations =  1.5

     total cpu time spent up to now is       20.0 secs

     total energy              =     -15.64477931 Ry
     estimated scf accuracy    <       0.06552929 Ry

     iteration #  2     ecut=    50.00 Ry     beta= 0.01
     Davidson diagonalization with overlap
     ethr =  8.19E-04,  avg # of iterations =  1.0

     total cpu time spent up to now is       25.4 secs

     total energy              =     -15.73954782 Ry
     estimated scf accuracy    <       0.06505844 Ry

     iteration #  3     ecut=    50.00 Ry     beta= 0.01
     Davidson diagonalization with overlap
     ethr =  8.13E-04,  avg # of iterations =  1.8

     total cpu time spent up to now is       31.3 secs

     total energy              =     -15.74380882 Ry
     estimated scf accuracy    <       0.03777187 Ry

     iteration #  4     ecut=    50.00 Ry     beta= 0.01
     Davidson diagonalization with overlap
     ethr =  4.72E-04,  avg # of iterations =  1.4

     total cpu time spent up to now is       36.4 secs

     total energy              =     -15.75087472 Ry
     estimated scf accuracy    <       0.00597512 Ry

     iteration #  5     ecut=    50.00 Ry     beta= 0.01
     Davidson diagonalization with overlap
     ethr =  7.47E-05,  avg # of iterations =  1.4

     total cpu time spent up to now is       39.9 secs

     total energy              =     -15.75149282 Ry
     estimated scf accuracy    <       0.00773322 Ry

     iteration #  6     ecut=    50.00 Ry     beta= 0.01
     Davidson diagonalization with overlap
     ethr =  7.47E-05,  avg # of iterations =  1.0

     total cpu time spent up to now is       43.1 secs

     total energy              =     -15.75045181 Ry
     estimated scf accuracy    <       0.00868068 Ry

     iteration #  7     ecut=    50.00 Ry     beta= 0.01
     Davidson diagonalization with overlap
     ethr =  7.47E-05,  avg # of iterations =  1.0

     total cpu time spent up to now is       45.9 secs

     total energy              =     -15.74997108 Ry
     estimated scf accuracy    <       0.00272266 Ry

     iteration #  8     ecut=    50.00 Ry     beta= 0.01
     Davidson diagonalization with overlap
     ethr =  3.40E-05,  avg # of iterations =  1.0

     total cpu time spent up to now is       48.9 secs

     total energy              =     -15.75013376 Ry
     estimated scf accuracy    <       0.00026405 Ry

     iteration #  9     ecut=    50.00 Ry     beta= 0.01
     Davidson diagonalization with overlap
     ethr =  3.30E-06,  avg # of iterations =  1.1

     total cpu time spent up to now is       51.9 secs

     total energy              =     -15.75014372 Ry
     estimated scf accuracy    <       0.00021736 Ry

     iteration # 10     ecut=    50.00 Ry     beta= 0.01
     Davidson diagonalization with overlap
     ethr =  2.72E-06,  avg # of iterations =  1.0

     total cpu time spent up to now is       54.9 secs

     total energy              =     -15.75005558 Ry
     estimated scf accuracy    <       0.00023891 Ry

     iteration # 11     ecut=    50.00 Ry     beta= 0.01
     Davidson diagonalization with overlap
     ethr =  2.72E-06,  avg # of iterations =  2.0

     total cpu time spent up to now is       58.4 secs

     total energy              =     -15.75007996 Ry
     estimated scf accuracy    <       0.00002686 Ry

     iteration # 12     ecut=    50.00 Ry     beta= 0.01
     Davidson diagonalization with overlap
     ethr =  3.36E-07,  avg # of iterations =  1.1

     total cpu time spent up to now is       61.2 secs

     total energy              =     -15.75008025 Ry
     estimated scf accuracy    <       0.00001748 Ry

     iteration # 13     ecut=    50.00 Ry     beta= 0.01
     Davidson diagonalization with overlap
     ethr =  2.18E-07,  avg # of iterations =  1.0

     total cpu time spent up to now is       63.8 secs

     total energy              =     -15.75007264 Ry
     estimated scf accuracy    <       0.00001350 Ry

     iteration # 14     ecut=    50.00 Ry     beta= 0.01
     Davidson diagonalization with overlap
     ethr =  1.69E-07,  avg # of iterations =  1.0

     total cpu time spent up to now is       66.8 secs

     total energy              =     -15.75006704 Ry
     estimated scf accuracy    <       0.00000924 Ry

     iteration # 15     ecut=    50.00 Ry     beta= 0.01
     Davidson diagonalization with overlap
     ethr =  1.15E-07,  avg # of iterations =  2.0

     total cpu time spent up to now is       70.1 secs

     End of self-consistent calculation

          k = 0.0000 0.0000 0.0000 (  1591 PWs)   bands (ev):

    -6.2312   6.2106   6.2106   6.2106

          k =-0.1000 0.1000-0.1000 (  1570 PWs)   bands (ev):

    -6.0918   5.1092   6.0134   6.0134

          k =-0.2000 0.2000-0.2000 (  1576 PWs)   bands (ev):

    -5.6800   3.2001   5.6247   5.6247

          k =-0.3000 0.3000-0.3000 (  1585 PWs)   bands (ev):

    -5.0234   1.3276   5.2758   5.2758

          k =-0.4000 0.4000-0.4000 (  1586 PWs)   bands (ev):

    -4.2230  -0.2360   5.0522   5.0522

          k = 0.5000-0.5000 0.5000 (  1568 PWs)   bands (ev):

    -3.7345  -0.9832   4.9764   4.9764

          k = 0.0000 0.2000 0.0000 (  1571 PWs)   bands (ev):

    -6.0450   5.3528   5.6324   5.6324

          k =-0.1000 0.3000-0.1000 (  1569 PWs)   bands (ev):

    -5.7228   3.7920   5.1825   5.3927

          k =-0.2000 0.4000-0.2000 (  1584 PWs)   bands (ev):

    -5.1432   1.9488   4.8476   4.9563

          k =-0.3000 0.5000-0.3000 (  1590 PWs)   bands (ev):

    -4.3690   0.2852   4.5297   4.6903

          k = 0.6000-0.4000 0.6000 (  1571 PWs)   bands (ev):

    -3.6782  -0.8223   4.2244   4.7221

          k = 0.5000-0.3000 0.5000 (  1579 PWs)   bands (ev):

    -3.8594  -0.5553   4.0871   4.9293

          k = 0.4000-0.2000 0.4000 (  1580 PWs)   bands (ev):

    -4.6426   0.8089   4.1461   5.2774

          k = 0.3000-0.1000 0.3000 (  1579 PWs)   bands (ev):

    -5.3644   2.5486   4.4271   5.6974

          k = 0.2000 0.0000 0.2000 (  1560 PWs)   bands (ev):

    -5.8611   4.2255   5.0466   6.0315

          k = 0.0000 0.4000 0.0000 (  1571 PWs)   bands (ev):

    -5.4905   3.6642   4.6865   4.6865

          k =-0.1000 0.5000-0.1000 (  1581 PWs)   bands (ev):

    -4.9942   2.3443   4.1887   4.3199

          k =-0.2000 0.6000-0.2000 (  1590 PWs)   bands (ev):

    -4.2732   0.8150   3.5540   4.1501

          k = 0.7000-0.3000 0.7000 (  1583 PWs)   bands (ev):

    -3.4881  -0.4509   3.0246   4.1943

          k = 0.6000-0.2000 0.6000 (  1572 PWs)   bands (ev):

    -3.3218  -0.6762   2.7082   4.4429

          k = 0.5000-0.1000 0.5000 (  1577 PWs)   bands (ev):

    -4.0259   0.3815   2.6773   4.8576

          k = 0.4000 0.0000 0.4000 (  1580 PWs)   bands (ev):

    -4.7935   1.6956   3.1410   5.3459

          k = 0.0000 0.6000 0.0000 (  1580 PWs)   bands (ev):

    -4.5811   1.7941   3.9063   3.9063

          k =-0.1000 0.7000-0.1000 (  1589 PWs)   bands (ev):

    -3.9276   0.7276   3.2688   3.6894

          k = 0.8000-0.2000 0.8000 (  1587 PWs)   bands (ev):

    -3.1246  -0.3461   2.4136   3.6952

          k = 0.7000-0.1000 0.7000 (  1579 PWs)   bands (ev):

    -2.6702  -0.8606   1.8340   3.9212

          k = 0.6000-0.0000 0.6000 (  1578 PWs)   bands (ev):

    -3.2485  -0.2325   1.8066   4.3368

          k = 0.0000 0.8000 0.0000 (  1596 PWs)   bands (ev):

    -3.3420  -0.0721   3.4147   3.4147

          k = 0.9000-0.1000 0.9000 (  1596 PWs)   bands (ev):

    -2.5640  -0.9652   2.8168   3.3629

          k = 0.8000 0.0000 0.8000 (  1596 PWs)   bands (ev):

    -2.0483  -1.4174   2.0037   3.5389

          k = 0.0000-1.0000 0.0000 (  1588 PWs)   bands (ev):

    -1.8162  -1.8162   3.2479   3.2479

          k =-0.2000 0.4000 0.0000 (  1583 PWs)   bands (ev):

    -5.3142   2.8514   4.0927   5.2349

          k =-0.3000 0.5000-0.1000 (  1582 PWs)   bands (ev):

    -4.6618   1.3642   3.4950   4.8419

          k = 0.6000-0.4000 0.8000 (  1581 PWs)   bands (ev):

    -3.8619  -0.0866   3.2668   4.4707

          k = 0.5000-0.3000 0.7000 (  1578 PWs)   bands (ev):

    -3.3656  -0.8139   3.2098   4.3228

          k =-0.2000 0.6000 0.0000 (  1587 PWs)   bands (ev):

    -4.4209   1.4065   3.3277   4.0699

          k = 0.7000-0.3000 0.9000 (  1584 PWs)   bands (ev):

    -3.6511   0.2350   2.6948   3.7236

          k = 0.6000-0.2000 0.8000 (  1585 PWs)   bands (ev):

    -2.9512  -0.6926   2.2741   3.6645

          k = 0.5000-0.1000 0.7000 (  1578 PWs)   bands (ev):

    -3.1680  -0.4139   2.1110   3.9182

          k = 0.4000 0.0000 0.6000 (  1580 PWs)   bands (ev):

    -3.9568   0.5983   2.4198   4.3799

          k = 0.8000-0.2000 1.0000 (  1587 PWs)   bands (ev):

    -3.2144  -0.1624   2.8895   3.2194

          k = 0.7000-0.1000 0.9000 (  1589 PWs)   bands (ev):

    -2.4232  -0.9865   2.1575   3.1286

          k = 0.6000 0.0000 0.8000 (  1590 PWs)   bands (ev):

    -2.4241  -0.9636   1.7221   3.4129

          k =-0.2000-1.0000 0.0000 (  1594 PWs)   bands (ev):

    -1.7573  -1.7573   2.8367   2.8367

          k = 0.6000-0.2000 1.0000 (  1586 PWs)   bands (ev):

    -2.8682  -0.4813   2.1018   3.1257

          k = 0.5000-0.1000 0.9000 (  1588 PWs)   bands (ev):

    -2.3190  -1.0238   1.9350   2.8626

          k =-0.4000-1.0000 0.0000 (  1590 PWs)   bands (ev):

    -1.6529  -1.6529   2.3070   2.3070

     highest occupied level (ev):     6.2106

!    total energy              =     -15.75006863 Ry
     estimated scf accuracy    <       0.00000048 Ry

     The total energy is the sum of the following terms:
     one-electron contribution =       4.91963787 Ry
     hartree contribution      =       1.09688557 Ry
     xc contribution           =      -4.86204939 Ry
     ewald contribution        =     -16.90454268 Ry

     convergence has been achieved in  15 iterations
     Writing meta-gga kinetic term

     Writing all to output data dir ./input_pw/Si/7/pwscf.save/
     Writing meta-gga kinetic term
 
     init_run     :      4.11s CPU      8.11s WALL (       1 calls)
     electrons    :     40.90s CPU     61.95s WALL (       1 calls)

     Called by init_run:
     wfcinit      :      4.00s CPU      7.82s WALL (       1 calls)
     potinit      :      0.03s CPU      0.08s WALL (       1 calls)
     hinit0       :      0.07s CPU      0.16s WALL (       1 calls)

     Called by electrons:
     c_bands      :     32.18s CPU     48.79s WALL (      16 calls)
     sum_band     :      7.92s CPU     11.93s WALL (      16 calls)
     v_of_rho     :      0.47s CPU      0.82s WALL (      16 calls)
     mix_rho      :      0.32s CPU      0.45s WALL (      16 calls)

     Called by c_bands:
     init_us_2    :      0.31s CPU      0.45s WALL (    1551 calls)
     init_us_2:cp :      0.30s CPU      0.44s WALL (    1551 calls)
     cegterg      :     31.81s CPU     48.19s WALL (     752 calls)

     Called by *egterg:
     cdiaghg      :      0.11s CPU      0.16s WALL (    1705 calls)
     h_psi        :     35.23s CPU     55.17s WALL (    1799 calls)
     g_psi        :      0.02s CPU      0.04s WALL (    1000 calls)

     Called by h_psi:
     h_psi:calbec :      0.12s CPU      0.21s WALL (    1799 calls)
     vloc_psi     :      8.75s CPU     13.81s WALL (    1799 calls)
     add_vuspsi   :      0.09s CPU      0.16s WALL (    1799 calls)
     h_psi_meta   :     26.22s CPU     40.88s WALL (    1799 calls)

     General routines
     calbec       :      0.11s CPU      0.21s WALL (    1799 calls)
     fft          :      0.09s CPU      0.18s WALL (     191 calls)
     ffts         :      0.14s CPU      0.20s WALL (     260 calls)
     fftw         :     37.14s CPU     57.87s WALL (   71456 calls)
     interpolate  :      0.00s CPU      0.00s WALL (      16 calls)
 
     Parallel routines
 
     PWSCF        :     45.06s CPU   1m10.14s WALL

 
   This run was terminated on:  11:32:16  29Mar2023            

=------------------------------------------------------------------------------=
   JOB DONE.
=------------------------------------------------------------------------------=
