
     Program PWSCF v.7.0 starts on  7Jul2023 at 14:24:18 

     This program is part of the open-source Quantum ESPRESSO suite
     for quantum simulation of materials; please cite
         "P. Giannozzi et al., J. Phys.:Condens. Matter 21 395502 (2009);
         "P. Giannozzi et al., J. Phys.:Condens. Matter 29 465901 (2017);
         "P. Giannozzi et al., J. Chem. Phys. 152 154105 (2020);
          URL http://www.quantum-espresso.org", 
     in publications or presentations arising from this work. More details at
     http://www.quantum-espresso.org/quote

     Parallel version (MPI), running on     1 processors

     MPI processes distributed on     1 nodes
     26867 MiB available memory on the printing compute node when the environment starts
 
     Waiting for input...
     Reading input from standard input
Warning: card &CELL ignored
Warning: card / ignored

     Current dimensions of program PWSCF are:
     Max number of different atomic species (ntypx) = 10
     Max number of k-points (npk) =  40000
     Max angular momentum in pseudopotentials (lmaxx) =  4
     file Cl.SCAN.UPF2: wavefunction(s)  0D renormalized

     WARNING: the MGGA functional with ID    5 has been 
     read together with other dft terms, but it should 
     stand alone in order to work properly. The other 
     terms will be ignored.

     WARNING: the MGGA functional with ID    5 has been 
     read together with other dft terms, but it should 
     stand alone in order to work properly. The other 
     terms will be ignored.

     Subspace diagonalization in iterative solution of the eigenvalue problem:
     a serial algorithm will be used

 
     G-vector sticks info
     --------------------
     sticks:   dense  smooth     PW     G-vecs:    dense   smooth      PW
     Sum         925     925    283                18197    18197    3071
 
     Using Slab Decomposition
 


     bravais-lattice index     =            2
     lattice parameter (alat)  =      11.5182  a.u.
     unit-cell volume          =     382.0311 (a.u.)^3
     number of atoms/cell      =            2
     number of atomic types    =            2
     number of electrons       =         8.00
     number of Kohn-Sham states=            4
     kinetic-energy cutoff     =      50.0000  Ry
     charge density cutoff     =     200.0000  Ry
     scf convergence threshold =      2.0E-05
     mixing beta               =       0.2000
     number of iterations used =            8  local-TF  mixing
     Exchange-correlation= SLA  PW   SCAN SCAN
                           (   0   0   0   0   0 263 267)

     celldm(1)=  11.518243  celldm(2)=   0.000000  celldm(3)=   0.000000
     celldm(4)=   0.000000  celldm(5)=   0.000000  celldm(6)=   0.000000

     crystal axes: (cart. coord. in units of alat)
               a(1) = (  -0.500000   0.000000   0.500000 )  
               a(2) = (   0.000000   0.500000   0.500000 )  
               a(3) = (  -0.500000   0.500000   0.000000 )  

     reciprocal axes: (cart. coord. in units 2 pi/alat)
               b(1) = ( -1.000000 -1.000000  1.000000 )  
               b(2) = (  1.000000  1.000000  1.000000 )  
               b(3) = ( -1.000000  1.000000 -1.000000 )  


     PseudoPot. # 1 for Li read from file:
     ~/Documents/TA/PWDFT.jl/pseudopotentials/scan_upf/Li.SCAN.UPF2
     MD5 check sum: Not computed, couldn't open file
     Pseudo is Norm-conserving, Zval =  1.0
     Generated by new atomic code, or converted to UPF format
     Using radial grid of 1321 points,  1 beta functions with: 
                l(1) =   0

     PseudoPot. # 2 for Cl read from file:
     ~/Documents/TA/PWDFT.jl/pseudopotentials/scan_upf/Cl.SCAN.UPF2
     MD5 check sum: Not computed, couldn't open file
     Pseudo is Norm-conserving, Zval =  7.0
     Generated by new atomic code, or converted to UPF format
     Using radial grid of 1493 points,  2 beta functions with: 
                l(1) =   0
                l(2) =   1

     atomic species   valence    mass     pseudopotential
        Li             1.00     6.94100     Li( 1.00)
        Cl             7.00    35.45300     Cl( 1.00)

     48 Sym. Ops., with inversion, found



   Cartesian axes

     site n.     atom                  positions (alat units)
         1           Li  tau(   1) = (   0.0000000   0.0000000   0.0000000  )
         2           Cl  tau(   2) = (   0.5000000   0.5000000   0.5000000  )

     number of k points=    47
                       cart. coord. in units 2pi/alat
        k(    1) = (   0.0000000   0.0000000   0.0000000), wk =   0.0020000
        k(    2) = (  -0.1000000   0.1000000  -0.1000000), wk =   0.0160000
        k(    3) = (  -0.2000000   0.2000000  -0.2000000), wk =   0.0160000
        k(    4) = (  -0.3000000   0.3000000  -0.3000000), wk =   0.0160000
        k(    5) = (  -0.4000000   0.4000000  -0.4000000), wk =   0.0160000
        k(    6) = (   0.5000000  -0.5000000   0.5000000), wk =   0.0080000
        k(    7) = (   0.0000000   0.2000000   0.0000000), wk =   0.0120000
        k(    8) = (  -0.1000000   0.3000000  -0.1000000), wk =   0.0480000
        k(    9) = (  -0.2000000   0.4000000  -0.2000000), wk =   0.0480000
        k(   10) = (  -0.3000000   0.5000000  -0.3000000), wk =   0.0480000
        k(   11) = (   0.6000000  -0.4000000   0.6000000), wk =   0.0480000
        k(   12) = (   0.5000000  -0.3000000   0.5000000), wk =   0.0480000
        k(   13) = (   0.4000000  -0.2000000   0.4000000), wk =   0.0480000
        k(   14) = (   0.3000000  -0.1000000   0.3000000), wk =   0.0480000
        k(   15) = (   0.2000000   0.0000000   0.2000000), wk =   0.0240000
        k(   16) = (   0.0000000   0.4000000   0.0000000), wk =   0.0120000
        k(   17) = (  -0.1000000   0.5000000  -0.1000000), wk =   0.0480000
        k(   18) = (  -0.2000000   0.6000000  -0.2000000), wk =   0.0480000
        k(   19) = (   0.7000000  -0.3000000   0.7000000), wk =   0.0480000
        k(   20) = (   0.6000000  -0.2000000   0.6000000), wk =   0.0480000
        k(   21) = (   0.5000000  -0.1000000   0.5000000), wk =   0.0480000
        k(   22) = (   0.4000000   0.0000000   0.4000000), wk =   0.0240000
        k(   23) = (   0.0000000   0.6000000   0.0000000), wk =   0.0120000
        k(   24) = (  -0.1000000   0.7000000  -0.1000000), wk =   0.0480000
        k(   25) = (   0.8000000  -0.2000000   0.8000000), wk =   0.0480000
        k(   26) = (   0.7000000  -0.1000000   0.7000000), wk =   0.0480000
        k(   27) = (   0.6000000  -0.0000000   0.6000000), wk =   0.0240000
        k(   28) = (   0.0000000   0.8000000   0.0000000), wk =   0.0120000
        k(   29) = (   0.9000000  -0.1000000   0.9000000), wk =   0.0480000
        k(   30) = (   0.8000000   0.0000000   0.8000000), wk =   0.0240000
        k(   31) = (   0.0000000  -1.0000000   0.0000000), wk =   0.0060000
        k(   32) = (  -0.2000000   0.4000000   0.0000000), wk =   0.0480000
        k(   33) = (  -0.3000000   0.5000000  -0.1000000), wk =   0.0960000
        k(   34) = (   0.6000000  -0.4000000   0.8000000), wk =   0.0960000
        k(   35) = (   0.5000000  -0.3000000   0.7000000), wk =   0.0480000
        k(   36) = (  -0.2000000   0.6000000   0.0000000), wk =   0.0480000
        k(   37) = (   0.7000000  -0.3000000   0.9000000), wk =   0.0960000
        k(   38) = (   0.6000000  -0.2000000   0.8000000), wk =   0.0960000
        k(   39) = (   0.5000000  -0.1000000   0.7000000), wk =   0.0960000
        k(   40) = (   0.4000000   0.0000000   0.6000000), wk =   0.0480000
        k(   41) = (   0.8000000  -0.2000000   1.0000000), wk =   0.0480000
        k(   42) = (   0.7000000  -0.1000000   0.9000000), wk =   0.0960000
        k(   43) = (   0.6000000   0.0000000   0.8000000), wk =   0.0480000
        k(   44) = (  -0.2000000  -1.0000000   0.0000000), wk =   0.0240000
        k(   45) = (   0.6000000  -0.2000000   1.0000000), wk =   0.0480000
        k(   46) = (   0.5000000  -0.1000000   0.9000000), wk =   0.0480000
        k(   47) = (  -0.4000000  -1.0000000   0.0000000), wk =   0.0240000

     Dense  grid:    18197 G-vectors     FFT dimensions: (  40,  40,  40)

     Estimated max dynamical RAM per process >      35.55 MB

     WARNING: libxc functional with ID  263 depends
      on external parameters: check the user_guide of
      QE if you need to modify them or to check their
      default values.

     Initial potential from superposition of free atoms

     starting charge       7.9953, renormalised to       8.0000
     Starting wfcs are   13 randomized atomic wfcs

     total cpu time spent up to now is        8.0 secs

     Self-consistent Calculation

     iteration #  1     ecut=    50.00 Ry     beta= 0.20
     Davidson diagonalization with overlap
     ethr =  1.00E-02,  avg # of iterations =  1.0

     total cpu time spent up to now is       14.0 secs

     total energy              =     -30.66802359 Ry
     estimated scf accuracy    <       0.37730346 Ry

     iteration #  2     ecut=    50.00 Ry     beta= 0.20
     Davidson diagonalization with overlap
     ethr =  4.72E-03,  avg # of iterations =  1.0

     total cpu time spent up to now is       19.2 secs

     total energy              =     -30.69999778 Ry
     estimated scf accuracy    <       0.24937457 Ry

     iteration #  3     ecut=    50.00 Ry     beta= 0.20
     Davidson diagonalization with overlap
     ethr =  3.12E-03,  avg # of iterations =  1.0

     total cpu time spent up to now is       23.3 secs

     total energy              =     -30.70319929 Ry
     estimated scf accuracy    <       0.00617484 Ry

     iteration #  4     ecut=    50.00 Ry     beta= 0.20
     Davidson diagonalization with overlap
     ethr =  7.72E-05,  avg # of iterations =  1.8

     total cpu time spent up to now is       26.9 secs

     total energy              =     -30.70385472 Ry
     estimated scf accuracy    <       0.00250776 Ry

     iteration #  5     ecut=    50.00 Ry     beta= 0.20
     Davidson diagonalization with overlap
     ethr =  3.13E-05,  avg # of iterations =  2.0

     total cpu time spent up to now is       30.9 secs

     total energy              =     -30.70452215 Ry
     estimated scf accuracy    <       0.00048792 Ry

     iteration #  6     ecut=    50.00 Ry     beta= 0.20
     Davidson diagonalization with overlap
     ethr =  6.10E-06,  avg # of iterations =  2.0

     total cpu time spent up to now is       34.9 secs

     total energy              =     -30.70459724 Ry
     estimated scf accuracy    <       0.00018944 Ry

     iteration #  7     ecut=    50.00 Ry     beta= 0.20
     Davidson diagonalization with overlap
     ethr =  2.37E-06,  avg # of iterations =  1.0

     total cpu time spent up to now is       37.0 secs

     total energy              =     -30.70452284 Ry
     estimated scf accuracy    <       0.00014714 Ry

     iteration #  8     ecut=    50.00 Ry     beta= 0.20
     Davidson diagonalization with overlap
     ethr =  1.84E-06,  avg # of iterations =  2.0

     total cpu time spent up to now is       39.0 secs

     total energy              =     -30.70457838 Ry
     estimated scf accuracy    <       0.00009502 Ry

     iteration #  9     ecut=    50.00 Ry     beta= 0.20
     Davidson diagonalization with overlap
     ethr =  1.19E-06,  avg # of iterations =  1.0

     total cpu time spent up to now is       40.5 secs

     total energy              =     -30.70458041 Ry
     estimated scf accuracy    <       0.00002604 Ry

     iteration # 10     ecut=    50.00 Ry     beta= 0.20
     Davidson diagonalization with overlap
     ethr =  3.25E-07,  avg # of iterations =  1.0

     total cpu time spent up to now is       41.9 secs

     End of self-consistent calculation

          k = 0.0000 0.0000 0.0000 (  2277 PWs)   bands (ev):

   -14.7750  -2.1157  -2.1157  -2.1157

          k =-0.1000 0.1000-0.1000 (  2265 PWs)   bands (ev):

   -14.7607  -2.2705  -2.1265  -2.1265

          k =-0.2000 0.2000-0.2000 (  2253 PWs)   bands (ev):

   -14.7230  -2.6314  -2.1544  -2.1544

          k =-0.3000 0.3000-0.3000 (  2271 PWs)   bands (ev):

   -14.6760  -3.0164  -2.1878  -2.1878

          k =-0.4000 0.4000-0.4000 (  2277 PWs)   bands (ev):

   -14.6371  -3.2943  -2.2142  -2.2142

          k = 0.5000-0.5000 0.5000 (  2276 PWs)   bands (ev):

   -14.6220  -3.3944  -2.2241  -2.2241

          k = 0.0000 0.2000 0.0000 (  2265 PWs)   bands (ev):

   -14.7559  -2.2625  -2.1608  -2.1608

          k =-0.1000 0.3000-0.1000 (  2263 PWs)   bands (ev):

   -14.7261  -2.5348  -2.2074  -2.1812

          k =-0.2000 0.4000-0.2000 (  2271 PWs)   bands (ev):

   -14.6820  -2.8983  -2.2479  -2.2185

          k =-0.3000 0.5000-0.3000 (  2278 PWs)   bands (ev):

   -14.6401  -3.1977  -2.2725  -2.2673

          k = 0.6000-0.4000 0.6000 (  2289 PWs)   bands (ev):

   -14.6171  -3.3482  -2.3218  -2.2589

          k = 0.5000-0.3000 0.5000 (  2283 PWs)   bands (ev):

   -14.6221  -3.3146  -2.3469  -2.2260

          k = 0.4000-0.2000 0.4000 (  2281 PWs)   bands (ev):

   -14.6532  -3.1063  -2.3366  -2.1806

          k = 0.3000-0.1000 0.3000 (  2264 PWs)   bands (ev):

   -14.6978  -2.7801  -2.2897  -2.1393

          k = 0.2000 0.0000 0.2000 (  2269 PWs)   bands (ev):

   -14.7387  -2.4518  -2.2102  -2.1184

          k = 0.0000 0.4000 0.0000 (  2269 PWs)   bands (ev):

   -14.7056  -2.6045  -2.2765  -2.2765

          k =-0.1000 0.5000-0.1000 (  2284 PWs)   bands (ev):

   -14.6691  -2.8547  -2.3386  -2.3350

          k =-0.2000 0.6000-0.2000 (  2288 PWs)   bands (ev):

   -14.6300  -3.1004  -2.4299  -2.3618

          k = 0.7000-0.3000 0.7000 (  2295 PWs)   bands (ev):

   -14.6037  -3.2405  -2.5372  -2.3476

          k = 0.6000-0.2000 0.6000 (  2288 PWs)   bands (ev):

   -14.6006  -3.2407  -2.6132  -2.2976

          k = 0.5000-0.1000 0.5000 (  2285 PWs)   bands (ev):

   -14.6220  -3.1195  -2.6092  -2.2293

          k = 0.4000 0.0000 0.4000 (  2269 PWs)   bands (ev):

   -14.6592  -2.9460  -2.4883  -2.1684

          k = 0.0000 0.6000 0.0000 (  2277 PWs)   bands (ev):

   -14.6417  -2.9722  -2.4150  -2.4150

          k =-0.1000 0.7000-0.1000 (  2284 PWs)   bands (ev):

   -14.6103  -3.1288  -2.5080  -2.4590

          k = 0.8000-0.2000 0.8000 (  2295 PWs)   bands (ev):

   -14.5870  -3.1952  -2.6683  -2.4525

          k = 0.7000-0.1000 0.7000 (  2285 PWs)   bands (ev):

   -14.5807  -3.1300  -2.8510  -2.3976

          k = 0.6000-0.0000 0.6000 (  2301 PWs)   bands (ev):

   -14.5944  -3.0577  -2.8763  -2.3128

          k = 0.0000 0.8000 0.0000 (  2289 PWs)   bands (ev):

   -14.5885  -3.2415  -2.5235  -2.5235

          k = 0.9000-0.1000 0.9000 (  2281 PWs)   bands (ev):

   -14.5731  -3.2858  -2.6126  -2.5339

          k = 0.8000 0.0000 0.8000 (  2283 PWs)   bands (ev):

   -14.5701  -3.2100  -2.7798  -2.4868

          k = 0.0000-1.0000 0.0000 (  2272 PWs)   bands (ev):

   -14.5677  -3.3397  -2.5642  -2.5642

          k =-0.2000 0.4000 0.0000 (  2271 PWs)   bands (ev):

   -14.6929  -2.7451  -2.3364  -2.1953

          k =-0.3000 0.5000-0.1000 (  2288 PWs)   bands (ev):

   -14.6513  -3.0065  -2.4424  -2.2329

          k = 0.6000-0.4000 0.8000 (  2281 PWs)   bands (ev):

   -14.6169  -3.2120  -2.4963  -2.2817

          k = 0.5000-0.3000 0.7000 (  2284 PWs)   bands (ev):

   -14.6037  -3.2884  -2.5110  -2.3047

          k =-0.2000 0.6000 0.0000 (  2285 PWs)   bands (ev):

   -14.6349  -3.0177  -2.4868  -2.3579

          k = 0.7000-0.3000 0.9000 (  2281 PWs)   bands (ev):

   -14.6034  -3.1409  -2.6182  -2.4004

          k = 0.6000-0.2000 0.8000 (  2271 PWs)   bands (ev):

   -14.5869  -3.1752  -2.7325  -2.4056

          k = 0.5000-0.1000 0.7000 (  2284 PWs)   bands (ev):

   -14.5922  -3.1300  -2.7778  -2.3574

          k = 0.4000 0.0000 0.6000 (  2287 PWs)   bands (ev):

   -14.6169  -3.0740  -2.6672  -2.2857

          k = 0.8000-0.2000 1.0000 (  2284 PWs)   bands (ev):

   -14.5867  -3.2065  -2.6042  -2.5070

          k = 0.7000-0.1000 0.9000 (  2279 PWs)   bands (ev):

   -14.5733  -3.1791  -2.7634  -2.5123

          k = 0.6000 0.0000 0.8000 (  2281 PWs)   bands (ev):

   -14.5755  -3.0358  -2.9551  -2.4504

          k =-0.2000-1.0000 0.0000 (  2264 PWs)   bands (ev):

   -14.5678  -3.2739  -2.6481  -2.5659

          k = 0.6000-0.2000 1.0000 (  2286 PWs)   bands (ev):

   -14.5819  -3.1062  -2.8053  -2.4706

          k = 0.5000-0.1000 0.9000 (  2270 PWs)   bands (ev):

   -14.5734  -3.0448  -2.9148  -2.5088

          k =-0.4000-1.0000 0.0000 (  2272 PWs)   bands (ev):

   -14.5681  -3.0946  -2.8566  -2.5686

     highest occupied level (ev):    -2.1157

!    total energy              =     -30.70457285 Ry
     estimated scf accuracy    <       0.00001434 Ry

     The total energy is the sum of the following terms:
     one-electron contribution =     -11.59970235 Ry
     hartree contribution      =       8.35956614 Ry
     xc contribution           =      -6.23729602 Ry
     ewald contribution        =     -21.22714061 Ry

     convergence has been achieved in  10 iterations
     Writing meta-gga kinetic term

     Writing all to output data dir ./input_pw/LiCl/13/pwscf.save/
     Writing meta-gga kinetic term
 
     init_run     :      3.83s CPU      7.90s WALL (       1 calls)
     electrons    :     27.40s CPU     33.95s WALL (       1 calls)

     Called by init_run:
     wfcinit      :      3.67s CPU      7.58s WALL (       1 calls)
     potinit      :      0.05s CPU      0.16s WALL (       1 calls)
     hinit0       :      0.09s CPU      0.12s WALL (       1 calls)

     Called by electrons:
     c_bands      :     21.77s CPU     27.27s WALL (      10 calls)
     sum_band     :      4.98s CPU      5.84s WALL (      10 calls)
     v_of_rho     :      0.38s CPU      0.58s WALL (      11 calls)
     mix_rho      :      0.30s CPU      0.39s WALL (      10 calls)

     Called by c_bands:
     init_us_2    :      0.23s CPU      0.34s WALL (     987 calls)
     init_us_2:cp :      0.23s CPU      0.34s WALL (     987 calls)
     cegterg      :     21.55s CPU     26.96s WALL (     470 calls)

     Called by *egterg:
     cdiaghg      :      0.05s CPU      0.07s WALL (    1117 calls)
     h_psi        :     24.81s CPU     33.88s WALL (    1164 calls)
     g_psi        :      0.01s CPU      0.02s WALL (     647 calls)

     Called by h_psi:
     h_psi:calbec :      0.06s CPU      0.08s WALL (    1164 calls)
     vloc_psi     :      6.13s CPU      8.42s WALL (    1164 calls)
     add_vuspsi   :      0.06s CPU      0.06s WALL (    1164 calls)
     h_psi_meta   :     18.52s CPU     25.29s WALL (    1164 calls)

     General routines
     calbec       :      0.06s CPU      0.08s WALL (    1164 calls)
     fft          :      0.07s CPU      0.12s WALL (     129 calls)
     ffts         :      0.13s CPU      0.20s WALL (     247 calls)
     fftw         :     25.64s CPU     34.33s WALL (   47152 calls)
     interpolate  :      0.00s CPU      0.00s WALL (      11 calls)
 
     Parallel routines
 
     PWSCF        :     31.28s CPU     41.95s WALL

 
   This run was terminated on:  14:24:59   7Jul2023            

=------------------------------------------------------------------------------=
   JOB DONE.
=------------------------------------------------------------------------------=
