
     Program PWSCF v.7.0 starts on 29Mar2023 at 10:21:34 

     This program is part of the open-source Quantum ESPRESSO suite
     for quantum simulation of materials; please cite
         "P. Giannozzi et al., J. Phys.:Condens. Matter 21 395502 (2009);
         "P. Giannozzi et al., J. Phys.:Condens. Matter 29 465901 (2017);
         "P. Giannozzi et al., J. Chem. Phys. 152 154105 (2020);
          URL http://www.quantum-espresso.org", 
     in publications or presentations arising from this work. More details at
     http://www.quantum-espresso.org/quote

     Parallel version (MPI), running on     1 processors

     MPI processes distributed on     1 nodes
     24344 MiB available memory on the printing compute node when the environment starts
 
     Waiting for input...
     Reading input from standard input
Warning: card &CELL ignored
Warning: card / ignored

     Current dimensions of program PWSCF are:
     Max number of different atomic species (ntypx) = 10
     Max number of k-points (npk) =  40000
     Max angular momentum in pseudopotentials (lmaxx) =  4
     file Cl.SCAN.UPF2: wavefunction(s)  0D renormalized

     WARNING: the MGGA functional with ID    5 has been 
     read together with other dft terms, but it should 
     stand alone in order to work properly. The other 
     terms will be ignored.

     WARNING: the MGGA functional with ID    5 has been 
     read together with other dft terms, but it should 
     stand alone in order to work properly. The other 
     terms will be ignored.

     Subspace diagonalization in iterative solution of the eigenvalue problem:
     a serial algorithm will be used

 
     G-vector sticks info
     --------------------
     sticks:   dense  smooth     PW     G-vecs:    dense   smooth      PW
     Sum         925     925    283                18197    18197    3071
 
     Using Slab Decomposition
 


     bravais-lattice index     =            2
     lattice parameter (alat)  =      11.5183  a.u.
     unit-cell volume          =     382.0335 (a.u.)^3
     number of atoms/cell      =            2
     number of atomic types    =            2
     number of electrons       =         8.00
     number of Kohn-Sham states=            4
     kinetic-energy cutoff     =      50.0000  Ry
     charge density cutoff     =     200.0000  Ry
     scf convergence threshold =      1.0E-06
     mixing beta               =       0.0100
     number of iterations used =            8  local-TF  mixing
     Exchange-correlation= SLA  PW   SCAN SCAN
                           (   0   0   0   0   0 263 267)

     celldm(1)=  11.518267  celldm(2)=   0.000000  celldm(3)=   0.000000
     celldm(4)=   0.000000  celldm(5)=   0.000000  celldm(6)=   0.000000

     crystal axes: (cart. coord. in units of alat)
               a(1) = (  -0.500000   0.000000   0.500000 )  
               a(2) = (   0.000000   0.500000   0.500000 )  
               a(3) = (  -0.500000   0.500000   0.000000 )  

     reciprocal axes: (cart. coord. in units 2 pi/alat)
               b(1) = ( -1.000000 -1.000000  1.000000 )  
               b(2) = (  1.000000  1.000000  1.000000 )  
               b(3) = ( -1.000000  1.000000 -1.000000 )  


     PseudoPot. # 1 for Li read from file:
     ~/Documents/TA/PWDFT.jl/pseudopotentials/scan_upf/Li.SCAN.UPF2
     MD5 check sum: Not computed, couldn't open file
     Pseudo is Norm-conserving, Zval =  1.0
     Generated by new atomic code, or converted to UPF format
     Using radial grid of 1321 points,  1 beta functions with: 
                l(1) =   0

     PseudoPot. # 2 for Cl read from file:
     ~/Documents/TA/PWDFT.jl/pseudopotentials/scan_upf/Cl.SCAN.UPF2
     MD5 check sum: Not computed, couldn't open file
     Pseudo is Norm-conserving, Zval =  7.0
     Generated by new atomic code, or converted to UPF format
     Using radial grid of 1493 points,  2 beta functions with: 
                l(1) =   0
                l(2) =   1

     atomic species   valence    mass     pseudopotential
        Li             1.00     6.94100     Li( 1.00)
        Cl             7.00    35.45300     Cl( 1.00)

     48 Sym. Ops., with inversion, found



   Cartesian axes

     site n.     atom                  positions (alat units)
         1           Li  tau(   1) = (   0.0000000   0.0000000   0.0000000  )
         2           Cl  tau(   2) = (   0.5000000   0.5000000   0.5000000  )

     number of k points=    47
                       cart. coord. in units 2pi/alat
        k(    1) = (   0.0000000   0.0000000   0.0000000), wk =   0.0020000
        k(    2) = (  -0.1000000   0.1000000  -0.1000000), wk =   0.0160000
        k(    3) = (  -0.2000000   0.2000000  -0.2000000), wk =   0.0160000
        k(    4) = (  -0.3000000   0.3000000  -0.3000000), wk =   0.0160000
        k(    5) = (  -0.4000000   0.4000000  -0.4000000), wk =   0.0160000
        k(    6) = (   0.5000000  -0.5000000   0.5000000), wk =   0.0080000
        k(    7) = (   0.0000000   0.2000000   0.0000000), wk =   0.0120000
        k(    8) = (  -0.1000000   0.3000000  -0.1000000), wk =   0.0480000
        k(    9) = (  -0.2000000   0.4000000  -0.2000000), wk =   0.0480000
        k(   10) = (  -0.3000000   0.5000000  -0.3000000), wk =   0.0480000
        k(   11) = (   0.6000000  -0.4000000   0.6000000), wk =   0.0480000
        k(   12) = (   0.5000000  -0.3000000   0.5000000), wk =   0.0480000
        k(   13) = (   0.4000000  -0.2000000   0.4000000), wk =   0.0480000
        k(   14) = (   0.3000000  -0.1000000   0.3000000), wk =   0.0480000
        k(   15) = (   0.2000000   0.0000000   0.2000000), wk =   0.0240000
        k(   16) = (   0.0000000   0.4000000   0.0000000), wk =   0.0120000
        k(   17) = (  -0.1000000   0.5000000  -0.1000000), wk =   0.0480000
        k(   18) = (  -0.2000000   0.6000000  -0.2000000), wk =   0.0480000
        k(   19) = (   0.7000000  -0.3000000   0.7000000), wk =   0.0480000
        k(   20) = (   0.6000000  -0.2000000   0.6000000), wk =   0.0480000
        k(   21) = (   0.5000000  -0.1000000   0.5000000), wk =   0.0480000
        k(   22) = (   0.4000000   0.0000000   0.4000000), wk =   0.0240000
        k(   23) = (   0.0000000   0.6000000   0.0000000), wk =   0.0120000
        k(   24) = (  -0.1000000   0.7000000  -0.1000000), wk =   0.0480000
        k(   25) = (   0.8000000  -0.2000000   0.8000000), wk =   0.0480000
        k(   26) = (   0.7000000  -0.1000000   0.7000000), wk =   0.0480000
        k(   27) = (   0.6000000  -0.0000000   0.6000000), wk =   0.0240000
        k(   28) = (   0.0000000   0.8000000   0.0000000), wk =   0.0120000
        k(   29) = (   0.9000000  -0.1000000   0.9000000), wk =   0.0480000
        k(   30) = (   0.8000000   0.0000000   0.8000000), wk =   0.0240000
        k(   31) = (   0.0000000  -1.0000000   0.0000000), wk =   0.0060000
        k(   32) = (  -0.2000000   0.4000000   0.0000000), wk =   0.0480000
        k(   33) = (  -0.3000000   0.5000000  -0.1000000), wk =   0.0960000
        k(   34) = (   0.6000000  -0.4000000   0.8000000), wk =   0.0960000
        k(   35) = (   0.5000000  -0.3000000   0.7000000), wk =   0.0480000
        k(   36) = (  -0.2000000   0.6000000   0.0000000), wk =   0.0480000
        k(   37) = (   0.7000000  -0.3000000   0.9000000), wk =   0.0960000
        k(   38) = (   0.6000000  -0.2000000   0.8000000), wk =   0.0960000
        k(   39) = (   0.5000000  -0.1000000   0.7000000), wk =   0.0960000
        k(   40) = (   0.4000000   0.0000000   0.6000000), wk =   0.0480000
        k(   41) = (   0.8000000  -0.2000000   1.0000000), wk =   0.0480000
        k(   42) = (   0.7000000  -0.1000000   0.9000000), wk =   0.0960000
        k(   43) = (   0.6000000   0.0000000   0.8000000), wk =   0.0480000
        k(   44) = (  -0.2000000  -1.0000000   0.0000000), wk =   0.0240000
        k(   45) = (   0.6000000  -0.2000000   1.0000000), wk =   0.0480000
        k(   46) = (   0.5000000  -0.1000000   0.9000000), wk =   0.0480000
        k(   47) = (  -0.4000000  -1.0000000   0.0000000), wk =   0.0240000

     Dense  grid:    18197 G-vectors     FFT dimensions: (  40,  40,  40)

     Estimated max dynamical RAM per process >      35.55 MB

     WARNING: libxc functional with ID  263 depends
      on external parameters: check the user_guide of
      QE if you need to modify them or to check their
      default values.

     Initial potential from superposition of free atoms

     starting charge       7.9953, renormalised to       8.0000
     Starting wfcs are   13 randomized atomic wfcs

     total cpu time spent up to now is        8.9 secs

     Self-consistent Calculation

     iteration #  1     ecut=    50.00 Ry     beta= 0.01
     Davidson diagonalization with overlap
     ethr =  1.00E-02,  avg # of iterations =  1.0

     total cpu time spent up to now is       14.9 secs

     total energy              =     -30.62277102 Ry
     estimated scf accuracy    <       0.37730408 Ry

     iteration #  2     ecut=    50.00 Ry     beta= 0.01
     Davidson diagonalization with overlap
     ethr =  4.72E-03,  avg # of iterations =  1.0

     total cpu time spent up to now is       21.0 secs

     total energy              =     -30.66222309 Ry
     estimated scf accuracy    <       0.35891482 Ry

     iteration #  3     ecut=    50.00 Ry     beta= 0.01
     Davidson diagonalization with overlap
     ethr =  4.49E-03,  avg # of iterations =  1.0

     total cpu time spent up to now is       26.8 secs

     total energy              =     -30.70336839 Ry
     estimated scf accuracy    <       0.26198235 Ry

     iteration #  4     ecut=    50.00 Ry     beta= 0.01
     Davidson diagonalization with overlap
     ethr =  3.27E-03,  avg # of iterations =  1.0

     total cpu time spent up to now is       33.0 secs

     total energy              =     -30.70554683 Ry
     estimated scf accuracy    <       0.01029217 Ry

     iteration #  5     ecut=    50.00 Ry     beta= 0.01
     Davidson diagonalization with overlap
     ethr =  1.29E-04,  avg # of iterations =  1.0

     total cpu time spent up to now is       37.3 secs

     total energy              =     -30.70305300 Ry
     estimated scf accuracy    <       0.00929891 Ry

     iteration #  6     ecut=    50.00 Ry     beta= 0.01
     Davidson diagonalization with overlap
     ethr =  1.16E-04,  avg # of iterations =  1.0

     total cpu time spent up to now is       41.2 secs

     total energy              =     -30.70285252 Ry
     estimated scf accuracy    <       0.00549155 Ry

     iteration #  7     ecut=    50.00 Ry     beta= 0.01
     Davidson diagonalization with overlap
     ethr =  6.86E-05,  avg # of iterations =  2.0

     total cpu time spent up to now is       45.5 secs

     total energy              =     -30.70533187 Ry
     estimated scf accuracy    <       0.00344599 Ry

     iteration #  8     ecut=    50.00 Ry     beta= 0.01
     Davidson diagonalization with overlap
     ethr =  4.31E-05,  avg # of iterations =  1.0

     total cpu time spent up to now is       48.7 secs

     total energy              =     -30.70498207 Ry
     estimated scf accuracy    <       0.00396732 Ry

     iteration #  9     ecut=    50.00 Ry     beta= 0.01
     Davidson diagonalization with overlap
     ethr =  4.31E-05,  avg # of iterations =  1.0

     total cpu time spent up to now is       51.8 secs

     total energy              =     -30.70423693 Ry
     estimated scf accuracy    <       0.00294175 Ry

     iteration # 10     ecut=    50.00 Ry     beta= 0.01
     Davidson diagonalization with overlap
     ethr =  3.68E-05,  avg # of iterations =  1.9

     total cpu time spent up to now is       55.3 secs

     total energy              =     -30.70459558 Ry
     estimated scf accuracy    <       0.00007355 Ry

     iteration # 11     ecut=    50.00 Ry     beta= 0.01
     Davidson diagonalization with overlap
     ethr =  9.19E-07,  avg # of iterations =  2.0

     total cpu time spent up to now is       59.2 secs

     total energy              =     -30.70467199 Ry
     estimated scf accuracy    <       0.00020268 Ry

     iteration # 12     ecut=    50.00 Ry     beta= 0.01
     Davidson diagonalization with overlap
     ethr =  9.19E-07,  avg # of iterations =  1.0

     total cpu time spent up to now is       60.8 secs

     total energy              =     -30.70458704 Ry
     estimated scf accuracy    <       0.00033134 Ry

     iteration # 13     ecut=    50.00 Ry     beta= 0.01
     Davidson diagonalization with overlap
     ethr =  9.19E-07,  avg # of iterations =  2.0

     total cpu time spent up to now is       62.7 secs

     total energy              =     -30.70455682 Ry
     estimated scf accuracy    <       0.00009441 Ry

     iteration # 14     ecut=    50.00 Ry     beta= 0.01
     Davidson diagonalization with overlap
     ethr =  9.19E-07,  avg # of iterations =  2.0

     total cpu time spent up to now is       64.8 secs

     total energy              =     -30.70457620 Ry
     estimated scf accuracy    <       0.00000181 Ry

     iteration # 15     ecut=    50.00 Ry     beta= 0.01
     Davidson diagonalization with overlap
     ethr =  2.26E-08,  avg # of iterations =  1.0

     total cpu time spent up to now is       66.4 secs

     total energy              =     -30.70457667 Ry
     estimated scf accuracy    <       0.00000202 Ry

     iteration # 16     ecut=    50.00 Ry     beta= 0.01
     Davidson diagonalization with overlap
     ethr =  2.26E-08,  avg # of iterations =  1.0

     total cpu time spent up to now is       67.9 secs

     total energy              =     -30.70457711 Ry
     estimated scf accuracy    <       0.00000418 Ry

     iteration # 17     ecut=    50.00 Ry     beta= 0.01
     Davidson diagonalization with overlap
     ethr =  2.26E-08,  avg # of iterations =  1.0

     total cpu time spent up to now is       69.4 secs

     total energy              =     -30.70457592 Ry
     estimated scf accuracy    <       0.00000594 Ry

     iteration # 18     ecut=    50.00 Ry     beta= 0.01
     Davidson diagonalization with overlap
     ethr =  2.26E-08,  avg # of iterations =  2.0

     total cpu time spent up to now is       71.4 secs

     End of self-consistent calculation

          k = 0.0000 0.0000 0.0000 (  2277 PWs)   bands (ev):

   -14.7608  -2.1035  -2.1035  -2.1035

          k =-0.1000 0.1000-0.1000 (  2265 PWs)   bands (ev):

   -14.7464  -2.2587  -2.1143  -2.1143

          k =-0.2000 0.2000-0.2000 (  2253 PWs)   bands (ev):

   -14.7087  -2.6203  -2.1422  -2.1422

          k =-0.3000 0.3000-0.3000 (  2271 PWs)   bands (ev):

   -14.6616  -3.0059  -2.1757  -2.1757

          k =-0.4000 0.4000-0.4000 (  2277 PWs)   bands (ev):

   -14.6227  -3.2842  -2.2021  -2.2021

          k = 0.5000-0.5000 0.5000 (  2276 PWs)   bands (ev):

   -14.6076  -3.3845  -2.2120  -2.2120

          k = 0.0000 0.2000 0.0000 (  2265 PWs)   bands (ev):

   -14.7417  -2.2507  -2.1487  -2.1487

          k =-0.1000 0.3000-0.1000 (  2263 PWs)   bands (ev):

   -14.7118  -2.5236  -2.1953  -2.1691

          k =-0.2000 0.4000-0.2000 (  2271 PWs)   bands (ev):

   -14.6676  -2.8876  -2.2359  -2.2064

          k =-0.3000 0.5000-0.3000 (  2278 PWs)   bands (ev):

   -14.6257  -3.1875  -2.2606  -2.2553

          k = 0.6000-0.4000 0.6000 (  2289 PWs)   bands (ev):

   -14.6026  -3.3382  -2.3100  -2.2469

          k = 0.5000-0.3000 0.5000 (  2283 PWs)   bands (ev):

   -14.6076  -3.3046  -2.3351  -2.2140

          k = 0.4000-0.2000 0.4000 (  2281 PWs)   bands (ev):

   -14.6388  -3.0960  -2.3248  -2.1684

          k = 0.3000-0.1000 0.3000 (  2264 PWs)   bands (ev):

   -14.6834  -2.7692  -2.2778  -2.1271

          k = 0.2000 0.0000 0.2000 (  2269 PWs)   bands (ev):

   -14.7244  -2.4403  -2.1981  -2.1061

          k = 0.0000 0.4000 0.0000 (  2269 PWs)   bands (ev):

   -14.6913  -2.5934  -2.2646  -2.2646

          k =-0.1000 0.5000-0.1000 (  2284 PWs)   bands (ev):

   -14.6547  -2.8440  -2.3268  -2.3232

          k =-0.2000 0.6000-0.2000 (  2288 PWs)   bands (ev):

   -14.6156  -3.0900  -2.4183  -2.3500

          k = 0.7000-0.3000 0.7000 (  2295 PWs)   bands (ev):

   -14.5893  -3.2303  -2.5258  -2.3358

          k = 0.6000-0.2000 0.6000 (  2288 PWs)   bands (ev):

   -14.5861  -3.2305  -2.6020  -2.2856

          k = 0.5000-0.1000 0.5000 (  2285 PWs)   bands (ev):

   -14.6076  -3.1092  -2.5979  -2.2172

          k = 0.4000 0.0000 0.4000 (  2269 PWs)   bands (ev):

   -14.6448  -2.9354  -2.4769  -2.1562

          k = 0.0000 0.6000 0.0000 (  2277 PWs)   bands (ev):

   -14.6273  -2.9617  -2.4033  -2.4033

          k =-0.1000 0.7000-0.1000 (  2284 PWs)   bands (ev):

   -14.5958  -3.1185  -2.4965  -2.4474

          k = 0.8000-0.2000 0.8000 (  2295 PWs)   bands (ev):

   -14.5724  -3.1849  -2.6571  -2.4409

          k = 0.7000-0.1000 0.7000 (  2285 PWs)   bands (ev):

   -14.5662  -3.1196  -2.8401  -2.3859

          k = 0.6000-0.0000 0.6000 (  2301 PWs)   bands (ev):

   -14.5799  -3.0472  -2.8655  -2.3009

          k = 0.0000 0.8000 0.0000 (  2289 PWs)   bands (ev):

   -14.5740  -3.2314  -2.5120  -2.5120

          k = 0.9000-0.1000 0.9000 (  2281 PWs)   bands (ev):

   -14.5585  -3.2757  -2.6013  -2.5224

          k = 0.8000 0.0000 0.8000 (  2283 PWs)   bands (ev):

   -14.5555  -3.1998  -2.7689  -2.4753

          k = 0.0000-1.0000 0.0000 (  2272 PWs)   bands (ev):

   -14.5531  -3.3297  -2.5527  -2.5527

          k =-0.2000 0.4000 0.0000 (  2271 PWs)   bands (ev):

   -14.6786  -2.7342  -2.3246  -2.1832

          k =-0.3000 0.5000-0.1000 (  2288 PWs)   bands (ev):

   -14.6369  -2.9960  -2.4308  -2.2209

          k = 0.6000-0.4000 0.8000 (  2281 PWs)   bands (ev):

   -14.6025  -3.2018  -2.4848  -2.2698

          k = 0.5000-0.3000 0.7000 (  2284 PWs)   bands (ev):

   -14.5892  -3.2783  -2.4995  -2.2928

          k =-0.2000 0.6000 0.0000 (  2285 PWs)   bands (ev):

   -14.6205  -3.0073  -2.4753  -2.3461

          k = 0.7000-0.3000 0.9000 (  2281 PWs)   bands (ev):

   -14.5890  -3.1306  -2.6069  -2.3887

          k = 0.6000-0.2000 0.8000 (  2271 PWs)   bands (ev):

   -14.5724  -3.1650  -2.7215  -2.3939

          k = 0.5000-0.1000 0.7000 (  2284 PWs)   bands (ev):

   -14.5777  -3.1197  -2.7668  -2.3456

          k = 0.4000 0.0000 0.6000 (  2287 PWs)   bands (ev):

   -14.6025  -3.0636  -2.6560  -2.2737

          k = 0.8000-0.2000 1.0000 (  2284 PWs)   bands (ev):

   -14.5722  -3.1963  -2.5929  -2.4955

          k = 0.7000-0.1000 0.9000 (  2279 PWs)   bands (ev):

   -14.5588  -3.1688  -2.7524  -2.5007

          k = 0.6000 0.0000 0.8000 (  2281 PWs)   bands (ev):

   -14.5609  -3.0253  -2.9445  -2.4387

          k =-0.2000-1.0000 0.0000 (  2264 PWs)   bands (ev):

   -14.5532  -3.2638  -2.6369  -2.5545

          k = 0.6000-0.2000 1.0000 (  2286 PWs)   bands (ev):

   -14.5673  -3.0958  -2.7943  -2.4591

          k = 0.5000-0.1000 0.9000 (  2270 PWs)   bands (ev):

   -14.5588  -3.0344  -2.9041  -2.4973

          k =-0.4000-1.0000 0.0000 (  2272 PWs)   bands (ev):

   -14.5536  -3.0842  -2.8457  -2.5572

     highest occupied level (ev):    -2.1035

!    total energy              =     -30.70457607 Ry
     estimated scf accuracy    <       0.00000062 Ry

     The total energy is the sum of the following terms:
     one-electron contribution =     -11.59401251 Ry
     hartree contribution      =       8.35191356 Ry
     xc contribution           =      -6.23538004 Ry
     ewald contribution        =     -21.22709708 Ry

     convergence has been achieved in  18 iterations
     Writing meta-gga kinetic term

     Writing all to output data dir ./input_pw/LiCl/13/pwscf.save/
     Writing meta-gga kinetic term
 
     init_run     :      3.86s CPU      8.74s WALL (       1 calls)
     electrons    :     48.17s CPU     62.53s WALL (       1 calls)

     Called by init_run:
     wfcinit      :      3.69s CPU      7.94s WALL (       1 calls)
     potinit      :      0.05s CPU      0.17s WALL (       1 calls)
     hinit0       :      0.10s CPU      0.52s WALL (       1 calls)

     Called by electrons:
     c_bands      :     37.99s CPU     49.17s WALL (      18 calls)
     sum_band     :      8.92s CPU     11.68s WALL (      18 calls)
     v_of_rho     :      0.67s CPU      1.03s WALL (      19 calls)
     mix_rho      :      0.60s CPU      0.79s WALL (      18 calls)

     Called by c_bands:
     init_us_2    :      0.41s CPU      0.51s WALL (    1739 calls)
     init_us_2:cp :      0.40s CPU      0.51s WALL (    1739 calls)
     cegterg      :     37.61s CPU     48.69s WALL (     846 calls)

     Called by *egterg:
     cdiaghg      :      0.10s CPU      0.16s WALL (    1972 calls)
     h_psi        :     40.63s CPU     55.68s WALL (    2019 calls)
     g_psi        :      0.03s CPU      0.03s WALL (    1126 calls)

     Called by h_psi:
     h_psi:calbec :      0.12s CPU      0.17s WALL (    2019 calls)
     vloc_psi     :     10.05s CPU     13.55s WALL (    2019 calls)
     add_vuspsi   :      0.10s CPU      0.13s WALL (    2019 calls)
     h_psi_meta   :     30.31s CPU     41.75s WALL (    2019 calls)

     General routines
     calbec       :      0.11s CPU      0.17s WALL (    2019 calls)
     fft          :      0.12s CPU      0.24s WALL (     225 calls)
     ffts         :      0.25s CPU      0.32s WALL (     471 calls)
     fftw         :     42.36s CPU     57.82s WALL (   80200 calls)
     interpolate  :      0.00s CPU      0.00s WALL (      19 calls)
 
     Parallel routines
 
     PWSCF        :     52.08s CPU   1m11.42s WALL

 
   This run was terminated on:  10:22:45  29Mar2023            

=------------------------------------------------------------------------------=
   JOB DONE.
=------------------------------------------------------------------------------=
