
     Program PWSCF v.7.0 starts on  7Jul2023 at 14:30:57 

     This program is part of the open-source Quantum ESPRESSO suite
     for quantum simulation of materials; please cite
         "P. Giannozzi et al., J. Phys.:Condens. Matter 21 395502 (2009);
         "P. Giannozzi et al., J. Phys.:Condens. Matter 29 465901 (2017);
         "P. Giannozzi et al., J. Chem. Phys. 152 154105 (2020);
          URL http://www.quantum-espresso.org", 
     in publications or presentations arising from this work. More details at
     http://www.quantum-espresso.org/quote

     Parallel version (MPI), running on     1 processors

     MPI processes distributed on     1 nodes
     27243 MiB available memory on the printing compute node when the environment starts
 
     Waiting for input...
     Reading input from standard input
Warning: card &CELL ignored
Warning: card / ignored

     Current dimensions of program PWSCF are:
     Max number of different atomic species (ntypx) = 10
     Max number of k-points (npk) =  40000
     Max angular momentum in pseudopotentials (lmaxx) =  4
     file Si.SCAN.UPF2: wavefunction(s)  0D renormalized

     WARNING: the MGGA functional with ID    5 has been 
     read together with other dft terms, but it should 
     stand alone in order to work properly. The other 
     terms will be ignored.

     WARNING: the MGGA functional with ID    5 has been 
     read together with other dft terms, but it should 
     stand alone in order to work properly. The other 
     terms will be ignored.

     Subspace diagonalization in iterative solution of the eigenvalue problem:
     a serial algorithm will be used

 
     G-vector sticks info
     --------------------
     sticks:   dense  smooth     PW     G-vecs:    dense   smooth      PW
     Sum         313     313    109                 3719     3719     749
 
     Using Slab Decomposition
 


     bravais-lattice index     =            2
     lattice parameter (alat)  =       6.8030  a.u.
     unit-cell volume          =      78.7126 (a.u.)^3
     number of atoms/cell      =            2
     number of atomic types    =            2
     number of electrons       =         8.00
     number of Kohn-Sham states=            4
     kinetic-energy cutoff     =      50.0000  Ry
     charge density cutoff     =     200.0000  Ry
     scf convergence threshold =      2.0E-05
     mixing beta               =       0.2000
     number of iterations used =            8  local-TF  mixing
     Exchange-correlation= SLA  PW   SCAN SCAN
                           (   0   0   0   0   0 263 267)

     celldm(1)=   6.803014  celldm(2)=   0.000000  celldm(3)=   0.000000
     celldm(4)=   0.000000  celldm(5)=   0.000000  celldm(6)=   0.000000

     crystal axes: (cart. coord. in units of alat)
               a(1) = (  -0.500000   0.000000   0.500000 )  
               a(2) = (   0.000000   0.500000   0.500000 )  
               a(3) = (  -0.500000   0.500000   0.000000 )  

     reciprocal axes: (cart. coord. in units 2 pi/alat)
               b(1) = ( -1.000000 -1.000000  1.000000 )  
               b(2) = (  1.000000  1.000000  1.000000 )  
               b(3) = ( -1.000000  1.000000 -1.000000 )  


     PseudoPot. # 1 for Si read from file:
     ~/Documents/TA/PWDFT.jl/pseudopotentials/scan_upf/Si.SCAN.UPF2
     MD5 check sum: Not computed, couldn't open file
     Pseudo is Norm-conserving, Zval =  4.0
     Generated by new atomic code, or converted to UPF format
     Using radial grid of 1475 points,  2 beta functions with: 
                l(1) =   0
                l(2) =   1

     PseudoPot. # 2 for C  read from file:
     ~/Documents/TA/PWDFT.jl/pseudopotentials/scan_upf/C.SCAN.UPF2
     MD5 check sum: Not computed, couldn't open file
     Pseudo is Norm-conserving, Zval =  4.0
     Generated by new atomic code, or converted to UPF format
     Using radial grid of 1389 points,  1 beta functions with: 
                l(1) =   0

     atomic species   valence    mass     pseudopotential
        Si             4.00    28.08550     Si( 1.00)
        C              4.00    12.01100     C ( 1.00)

     24 Sym. Ops. (no inversion) found



   Cartesian axes

     site n.     atom                  positions (alat units)
         1           Si  tau(   1) = (   0.0000000   0.0000000   0.0000000  )
         2           C   tau(   2) = (   0.2500000   0.2500000   0.2500000  )

     number of k points=    47
                       cart. coord. in units 2pi/alat
        k(    1) = (   0.0000000   0.0000000   0.0000000), wk =   0.0020000
        k(    2) = (  -0.1000000   0.1000000  -0.1000000), wk =   0.0160000
        k(    3) = (  -0.2000000   0.2000000  -0.2000000), wk =   0.0160000
        k(    4) = (  -0.3000000   0.3000000  -0.3000000), wk =   0.0160000
        k(    5) = (  -0.4000000   0.4000000  -0.4000000), wk =   0.0160000
        k(    6) = (   0.5000000  -0.5000000   0.5000000), wk =   0.0080000
        k(    7) = (   0.0000000   0.2000000   0.0000000), wk =   0.0120000
        k(    8) = (  -0.1000000   0.3000000  -0.1000000), wk =   0.0480000
        k(    9) = (  -0.2000000   0.4000000  -0.2000000), wk =   0.0480000
        k(   10) = (  -0.3000000   0.5000000  -0.3000000), wk =   0.0480000
        k(   11) = (   0.6000000  -0.4000000   0.6000000), wk =   0.0480000
        k(   12) = (   0.5000000  -0.3000000   0.5000000), wk =   0.0480000
        k(   13) = (   0.4000000  -0.2000000   0.4000000), wk =   0.0480000
        k(   14) = (   0.3000000  -0.1000000   0.3000000), wk =   0.0480000
        k(   15) = (   0.2000000   0.0000000   0.2000000), wk =   0.0240000
        k(   16) = (   0.0000000   0.4000000   0.0000000), wk =   0.0120000
        k(   17) = (  -0.1000000   0.5000000  -0.1000000), wk =   0.0480000
        k(   18) = (  -0.2000000   0.6000000  -0.2000000), wk =   0.0480000
        k(   19) = (   0.7000000  -0.3000000   0.7000000), wk =   0.0480000
        k(   20) = (   0.6000000  -0.2000000   0.6000000), wk =   0.0480000
        k(   21) = (   0.5000000  -0.1000000   0.5000000), wk =   0.0480000
        k(   22) = (   0.4000000   0.0000000   0.4000000), wk =   0.0240000
        k(   23) = (   0.0000000   0.6000000   0.0000000), wk =   0.0120000
        k(   24) = (  -0.1000000   0.7000000  -0.1000000), wk =   0.0480000
        k(   25) = (   0.8000000  -0.2000000   0.8000000), wk =   0.0480000
        k(   26) = (   0.7000000  -0.1000000   0.7000000), wk =   0.0480000
        k(   27) = (   0.6000000  -0.0000000   0.6000000), wk =   0.0240000
        k(   28) = (   0.0000000   0.8000000   0.0000000), wk =   0.0120000
        k(   29) = (   0.9000000  -0.1000000   0.9000000), wk =   0.0480000
        k(   30) = (   0.8000000   0.0000000   0.8000000), wk =   0.0240000
        k(   31) = (   0.0000000  -1.0000000   0.0000000), wk =   0.0060000
        k(   32) = (  -0.2000000   0.4000000   0.0000000), wk =   0.0480000
        k(   33) = (  -0.3000000   0.5000000  -0.1000000), wk =   0.0960000
        k(   34) = (   0.6000000  -0.4000000   0.8000000), wk =   0.0960000
        k(   35) = (   0.5000000  -0.3000000   0.7000000), wk =   0.0480000
        k(   36) = (  -0.2000000   0.6000000   0.0000000), wk =   0.0480000
        k(   37) = (   0.7000000  -0.3000000   0.9000000), wk =   0.0960000
        k(   38) = (   0.6000000  -0.2000000   0.8000000), wk =   0.0960000
        k(   39) = (   0.5000000  -0.1000000   0.7000000), wk =   0.0960000
        k(   40) = (   0.4000000   0.0000000   0.6000000), wk =   0.0480000
        k(   41) = (   0.8000000  -0.2000000   1.0000000), wk =   0.0480000
        k(   42) = (   0.7000000  -0.1000000   0.9000000), wk =   0.0960000
        k(   43) = (   0.6000000   0.0000000   0.8000000), wk =   0.0480000
        k(   44) = (  -0.2000000  -1.0000000   0.0000000), wk =   0.0240000
        k(   45) = (   0.6000000  -0.2000000   1.0000000), wk =   0.0480000
        k(   46) = (   0.5000000  -0.1000000   0.9000000), wk =   0.0480000
        k(   47) = (  -0.4000000  -1.0000000   0.0000000), wk =   0.0240000

     Dense  grid:     3719 G-vectors     FFT dimensions: (  24,  24,  24)

     Estimated max dynamical RAM per process >       7.52 MB

     WARNING: libxc functional with ID  263 depends
      on external parameters: check the user_guide of
      QE if you need to modify them or to check their
      default values.

     Initial potential from superposition of free atoms

     starting charge       7.9995, renormalised to       8.0000
     Starting wfcs are   13 randomized atomic wfcs

     total cpu time spent up to now is        1.8 secs

     Self-consistent Calculation

     iteration #  1     ecut=    50.00 Ry     beta= 0.20
     Davidson diagonalization with overlap
     ethr =  1.00E-02,  avg # of iterations =  2.0

     total cpu time spent up to now is        3.6 secs

     total energy              =     -18.98948992 Ry
     estimated scf accuracy    <       4.13226235 Ry

     iteration #  2     ecut=    50.00 Ry     beta= 0.20
     Davidson diagonalization with overlap
     ethr =  1.00E-02,  avg # of iterations =  1.0

     total cpu time spent up to now is        5.0 secs

     total energy              =     -18.74845142 Ry
     estimated scf accuracy    <       2.53490529 Ry

     iteration #  3     ecut=    50.00 Ry     beta= 0.20
     Davidson diagonalization with overlap
     ethr =  1.00E-02,  avg # of iterations =  1.6

     total cpu time spent up to now is        6.4 secs

     total energy              =     -18.83210634 Ry
     estimated scf accuracy    <       0.07404475 Ry

     iteration #  4     ecut=    50.00 Ry     beta= 0.20
     Davidson diagonalization with overlap
     ethr =  9.26E-04,  avg # of iterations =  1.0

     total cpu time spent up to now is        7.8 secs

     total energy              =     -18.83512392 Ry
     estimated scf accuracy    <       0.04670988 Ry

     iteration #  5     ecut=    50.00 Ry     beta= 0.20
     Davidson diagonalization with overlap
     ethr =  5.84E-04,  avg # of iterations =  1.0

     total cpu time spent up to now is        9.1 secs

     total energy              =     -18.83517291 Ry
     estimated scf accuracy    <       0.03418767 Ry

     iteration #  6     ecut=    50.00 Ry     beta= 0.20
     Davidson diagonalization with overlap
     ethr =  4.27E-04,  avg # of iterations =  1.0

     total cpu time spent up to now is       10.5 secs

     total energy              =     -18.83651536 Ry
     estimated scf accuracy    <       0.00028028 Ry

     iteration #  7     ecut=    50.00 Ry     beta= 0.20
     Davidson diagonalization with overlap
     ethr =  3.50E-06,  avg # of iterations =  2.3

     total cpu time spent up to now is       12.3 secs

     total energy              =     -18.83668793 Ry
     estimated scf accuracy    <       0.00015008 Ry

     iteration #  8     ecut=    50.00 Ry     beta= 0.20
     Davidson diagonalization with overlap
     ethr =  1.88E-06,  avg # of iterations =  2.0

     total cpu time spent up to now is       14.0 secs

     End of self-consistent calculation

          k = 0.0000 0.0000 0.0000 (   459 PWs)   bands (ev):

    -3.3839  17.9802  17.9802  17.9802

          k =-0.1000 0.1000-0.1000 (   495 PWs)   bands (ev):

    -3.0755  16.7905  17.8360  17.8360

          k =-0.2000 0.2000-0.2000 (   483 PWs)   bands (ev):

    -2.1583  14.0280  17.5339  17.5339

          k =-0.3000 0.3000-0.3000 (   477 PWs)   bands (ev):

    -0.6635  10.7292  17.2139  17.2139

          k =-0.4000 0.4000-0.4000 (   471 PWs)   bands (ev):

     1.3159   7.5240  16.9874  16.9874

          k = 0.5000-0.5000 0.5000 (   464 PWs)   bands (ev):

     2.9407   5.4719  16.9094  16.9094

          k = 0.0000 0.2000 0.0000 (   487 PWs)   bands (ev):

    -2.9728  17.2898  17.3642  17.3642

          k =-0.1000 0.3000-0.1000 (   478 PWs)   bands (ev):

    -2.2589  15.0849  16.8284  17.4125

          k =-0.2000 0.4000-0.2000 (   474 PWs)   bands (ev):

    -0.9564  11.9948  16.4402  17.0738

          k =-0.3000 0.5000-0.3000 (   471 PWs)   bands (ev):

     0.8715   8.7682  16.3084  16.5357

          k = 0.6000-0.4000 0.6000 (   469 PWs)   bands (ev):

     2.8784   6.0761  16.0178  16.4554

          k = 0.5000-0.3000 0.5000 (   470 PWs)   bands (ev):

     2.2628   6.8319  15.6865  16.8395

          k = 0.4000-0.2000 0.4000 (   471 PWs)   bands (ev):

     0.2109   9.8263  15.6417  17.3507

          k = 0.3000-0.1000 0.3000 (   479 PWs)   bands (ev):

    -1.4540  13.0396  15.9324  17.8118

          k = 0.2000 0.0000 0.2000 (   485 PWs)   bands (ev):

    -2.5641  15.6799  16.6986  18.0173

          k = 0.0000 0.4000 0.0000 (   480 PWs)   bands (ev):

    -1.7525  15.5964  16.0671  16.0671

          k =-0.1000 0.5000-0.1000 (   471 PWs)   bands (ev):

    -0.6551  13.2835  15.5238  15.8000

          k =-0.2000 0.6000-0.2000 (   465 PWs)   bands (ev):

     0.9843  10.3559  14.9512  15.3171

          k = 0.7000-0.3000 0.7000 (   462 PWs)   bands (ev):

     2.9762   7.5492  13.9687  15.4852

          k = 0.6000-0.2000 0.6000 (   471 PWs)   bands (ev):

     3.5432   6.8654  13.2451  15.9948

          k = 0.5000-0.1000 0.5000 (   471 PWs)   bands (ev):

     1.6199   9.3681  13.0006  16.7380

          k = 0.4000 0.0000 0.4000 (   475 PWs)   bands (ev):

    -0.1706  11.8764  13.7103  17.4651

          k = 0.0000 0.6000 0.0000 (   464 PWs)   bands (ev):

     0.2303  13.1826  14.8116  14.8116

          k =-0.1000 0.7000-0.1000 (   464 PWs)   bands (ev):

     1.6570  11.3459  13.7088  14.4649

          k = 0.8000-0.2000 0.8000 (   468 PWs)   bands (ev):

     3.4818   9.2157  11.9382  14.5341

          k = 0.7000-0.1000 0.7000 (   468 PWs)   bands (ev):

     4.7552   7.8688  10.6478  15.0113

          k = 0.6000-0.0000 0.6000 (   462 PWs)   bands (ev):

     3.4193   9.0424  10.5995  15.8206

          k = 0.0000 0.8000 0.0000 (   460 PWs)   bands (ev):

     2.8474  10.1045  13.9626  13.9626

          k = 0.9000-0.1000 0.9000 (   464 PWs)   bands (ev):

     4.3788   8.6561  12.5407  13.8909

          k = 0.8000 0.0000 0.8000 (   468 PWs)   bands (ev):

     5.3504   8.3989  10.2182  14.2577

          k = 0.0000-1.0000 0.0000 (   468 PWs)   bands (ev):

     5.0792   7.6365  13.6651  13.6651

          k =-0.2000 0.4000 0.0000 (   474 PWs)   bands (ev):

    -1.3526  13.8202  15.3002  17.2668

          k =-0.3000 0.5000-0.1000 (   471 PWs)   bands (ev):

     0.1216  11.1993  14.4992  16.7468

          k = 0.6000-0.4000 0.8000 (   468 PWs)   bands (ev):

     2.0577   8.2139  14.3515  16.0435

          k = 0.5000-0.3000 0.7000 (   466 PWs)   bands (ev):

     3.5970   6.2885  14.3981  15.6852

          k =-0.2000 0.6000 0.0000 (   467 PWs)   bands (ev):

     0.6112  12.0778  13.9486  15.2925

          k = 0.7000-0.3000 0.9000 (   471 PWs)   bands (ev):

     2.3639   9.8369  13.0242  14.4323

          k = 0.6000-0.2000 0.8000 (   465 PWs)   bands (ev):

     4.1834   7.6033  12.2726  14.3109

          k = 0.5000-0.1000 0.7000 (   469 PWs)   bands (ev):

     3.6332   8.2532  11.7471  14.9307

          k = 0.4000 0.0000 0.6000 (   472 PWs)   bands (ev):

     1.7223  10.3416  12.2103  15.9011

          k = 0.8000-0.2000 1.0000 (   467 PWs)   bands (ev):

     3.1791  10.0409  13.0270  13.1868

          k = 0.7000-0.1000 0.9000 (   472 PWs)   bands (ev):

     4.8451   8.8784  10.8553  13.2018

          k = 0.6000 0.0000 0.8000 (   467 PWs)   bands (ev):

     5.1033   8.9117   9.5550  13.8627

          k =-0.2000-1.0000 0.0000 (   460 PWs)   bands (ev):

     5.2725   8.0223  12.4458  12.7337

          k = 0.6000-0.2000 1.0000 (   469 PWs)   bands (ev):

     4.0875   9.3948  11.2115  12.9769

          k = 0.5000-0.1000 0.9000 (   468 PWs)   bands (ev):

     5.2433   8.6250  10.7263  12.2968

          k =-0.4000-1.0000 0.0000 (   470 PWs)   bands (ev):

     5.6528   9.1228  10.8960  10.9953

     highest occupied level (ev):    18.0173

!    total energy              =     -18.83672055 Ry
     estimated scf accuracy    <       0.00000606 Ry

     The total energy is the sum of the following terms:
     one-electron contribution =      11.53235785 Ry
     hartree contribution      =       2.02222197 Ry
     xc contribution           =      -7.05289354 Ry
     ewald contribution        =     -25.33840683 Ry

     convergence has been achieved in   8 iterations
     Writing meta-gga kinetic term

     Writing all to output data dir ./input_pw/SiC/0/pwscf.save/
     Writing meta-gga kinetic term
 
     init_run     :      0.93s CPU      1.68s WALL (       1 calls)
     electrons    :      6.07s CPU     12.27s WALL (       1 calls)

     Called by init_run:
     wfcinit      :      0.82s CPU      1.52s WALL (       1 calls)
     potinit      :      0.01s CPU      0.04s WALL (       1 calls)
     hinit0       :      0.10s CPU      0.12s WALL (       1 calls)

     Called by electrons:
     c_bands      :      4.89s CPU      9.96s WALL (       8 calls)
     sum_band     :      1.08s CPU      2.09s WALL (       8 calls)
     v_of_rho     :      0.08s CPU      0.18s WALL (       9 calls)
     mix_rho      :      0.04s CPU      0.07s WALL (       8 calls)

     Called by c_bands:
     init_us_2    :      0.05s CPU      0.11s WALL (     799 calls)
     init_us_2:cp :      0.05s CPU      0.10s WALL (     799 calls)
     cegterg      :      4.84s CPU      9.82s WALL (     376 calls)

     Called by *egterg:
     cdiaghg      :      0.04s CPU      0.10s WALL (     934 calls)
     h_psi        :      5.51s CPU     11.07s WALL (     981 calls)
     g_psi        :      0.00s CPU      0.00s WALL (     558 calls)

     Called by h_psi:
     h_psi:calbec :      0.02s CPU      0.04s WALL (     981 calls)
     vloc_psi     :      1.36s CPU      2.70s WALL (     981 calls)
     add_vuspsi   :      0.02s CPU      0.03s WALL (     981 calls)
     h_psi_meta   :      4.10s CPU      8.27s WALL (     981 calls)

     General routines
     calbec       :      0.01s CPU      0.02s WALL (     981 calls)
     fft          :      0.02s CPU      0.04s WALL (     105 calls)
     ffts         :      0.02s CPU      0.04s WALL (     139 calls)
     fftw         :      5.87s CPU     11.77s WALL (   39704 calls)
     interpolate  :      0.00s CPU      0.00s WALL (       9 calls)
 
     Parallel routines
 
     PWSCF        :      7.07s CPU     14.09s WALL

 
   This run was terminated on:  14:31:11   7Jul2023            

=------------------------------------------------------------------------------=
   JOB DONE.
=------------------------------------------------------------------------------=
