
     Program PWSCF v.7.0 starts on 14Mar2023 at 12: 2:31 

     This program is part of the open-source Quantum ESPRESSO suite
     for quantum simulation of materials; please cite
         "P. Giannozzi et al., J. Phys.:Condens. Matter 21 395502 (2009);
         "P. Giannozzi et al., J. Phys.:Condens. Matter 29 465901 (2017);
         "P. Giannozzi et al., J. Chem. Phys. 152 154105 (2020);
          URL http://www.quantum-espresso.org", 
     in publications or presentations arising from this work. More details at
     http://www.quantum-espresso.org/quote

     Parallel version (MPI), running on     1 processors

     MPI processes distributed on     1 nodes
     27259 MiB available memory on the printing compute node when the environment starts
 
     Waiting for input...
     Reading input from standard input
Warning: card &CELL ignored
Warning: card / ignored

     Current dimensions of program PWSCF are:
     Max number of different atomic species (ntypx) = 10
     Max number of k-points (npk) =  40000
     Max angular momentum in pseudopotentials (lmaxx) =  4
     file Si.SCAN.UPF2: wavefunction(s)  0D renormalized

     WARNING: the MGGA functional with ID    5 has been 
     read together with other dft terms, but it should 
     stand alone in order to work properly. The other 
     terms will be ignored.

     WARNING: the MGGA functional with ID    5 has been 
     read together with other dft terms, but it should 
     stand alone in order to work properly. The other 
     terms will be ignored.

     Subspace diagonalization in iterative solution of the eigenvalue problem:
     a serial algorithm will be used

 
     G-vector sticks info
     --------------------
     sticks:   dense  smooth     PW     G-vecs:    dense   smooth      PW
     Sum         685     685    211                11935    11935    2085
 
     Using Slab Decomposition
 


     bravais-lattice index     =            2
     lattice parameter (alat)  =      10.0010  a.u.
     unit-cell volume          =     250.0750 (a.u.)^3
     number of atoms/cell      =            2
     number of atomic types    =            2
     number of electrons       =         8.00
     number of Kohn-Sham states=            4
     kinetic-energy cutoff     =      50.0000  Ry
     charge density cutoff     =     200.0000  Ry
     scf convergence threshold =      1.0E-06
     mixing beta               =       0.0100
     number of iterations used =            8  local-TF  mixing
     Exchange-correlation= SLA  PW   SCAN SCAN
                           (   0   0   0   0   0 263 267)

     celldm(1)=  10.001000  celldm(2)=   0.000000  celldm(3)=   0.000000
     celldm(4)=   0.000000  celldm(5)=   0.000000  celldm(6)=   0.000000

     crystal axes: (cart. coord. in units of alat)
               a(1) = (  -0.500000   0.000000   0.500000 )  
               a(2) = (   0.000000   0.500000   0.500000 )  
               a(3) = (  -0.500000   0.500000   0.000000 )  

     reciprocal axes: (cart. coord. in units 2 pi/alat)
               b(1) = ( -1.000000 -1.000000  1.000000 )  
               b(2) = (  1.000000  1.000000  1.000000 )  
               b(3) = ( -1.000000  1.000000 -1.000000 )  


     PseudoPot. # 1 for Si read from file:
     ~/Documents/TA/PWDFT.jl/pseudopotentials/scan_upf/Si.SCAN.UPF2
     MD5 check sum: Not computed, couldn't open file
     Pseudo is Norm-conserving, Zval =  4.0
     Generated by new atomic code, or converted to UPF format
     Using radial grid of 1475 points,  2 beta functions with: 
                l(1) =   0
                l(2) =   1

     PseudoPot. # 2 for C  read from file:
     ~/Documents/TA/PWDFT.jl/pseudopotentials/scan_upf/C.SCAN.UPF2
     MD5 check sum: Not computed, couldn't open file
     Pseudo is Norm-conserving, Zval =  4.0
     Generated by new atomic code, or converted to UPF format
     Using radial grid of 1389 points,  1 beta functions with: 
                l(1) =   0

     atomic species   valence    mass     pseudopotential
        Si             4.00    28.08550     Si( 1.00)
        C              4.00    12.01100     C ( 1.00)

     24 Sym. Ops. (no inversion) found



   Cartesian axes

     site n.     atom                  positions (alat units)
         1           Si  tau(   1) = (   0.0000000   0.0000000   0.0000000  )
         2           C   tau(   2) = (   0.2500000   0.2500000   0.2500000  )

     number of k points=    47
                       cart. coord. in units 2pi/alat
        k(    1) = (   0.0000000   0.0000000   0.0000000), wk =   0.0020000
        k(    2) = (  -0.1000000   0.1000000  -0.1000000), wk =   0.0160000
        k(    3) = (  -0.2000000   0.2000000  -0.2000000), wk =   0.0160000
        k(    4) = (  -0.3000000   0.3000000  -0.3000000), wk =   0.0160000
        k(    5) = (  -0.4000000   0.4000000  -0.4000000), wk =   0.0160000
        k(    6) = (   0.5000000  -0.5000000   0.5000000), wk =   0.0080000
        k(    7) = (   0.0000000   0.2000000   0.0000000), wk =   0.0120000
        k(    8) = (  -0.1000000   0.3000000  -0.1000000), wk =   0.0480000
        k(    9) = (  -0.2000000   0.4000000  -0.2000000), wk =   0.0480000
        k(   10) = (  -0.3000000   0.5000000  -0.3000000), wk =   0.0480000
        k(   11) = (   0.6000000  -0.4000000   0.6000000), wk =   0.0480000
        k(   12) = (   0.5000000  -0.3000000   0.5000000), wk =   0.0480000
        k(   13) = (   0.4000000  -0.2000000   0.4000000), wk =   0.0480000
        k(   14) = (   0.3000000  -0.1000000   0.3000000), wk =   0.0480000
        k(   15) = (   0.2000000   0.0000000   0.2000000), wk =   0.0240000
        k(   16) = (   0.0000000   0.4000000   0.0000000), wk =   0.0120000
        k(   17) = (  -0.1000000   0.5000000  -0.1000000), wk =   0.0480000
        k(   18) = (  -0.2000000   0.6000000  -0.2000000), wk =   0.0480000
        k(   19) = (   0.7000000  -0.3000000   0.7000000), wk =   0.0480000
        k(   20) = (   0.6000000  -0.2000000   0.6000000), wk =   0.0480000
        k(   21) = (   0.5000000  -0.1000000   0.5000000), wk =   0.0480000
        k(   22) = (   0.4000000   0.0000000   0.4000000), wk =   0.0240000
        k(   23) = (   0.0000000   0.6000000   0.0000000), wk =   0.0120000
        k(   24) = (  -0.1000000   0.7000000  -0.1000000), wk =   0.0480000
        k(   25) = (   0.8000000  -0.2000000   0.8000000), wk =   0.0480000
        k(   26) = (   0.7000000  -0.1000000   0.7000000), wk =   0.0480000
        k(   27) = (   0.6000000  -0.0000000   0.6000000), wk =   0.0240000
        k(   28) = (   0.0000000   0.8000000   0.0000000), wk =   0.0120000
        k(   29) = (   0.9000000  -0.1000000   0.9000000), wk =   0.0480000
        k(   30) = (   0.8000000   0.0000000   0.8000000), wk =   0.0240000
        k(   31) = (   0.0000000  -1.0000000   0.0000000), wk =   0.0060000
        k(   32) = (  -0.2000000   0.4000000   0.0000000), wk =   0.0480000
        k(   33) = (  -0.3000000   0.5000000  -0.1000000), wk =   0.0960000
        k(   34) = (   0.6000000  -0.4000000   0.8000000), wk =   0.0960000
        k(   35) = (   0.5000000  -0.3000000   0.7000000), wk =   0.0480000
        k(   36) = (  -0.2000000   0.6000000   0.0000000), wk =   0.0480000
        k(   37) = (   0.7000000  -0.3000000   0.9000000), wk =   0.0960000
        k(   38) = (   0.6000000  -0.2000000   0.8000000), wk =   0.0960000
        k(   39) = (   0.5000000  -0.1000000   0.7000000), wk =   0.0960000
        k(   40) = (   0.4000000   0.0000000   0.6000000), wk =   0.0480000
        k(   41) = (   0.8000000  -0.2000000   1.0000000), wk =   0.0480000
        k(   42) = (   0.7000000  -0.1000000   0.9000000), wk =   0.0960000
        k(   43) = (   0.6000000   0.0000000   0.8000000), wk =   0.0480000
        k(   44) = (  -0.2000000  -1.0000000   0.0000000), wk =   0.0240000
        k(   45) = (   0.6000000  -0.2000000   1.0000000), wk =   0.0480000
        k(   46) = (   0.5000000  -0.1000000   0.9000000), wk =   0.0480000
        k(   47) = (  -0.4000000  -1.0000000   0.0000000), wk =   0.0240000

     Dense  grid:    11935 G-vectors     FFT dimensions: (  32,  32,  32)

     Estimated max dynamical RAM per process >      22.32 MB

     WARNING: libxc functional with ID  263 depends
      on external parameters: check the user_guide of
      QE if you need to modify them or to check their
      default values.

     Initial potential from superposition of free atoms

     starting charge       7.9995, renormalised to       8.0000
     Starting wfcs are   13 randomized atomic wfcs

     total cpu time spent up to now is        3.8 secs

     Self-consistent Calculation

     iteration #  1     ecut=    50.00 Ry     beta= 0.01
     Davidson diagonalization with overlap
     ethr =  1.00E-02,  avg # of iterations =  1.3

     total cpu time spent up to now is        6.3 secs

     total energy              =     -19.05014143 Ry
     estimated scf accuracy    <       1.12180975 Ry

     iteration #  2     ecut=    50.00 Ry     beta= 0.01
     Davidson diagonalization with overlap
     ethr =  1.00E-02,  avg # of iterations =  1.0

     total cpu time spent up to now is        8.5 secs

     total energy              =     -19.01455380 Ry
     estimated scf accuracy    <       1.10370686 Ry

     iteration #  3     ecut=    50.00 Ry     beta= 0.01
     Davidson diagonalization with overlap
     ethr =  1.00E-02,  avg # of iterations =  1.0

     total cpu time spent up to now is       11.1 secs

     total energy              =     -19.02324535 Ry
     estimated scf accuracy    <       0.14129507 Ry

     iteration #  4     ecut=    50.00 Ry     beta= 0.01
     Davidson diagonalization with overlap
     ethr =  1.77E-03,  avg # of iterations =  2.0

     total cpu time spent up to now is       14.0 secs

     total energy              =     -19.03979845 Ry
     estimated scf accuracy    <       0.02591447 Ry

     iteration #  5     ecut=    50.00 Ry     beta= 0.01
     Davidson diagonalization with overlap
     ethr =  3.24E-04,  avg # of iterations =  2.4

     total cpu time spent up to now is       17.6 secs

     total energy              =     -19.04602938 Ry
     estimated scf accuracy    <       0.09597492 Ry

     iteration #  6     ecut=    50.00 Ry     beta= 0.01
     Davidson diagonalization with overlap
     ethr =  3.24E-04,  avg # of iterations =  1.0

     total cpu time spent up to now is       19.9 secs

     total energy              =     -19.04973879 Ry
     estimated scf accuracy    <       0.11699669 Ry

     iteration #  7     ecut=    50.00 Ry     beta= 0.01
     Davidson diagonalization with overlap
     ethr =  3.24E-04,  avg # of iterations =  1.0

     total cpu time spent up to now is       22.4 secs

     total energy              =     -19.05177875 Ry
     estimated scf accuracy    <       0.02998474 Ry

     iteration #  8     ecut=    50.00 Ry     beta= 0.01
     Davidson diagonalization with overlap
     ethr =  3.24E-04,  avg # of iterations =  1.0

     total cpu time spent up to now is       25.0 secs

     total energy              =     -19.05163707 Ry
     estimated scf accuracy    <       0.02832341 Ry

     iteration #  9     ecut=    50.00 Ry     beta= 0.01
     Davidson diagonalization with overlap
     ethr =  3.24E-04,  avg # of iterations =  1.0

     total cpu time spent up to now is       27.7 secs

     total energy              =     -19.04871722 Ry
     estimated scf accuracy    <       0.02771468 Ry

     iteration # 10     ecut=    50.00 Ry     beta= 0.01
     Davidson diagonalization with overlap
     ethr =  3.24E-04,  avg # of iterations =  1.0

     total cpu time spent up to now is       30.4 secs

     total energy              =     -19.04592502 Ry
     estimated scf accuracy    <       0.01140094 Ry

     iteration # 11     ecut=    50.00 Ry     beta= 0.01
     Davidson diagonalization with overlap
     ethr =  1.43E-04,  avg # of iterations =  2.0

     total cpu time spent up to now is       33.9 secs

     total energy              =     -19.04822410 Ry
     estimated scf accuracy    <       0.00155131 Ry

     iteration # 12     ecut=    50.00 Ry     beta= 0.01
     Davidson diagonalization with overlap
     ethr =  1.94E-05,  avg # of iterations =  1.1

     total cpu time spent up to now is       36.3 secs

     total energy              =     -19.04824033 Ry
     estimated scf accuracy    <       0.00127133 Ry

     iteration # 13     ecut=    50.00 Ry     beta= 0.01
     Davidson diagonalization with overlap
     ethr =  1.59E-05,  avg # of iterations =  1.0

     total cpu time spent up to now is       39.0 secs

     total energy              =     -19.04829771 Ry
     estimated scf accuracy    <       0.00132032 Ry

     iteration # 14     ecut=    50.00 Ry     beta= 0.01
     Davidson diagonalization with overlap
     ethr =  1.59E-05,  avg # of iterations =  1.0

     total cpu time spent up to now is       41.7 secs

     total energy              =     -19.04810539 Ry
     estimated scf accuracy    <       0.00171308 Ry

     iteration # 15     ecut=    50.00 Ry     beta= 0.01
     Davidson diagonalization with overlap
     ethr =  1.59E-05,  avg # of iterations =  1.0

     total cpu time spent up to now is       44.3 secs

     total energy              =     -19.04797244 Ry
     estimated scf accuracy    <       0.00098930 Ry

     iteration # 16     ecut=    50.00 Ry     beta= 0.01
     Davidson diagonalization with overlap
     ethr =  1.24E-05,  avg # of iterations =  1.0

     total cpu time spent up to now is       46.4 secs

     total energy              =     -19.04803854 Ry
     estimated scf accuracy    <       0.00020136 Ry

     iteration # 17     ecut=    50.00 Ry     beta= 0.01
     Davidson diagonalization with overlap
     ethr =  2.52E-06,  avg # of iterations =  1.0

     total cpu time spent up to now is       48.8 secs

     total energy              =     -19.04804859 Ry
     estimated scf accuracy    <       0.00022174 Ry

     iteration # 18     ecut=    50.00 Ry     beta= 0.01
     Davidson diagonalization with overlap
     ethr =  2.52E-06,  avg # of iterations =  1.0

     total cpu time spent up to now is       51.2 secs

     total energy              =     -19.04805266 Ry
     estimated scf accuracy    <       0.00017963 Ry

     iteration # 19     ecut=    50.00 Ry     beta= 0.01
     Davidson diagonalization with overlap
     ethr =  2.25E-06,  avg # of iterations =  1.0

     total cpu time spent up to now is       53.5 secs

     total energy              =     -19.04804457 Ry
     estimated scf accuracy    <       0.00018584 Ry

     iteration # 20     ecut=    50.00 Ry     beta= 0.01
     Davidson diagonalization with overlap
     ethr =  2.25E-06,  avg # of iterations =  1.0

     total cpu time spent up to now is       56.0 secs

     total energy              =     -19.04804997 Ry
     estimated scf accuracy    <       0.00011060 Ry

     iteration # 21     ecut=    50.00 Ry     beta= 0.01
     Davidson diagonalization with overlap
     ethr =  1.38E-06,  avg # of iterations =  1.0

     total cpu time spent up to now is       58.1 secs

     total energy              =     -19.04803810 Ry
     estimated scf accuracy    <       0.00012182 Ry

     iteration # 22     ecut=    50.00 Ry     beta= 0.01
     Davidson diagonalization with overlap
     ethr =  1.38E-06,  avg # of iterations =  1.0

     total cpu time spent up to now is       59.9 secs

     total energy              =     -19.04804086 Ry
     estimated scf accuracy    <       0.00004270 Ry

     iteration # 23     ecut=    50.00 Ry     beta= 0.01
     Davidson diagonalization with overlap
     ethr =  5.34E-07,  avg # of iterations =  1.0

     total cpu time spent up to now is       61.5 secs

     total energy              =     -19.04805920 Ry
     estimated scf accuracy    <       0.00004171 Ry

     iteration # 24     ecut=    50.00 Ry     beta= 0.01
     Davidson diagonalization with overlap
     ethr =  5.21E-07,  avg # of iterations =  1.0

     total cpu time spent up to now is       63.0 secs

     total energy              =     -19.04807879 Ry
     estimated scf accuracy    <       0.00018373 Ry

     iteration # 25     ecut=    50.00 Ry     beta= 0.01
     Davidson diagonalization with overlap
     ethr =  5.21E-07,  avg # of iterations =  1.6

     total cpu time spent up to now is       65.0 secs

     total energy              =     -19.04805970 Ry
     estimated scf accuracy    <       0.00037355 Ry

     iteration # 26     ecut=    50.00 Ry     beta= 0.01
     Davidson diagonalization with overlap
     ethr =  5.21E-07,  avg # of iterations =  1.0

     total cpu time spent up to now is       66.6 secs

     total energy              =     -19.04807280 Ry
     estimated scf accuracy    <       0.00026832 Ry

     iteration # 27     ecut=    50.00 Ry     beta= 0.01
     Davidson diagonalization with overlap
     ethr =  5.21E-07,  avg # of iterations =  1.0

     total cpu time spent up to now is       68.0 secs

     total energy              =     -19.04804942 Ry
     estimated scf accuracy    <       0.00027866 Ry

     iteration # 28     ecut=    50.00 Ry     beta= 0.01
     Davidson diagonalization with overlap
     ethr =  5.21E-07,  avg # of iterations =  1.0

     total cpu time spent up to now is       69.7 secs

     total energy              =     -19.04805634 Ry
     estimated scf accuracy    <       0.00022997 Ry

     iteration # 29     ecut=    50.00 Ry     beta= 0.01
     Davidson diagonalization with overlap
     ethr =  5.21E-07,  avg # of iterations =  1.0

     total cpu time spent up to now is       71.3 secs

     total energy              =     -19.04802340 Ry
     estimated scf accuracy    <       0.00022940 Ry

     iteration # 30     ecut=    50.00 Ry     beta= 0.01
     Davidson diagonalization with overlap
     ethr =  5.21E-07,  avg # of iterations =  2.0

     total cpu time spent up to now is       72.9 secs

     total energy              =     -19.04803026 Ry
     estimated scf accuracy    <       0.00001821 Ry

     iteration # 31     ecut=    50.00 Ry     beta= 0.01
     Davidson diagonalization with overlap
     ethr =  2.28E-07,  avg # of iterations =  2.1

     total cpu time spent up to now is       74.4 secs

     End of self-consistent calculation

          k = 0.0000 0.0000 0.0000 (  1459 PWs)   bands (ev):

    -8.8183   3.4246   3.4246   3.4246

          k =-0.1000 0.1000-0.1000 (  1459 PWs)   bands (ev):

    -8.6984   2.0146   3.3156   3.3156

          k =-0.2000 0.2000-0.2000 (  1480 PWs)   bands (ev):

    -8.3504   0.3690   3.0655   3.0655

          k =-0.3000 0.3000-0.3000 (  1489 PWs)   bands (ev):

    -7.8207  -1.1730   2.8055   2.8055

          k =-0.4000 0.4000-0.4000 (  1486 PWs)   bands (ev):

    -7.2431  -2.3902   2.6252   2.6252

          k = 0.5000-0.5000 0.5000 (  1476 PWs)   bands (ev):

    -6.9525  -2.8988   2.5623   2.5623

          k = 0.0000 0.2000 0.0000 (  1467 PWs)   bands (ev):

    -8.6581   1.9316   3.1006   3.1006

          k =-0.1000 0.3000-0.1000 (  1479 PWs)   bands (ev):

    -8.3850   0.7121   2.7932   2.8443

          k =-0.2000 0.4000-0.2000 (  1489 PWs)   bands (ev):

    -7.9112  -0.7421   2.4919   2.5309

          k =-0.3000 0.5000-0.3000 (  1478 PWs)   bands (ev):

    -7.3310  -2.0316   2.1418   2.3894

          k = 0.6000-0.4000 0.6000 (  1494 PWs)   bands (ev):

    -6.9010  -2.8002   1.8967   2.3939

          k = 0.5000-0.3000 0.5000 (  1496 PWs)   bands (ev):

    -7.0033  -2.6277   1.8120   2.5388

          k = 0.4000-0.2000 0.4000 (  1484 PWs)   bands (ev):

    -7.5278  -1.6341   1.9137   2.7925

          k = 0.3000-0.1000 0.3000 (  1494 PWs)   bands (ev):

    -8.0896  -0.2741   2.2163   3.0865

          k = 0.2000 0.0000 0.2000 (  1472 PWs)   bands (ev):

    -8.5019   1.0889   2.7407   3.3064

          k = 0.0000 0.4000 0.0000 (  1479 PWs)   bands (ev):

    -8.1896   0.3292   2.4358   2.4358

          k =-0.1000 0.5000-0.1000 (  1492 PWs)   bands (ev):

    -7.7860  -0.6664   2.0069   2.1418

          k =-0.2000 0.6000-0.2000 (  1484 PWs)   bands (ev):

    -7.2422  -1.7736   1.4483   1.9922

          k = 0.7000-0.3000 0.7000 (  1493 PWs)   bands (ev):

    -6.7462  -2.6091   0.9763   2.0125

          k = 0.6000-0.2000 0.6000 (  1491 PWs)   bands (ev):

    -6.6637  -2.7305   0.7272   2.1970

          k = 0.5000-0.1000 0.5000 (  1495 PWs)   bands (ev):

    -7.0797  -2.0678   0.7861   2.5049

          k = 0.4000 0.0000 0.4000 (  1496 PWs)   bands (ev):

    -7.6353  -1.1118   1.2704   2.8507

          k = 0.0000 0.6000 0.0000 (  1491 PWs)   bands (ev):

    -7.4583  -1.1944   1.8087   1.8087

          k =-0.1000 0.7000-0.1000 (  1492 PWs)   bands (ev):

    -6.9818  -1.9768   1.3214   1.6220

          k = 0.8000-0.2000 0.8000 (  1494 PWs)   bands (ev):

    -6.5011  -2.6412   0.6292   1.6179

          k = 0.7000-0.1000 0.7000 (  1502 PWs)   bands (ev):

    -6.3141  -2.8562   0.1433   1.7956

          k = 0.6000-0.0000 0.6000 (  1500 PWs)   bands (ev):

    -6.5913  -2.5352   0.1387   2.1199

          k = 0.0000 0.8000 0.0000 (  1496 PWs)   bands (ev):

    -6.5997  -2.5243   1.3899   1.3899

          k = 0.9000-0.1000 0.9000 (  1495 PWs)   bands (ev):

    -6.2325  -2.9781   0.9505   1.3419

          k = 0.8000 0.0000 0.8000 (  1496 PWs)   bands (ev):

    -6.1121  -3.0548   0.3249   1.4865

          k = 0.0000-1.0000 0.0000 (  1524 PWs)   bands (ev):

    -6.1022  -3.1797   1.2430   1.2430

          k =-0.2000 0.4000 0.0000 (  1486 PWs)   bands (ev):

    -8.0465  -0.1869   2.0282   2.7548

          k =-0.3000 0.5000-0.1000 (  1490 PWs)   bands (ev):

    -7.5335  -1.3265   1.4650   2.4904

          k = 0.6000-0.4000 0.8000 (  1490 PWs)   bands (ev):

    -6.9783  -2.3535   1.1716   2.2328

          k = 0.5000-0.3000 0.7000 (  1496 PWs)   bands (ev):

    -6.7016  -2.8023   1.0833   2.1299

          k =-0.2000 0.6000 0.0000 (  1491 PWs)   bands (ev):

    -7.3425  -1.4472   1.3900   1.9373

          k = 0.7000-0.3000 0.9000 (  1500 PWs)   bands (ev):

    -6.8141  -2.2613   0.8288   1.6913

          k = 0.6000-0.2000 0.8000 (  1504 PWs)   bands (ev):

    -6.4441  -2.7713   0.4373   1.6464

          k = 0.5000-0.1000 0.7000 (  1500 PWs)   bands (ev):

    -6.5504  -2.6238   0.3335   1.8364

          k = 0.4000 0.0000 0.6000 (  1497 PWs)   bands (ev):

    -7.0229  -1.9972   0.6539   2.1757

          k = 0.8000-0.2000 1.0000 (  1498 PWs)   bands (ev):

    -6.5347  -2.5678   1.0092   1.2884

          k = 0.7000-0.1000 0.9000 (  1495 PWs)   bands (ev):

    -6.1943  -2.9340   0.4443   1.2133

          k = 0.6000 0.0000 0.8000 (  1493 PWs)   bands (ev):

    -6.2098  -2.8922   0.0887   1.4407

          k =-0.2000-1.0000 0.0000 (  1510 PWs)   bands (ev):

    -6.0851  -3.1197   0.9589   0.9726

          k = 0.6000-0.2000 1.0000 (  1504 PWs)   bands (ev):

    -6.3754  -2.7035   0.3874   1.2499

          k = 0.5000-0.1000 0.9000 (  1502 PWs)   bands (ev):

    -6.1701  -2.9075   0.2499   1.0437

          k =-0.4000-1.0000 0.0000 (  1496 PWs)   bands (ev):

    -6.0570  -3.0133   0.5492   0.6186

     highest occupied level (ev):     3.4246

!    total energy              =     -19.04803436 Ry
     estimated scf accuracy    <       0.00000063 Ry

     The total energy is the sum of the following terms:
     one-electron contribution =       0.71900195 Ry
     hartree contribution      =       2.84222896 Ry
     xc contribution           =      -5.37323509 Ry
     ewald contribution        =     -17.23603017 Ry

     convergence has been achieved in  31 iterations
     Writing meta-gga kinetic term

     Writing all to output data dir ./input_pw/SiC/11/pwscf.save/
     Writing meta-gga kinetic term
 
     init_run     :      1.36s CPU      3.63s WALL (       1 calls)
     electrons    :     33.90s CPU     70.65s WALL (       1 calls)

     Called by init_run:
     wfcinit      :      1.23s CPU      3.18s WALL (       1 calls)
     potinit      :      0.02s CPU      0.11s WALL (       1 calls)
     hinit0       :      0.09s CPU      0.29s WALL (       1 calls)

     Called by electrons:
     c_bands      :     26.14s CPU     54.47s WALL (      31 calls)
     sum_band     :      6.64s CPU     13.89s WALL (      31 calls)
     v_of_rho     :      0.62s CPU      1.40s WALL (      32 calls)
     mix_rho      :      0.50s CPU      0.97s WALL (      31 calls)

     Called by c_bands:
     init_us_2    :      0.56s CPU      1.16s WALL (    2961 calls)
     init_us_2:cp :      0.55s CPU      1.12s WALL (    2961 calls)
     cegterg      :     25.61s CPU     53.33s WALL (    1457 calls)

     Called by *egterg:
     cdiaghg      :      0.18s CPU      0.35s WALL (    3218 calls)
     h_psi        :     26.03s CPU     54.80s WALL (    3265 calls)
     g_psi        :      0.03s CPU      0.06s WALL (    1761 calls)

     Called by h_psi:
     h_psi:calbec :      0.13s CPU      0.25s WALL (    3265 calls)
     vloc_psi     :      6.34s CPU     13.91s WALL (    3265 calls)
     add_vuspsi   :      0.13s CPU      0.26s WALL (    3265 calls)
     h_psi_meta   :     19.35s CPU     40.25s WALL (    3265 calls)

     General routines
     calbec       :      0.12s CPU      0.21s WALL (    3265 calls)
     fft          :      0.08s CPU      0.22s WALL (     381 calls)
     ffts         :      0.14s CPU      0.34s WALL (     688 calls)
     fftw         :     26.40s CPU     55.98s WALL (  128464 calls)
     interpolate  :      0.00s CPU      0.00s WALL (      32 calls)
 
     Parallel routines
 
     PWSCF        :     35.31s CPU   1m14.46s WALL

 
   This run was terminated on:  12: 3:45  14Mar2023            

=------------------------------------------------------------------------------=
   JOB DONE.
=------------------------------------------------------------------------------=
