
     Program PWSCF v.7.0 starts on 29Mar2023 at 12:56: 4 

     This program is part of the open-source Quantum ESPRESSO suite
     for quantum simulation of materials; please cite
         "P. Giannozzi et al., J. Phys.:Condens. Matter 21 395502 (2009);
         "P. Giannozzi et al., J. Phys.:Condens. Matter 29 465901 (2017);
         "P. Giannozzi et al., J. Chem. Phys. 152 154105 (2020);
          URL http://www.quantum-espresso.org", 
     in publications or presentations arising from this work. More details at
     http://www.quantum-espresso.org/quote

     Parallel version (MPI), running on     1 processors

     MPI processes distributed on     1 nodes
     23151 MiB available memory on the printing compute node when the environment starts
 
     Waiting for input...
     Reading input from standard input
Warning: card &CELL ignored
Warning: card / ignored

     Current dimensions of program PWSCF are:
     Max number of different atomic species (ntypx) = 10
     Max number of k-points (npk) =  40000
     Max angular momentum in pseudopotentials (lmaxx) =  4
     file Si.SCAN.UPF2: wavefunction(s)  0D renormalized

     WARNING: the MGGA functional with ID    5 has been 
     read together with other dft terms, but it should 
     stand alone in order to work properly. The other 
     terms will be ignored.

     WARNING: the MGGA functional with ID    5 has been 
     read together with other dft terms, but it should 
     stand alone in order to work properly. The other 
     terms will be ignored.

     Subspace diagonalization in iterative solution of the eigenvalue problem:
     a serial algorithm will be used

 
     G-vector sticks info
     --------------------
     sticks:   dense  smooth     PW     G-vecs:    dense   smooth      PW
     Sum         313     313    109                 3719     3719     749
 
     Using Slab Decomposition
 


     bravais-lattice index     =            2
     lattice parameter (alat)  =       6.8030  a.u.
     unit-cell volume          =      78.7126 (a.u.)^3
     number of atoms/cell      =            2
     number of atomic types    =            2
     number of electrons       =         8.00
     number of Kohn-Sham states=            4
     kinetic-energy cutoff     =      50.0000  Ry
     charge density cutoff     =     200.0000  Ry
     scf convergence threshold =      1.0E-06
     mixing beta               =       0.0100
     number of iterations used =            8  local-TF  mixing
     Exchange-correlation= SLA  PW   SCAN SCAN
                           (   0   0   0   0   0 263 267)

     celldm(1)=   6.803014  celldm(2)=   0.000000  celldm(3)=   0.000000
     celldm(4)=   0.000000  celldm(5)=   0.000000  celldm(6)=   0.000000

     crystal axes: (cart. coord. in units of alat)
               a(1) = (  -0.500000   0.000000   0.500000 )  
               a(2) = (   0.000000   0.500000   0.500000 )  
               a(3) = (  -0.500000   0.500000   0.000000 )  

     reciprocal axes: (cart. coord. in units 2 pi/alat)
               b(1) = ( -1.000000 -1.000000  1.000000 )  
               b(2) = (  1.000000  1.000000  1.000000 )  
               b(3) = ( -1.000000  1.000000 -1.000000 )  


     PseudoPot. # 1 for Si read from file:
     ~/Documents/TA/PWDFT.jl/pseudopotentials/scan_upf/Si.SCAN.UPF2
     MD5 check sum: Not computed, couldn't open file
     Pseudo is Norm-conserving, Zval =  4.0
     Generated by new atomic code, or converted to UPF format
     Using radial grid of 1475 points,  2 beta functions with: 
                l(1) =   0
                l(2) =   1

     PseudoPot. # 2 for C  read from file:
     ~/Documents/TA/PWDFT.jl/pseudopotentials/scan_upf/C.SCAN.UPF2
     MD5 check sum: Not computed, couldn't open file
     Pseudo is Norm-conserving, Zval =  4.0
     Generated by new atomic code, or converted to UPF format
     Using radial grid of 1389 points,  1 beta functions with: 
                l(1) =   0

     atomic species   valence    mass     pseudopotential
        Si             4.00    28.08550     Si( 1.00)
        C              4.00    12.01100     C ( 1.00)

     24 Sym. Ops. (no inversion) found



   Cartesian axes

     site n.     atom                  positions (alat units)
         1           Si  tau(   1) = (   0.0000000   0.0000000   0.0000000  )
         2           C   tau(   2) = (   0.2500000   0.2500000   0.2500000  )

     number of k points=    47
                       cart. coord. in units 2pi/alat
        k(    1) = (   0.0000000   0.0000000   0.0000000), wk =   0.0020000
        k(    2) = (  -0.1000000   0.1000000  -0.1000000), wk =   0.0160000
        k(    3) = (  -0.2000000   0.2000000  -0.2000000), wk =   0.0160000
        k(    4) = (  -0.3000000   0.3000000  -0.3000000), wk =   0.0160000
        k(    5) = (  -0.4000000   0.4000000  -0.4000000), wk =   0.0160000
        k(    6) = (   0.5000000  -0.5000000   0.5000000), wk =   0.0080000
        k(    7) = (   0.0000000   0.2000000   0.0000000), wk =   0.0120000
        k(    8) = (  -0.1000000   0.3000000  -0.1000000), wk =   0.0480000
        k(    9) = (  -0.2000000   0.4000000  -0.2000000), wk =   0.0480000
        k(   10) = (  -0.3000000   0.5000000  -0.3000000), wk =   0.0480000
        k(   11) = (   0.6000000  -0.4000000   0.6000000), wk =   0.0480000
        k(   12) = (   0.5000000  -0.3000000   0.5000000), wk =   0.0480000
        k(   13) = (   0.4000000  -0.2000000   0.4000000), wk =   0.0480000
        k(   14) = (   0.3000000  -0.1000000   0.3000000), wk =   0.0480000
        k(   15) = (   0.2000000   0.0000000   0.2000000), wk =   0.0240000
        k(   16) = (   0.0000000   0.4000000   0.0000000), wk =   0.0120000
        k(   17) = (  -0.1000000   0.5000000  -0.1000000), wk =   0.0480000
        k(   18) = (  -0.2000000   0.6000000  -0.2000000), wk =   0.0480000
        k(   19) = (   0.7000000  -0.3000000   0.7000000), wk =   0.0480000
        k(   20) = (   0.6000000  -0.2000000   0.6000000), wk =   0.0480000
        k(   21) = (   0.5000000  -0.1000000   0.5000000), wk =   0.0480000
        k(   22) = (   0.4000000   0.0000000   0.4000000), wk =   0.0240000
        k(   23) = (   0.0000000   0.6000000   0.0000000), wk =   0.0120000
        k(   24) = (  -0.1000000   0.7000000  -0.1000000), wk =   0.0480000
        k(   25) = (   0.8000000  -0.2000000   0.8000000), wk =   0.0480000
        k(   26) = (   0.7000000  -0.1000000   0.7000000), wk =   0.0480000
        k(   27) = (   0.6000000  -0.0000000   0.6000000), wk =   0.0240000
        k(   28) = (   0.0000000   0.8000000   0.0000000), wk =   0.0120000
        k(   29) = (   0.9000000  -0.1000000   0.9000000), wk =   0.0480000
        k(   30) = (   0.8000000   0.0000000   0.8000000), wk =   0.0240000
        k(   31) = (   0.0000000  -1.0000000   0.0000000), wk =   0.0060000
        k(   32) = (  -0.2000000   0.4000000   0.0000000), wk =   0.0480000
        k(   33) = (  -0.3000000   0.5000000  -0.1000000), wk =   0.0960000
        k(   34) = (   0.6000000  -0.4000000   0.8000000), wk =   0.0960000
        k(   35) = (   0.5000000  -0.3000000   0.7000000), wk =   0.0480000
        k(   36) = (  -0.2000000   0.6000000   0.0000000), wk =   0.0480000
        k(   37) = (   0.7000000  -0.3000000   0.9000000), wk =   0.0960000
        k(   38) = (   0.6000000  -0.2000000   0.8000000), wk =   0.0960000
        k(   39) = (   0.5000000  -0.1000000   0.7000000), wk =   0.0960000
        k(   40) = (   0.4000000   0.0000000   0.6000000), wk =   0.0480000
        k(   41) = (   0.8000000  -0.2000000   1.0000000), wk =   0.0480000
        k(   42) = (   0.7000000  -0.1000000   0.9000000), wk =   0.0960000
        k(   43) = (   0.6000000   0.0000000   0.8000000), wk =   0.0480000
        k(   44) = (  -0.2000000  -1.0000000   0.0000000), wk =   0.0240000
        k(   45) = (   0.6000000  -0.2000000   1.0000000), wk =   0.0480000
        k(   46) = (   0.5000000  -0.1000000   0.9000000), wk =   0.0480000
        k(   47) = (  -0.4000000  -1.0000000   0.0000000), wk =   0.0240000

     Dense  grid:     3719 G-vectors     FFT dimensions: (  24,  24,  24)

     Estimated max dynamical RAM per process >       7.52 MB

     WARNING: libxc functional with ID  263 depends
      on external parameters: check the user_guide of
      QE if you need to modify them or to check their
      default values.

     Initial potential from superposition of free atoms

     starting charge       7.9995, renormalised to       8.0000
     Starting wfcs are   13 randomized atomic wfcs

     total cpu time spent up to now is        2.1 secs

     Self-consistent Calculation

     iteration #  1     ecut=    50.00 Ry     beta= 0.01
     Davidson diagonalization with overlap
     ethr =  1.00E-02,  avg # of iterations =  2.0

     total cpu time spent up to now is        3.9 secs

     total energy              =     -18.99216793 Ry
     estimated scf accuracy    <       4.13226235 Ry

     iteration #  2     ecut=    50.00 Ry     beta= 0.01
     Davidson diagonalization with overlap
     ethr =  1.00E-02,  avg # of iterations =  1.0

     total cpu time spent up to now is        5.2 secs

     total energy              =     -18.81747940 Ry
     estimated scf accuracy    <       4.01343219 Ry

     iteration #  3     ecut=    50.00 Ry     beta= 0.01
     Davidson diagonalization with overlap
     ethr =  1.00E-02,  avg # of iterations =  1.0

     total cpu time spent up to now is        6.5 secs

     total energy              =     -18.80217961 Ry
     estimated scf accuracy    <       0.42998682 Ry

     iteration #  4     ecut=    50.00 Ry     beta= 0.01
     Davidson diagonalization with overlap
     ethr =  5.37E-03,  avg # of iterations =  1.0

     total cpu time spent up to now is        7.8 secs

     total energy              =     -18.82346665 Ry
     estimated scf accuracy    <       0.07927116 Ry

     iteration #  5     ecut=    50.00 Ry     beta= 0.01
     Davidson diagonalization with overlap
     ethr =  9.91E-04,  avg # of iterations =  1.0

     total cpu time spent up to now is        9.1 secs

     total energy              =     -18.86165120 Ry
     estimated scf accuracy    <       0.06067811 Ry

     iteration #  6     ecut=    50.00 Ry     beta= 0.01
     Davidson diagonalization with overlap
     ethr =  7.58E-04,  avg # of iterations =  2.0

     total cpu time spent up to now is       11.0 secs

     total energy              =     -18.81145844 Ry
     estimated scf accuracy    <       0.56077623 Ry

     iteration #  7     ecut=    50.00 Ry     beta= 0.01
     Davidson diagonalization with overlap
     ethr =  7.58E-04,  avg # of iterations =  2.0

     total cpu time spent up to now is       12.9 secs

     total energy              =     -18.83637032 Ry
     estimated scf accuracy    <       0.00345988 Ry

     iteration #  8     ecut=    50.00 Ry     beta= 0.01
     Davidson diagonalization with overlap
     ethr =  4.32E-05,  avg # of iterations =  1.9

     total cpu time spent up to now is       14.4 secs

     total energy              =     -18.83686318 Ry
     estimated scf accuracy    <       0.00693496 Ry

     iteration #  9     ecut=    50.00 Ry     beta= 0.01
     Davidson diagonalization with overlap
     ethr =  4.32E-05,  avg # of iterations =  1.0

     total cpu time spent up to now is       15.7 secs

     total energy              =     -18.83673906 Ry
     estimated scf accuracy    <       0.01015797 Ry

     iteration # 10     ecut=    50.00 Ry     beta= 0.01
     Davidson diagonalization with overlap
     ethr =  4.32E-05,  avg # of iterations =  1.0

     total cpu time spent up to now is       17.1 secs

     total energy              =     -18.83636003 Ry
     estimated scf accuracy    <       0.00685078 Ry

     iteration # 11     ecut=    50.00 Ry     beta= 0.01
     Davidson diagonalization with overlap
     ethr =  4.32E-05,  avg # of iterations =  2.0

     total cpu time spent up to now is       18.8 secs

     total energy              =     -18.83681199 Ry
     estimated scf accuracy    <       0.00134365 Ry

     iteration # 12     ecut=    50.00 Ry     beta= 0.01
     Davidson diagonalization with overlap
     ethr =  1.68E-05,  avg # of iterations =  1.0

     total cpu time spent up to now is       20.2 secs

     total energy              =     -18.83682373 Ry
     estimated scf accuracy    <       0.00107660 Ry

     iteration # 13     ecut=    50.00 Ry     beta= 0.01
     Davidson diagonalization with overlap
     ethr =  1.35E-05,  avg # of iterations =  1.0

     total cpu time spent up to now is       21.5 secs

     total energy              =     -18.83682292 Ry
     estimated scf accuracy    <       0.00119262 Ry

     iteration # 14     ecut=    50.00 Ry     beta= 0.01
     Davidson diagonalization with overlap
     ethr =  1.35E-05,  avg # of iterations =  1.0

     total cpu time spent up to now is       22.9 secs

     total energy              =     -18.83670086 Ry
     estimated scf accuracy    <       0.00129487 Ry

     iteration # 15     ecut=    50.00 Ry     beta= 0.01
     Davidson diagonalization with overlap
     ethr =  1.35E-05,  avg # of iterations =  1.0

     total cpu time spent up to now is       24.2 secs

     total energy              =     -18.83671625 Ry
     estimated scf accuracy    <       0.00013748 Ry

     iteration # 16     ecut=    50.00 Ry     beta= 0.01
     Davidson diagonalization with overlap
     ethr =  1.72E-06,  avg # of iterations =  1.0

     total cpu time spent up to now is       25.6 secs

     total energy              =     -18.83671990 Ry
     estimated scf accuracy    <       0.00002966 Ry

     iteration # 17     ecut=    50.00 Ry     beta= 0.01
     Davidson diagonalization with overlap
     ethr =  3.71E-07,  avg # of iterations =  1.0

     total cpu time spent up to now is       27.1 secs

     total energy              =     -18.83671980 Ry
     estimated scf accuracy    <       0.00002357 Ry

     iteration # 18     ecut=    50.00 Ry     beta= 0.01
     Davidson diagonalization with overlap
     ethr =  2.95E-07,  avg # of iterations =  1.0

     total cpu time spent up to now is       28.4 secs

     total energy              =     -18.83671916 Ry
     estimated scf accuracy    <       0.00000662 Ry

     iteration # 19     ecut=    50.00 Ry     beta= 0.01
     Davidson diagonalization with overlap
     ethr =  8.27E-08,  avg # of iterations =  1.0

     total cpu time spent up to now is       29.8 secs

     total energy              =     -18.83672023 Ry
     estimated scf accuracy    <       0.00000559 Ry

     iteration # 20     ecut=    50.00 Ry     beta= 0.01
     Davidson diagonalization with overlap
     ethr =  6.98E-08,  avg # of iterations =  2.0

     total cpu time spent up to now is       31.4 secs

     total energy              =     -18.83672157 Ry
     estimated scf accuracy    <       0.00001678 Ry

     iteration # 21     ecut=    50.00 Ry     beta= 0.01
     Davidson diagonalization with overlap
     ethr =  6.98E-08,  avg # of iterations =  1.0

     total cpu time spent up to now is       32.5 secs

     total energy              =     -18.83672088 Ry
     estimated scf accuracy    <       0.00002196 Ry

     iteration # 22     ecut=    50.00 Ry     beta= 0.01
     Davidson diagonalization with overlap
     ethr =  6.98E-08,  avg # of iterations =  1.0

     total cpu time spent up to now is       33.7 secs

     total energy              =     -18.83672054 Ry
     estimated scf accuracy    <       0.00001335 Ry

     iteration # 23     ecut=    50.00 Ry     beta= 0.01
     Davidson diagonalization with overlap
     ethr =  6.98E-08,  avg # of iterations =  1.0

     total cpu time spent up to now is       34.7 secs

     total energy              =     -18.83672169 Ry
     estimated scf accuracy    <       0.00000395 Ry

     iteration # 24     ecut=    50.00 Ry     beta= 0.01
     Davidson diagonalization with overlap
     ethr =  4.93E-08,  avg # of iterations =  1.0

     total cpu time spent up to now is       35.7 secs

     total energy              =     -18.83672301 Ry
     estimated scf accuracy    <       0.00000710 Ry

     iteration # 25     ecut=    50.00 Ry     beta= 0.01
     Davidson diagonalization with overlap
     ethr =  4.93E-08,  avg # of iterations =  1.0

     total cpu time spent up to now is       36.9 secs

     total energy              =     -18.83672173 Ry
     estimated scf accuracy    <       0.00001604 Ry

     iteration # 26     ecut=    50.00 Ry     beta= 0.01
     Davidson diagonalization with overlap
     ethr =  4.93E-08,  avg # of iterations =  1.0

     total cpu time spent up to now is       37.9 secs

     total energy              =     -18.83672017 Ry
     estimated scf accuracy    <       0.00000762 Ry

     iteration # 27     ecut=    50.00 Ry     beta= 0.01
     Davidson diagonalization with overlap
     ethr =  4.93E-08,  avg # of iterations =  2.0

     total cpu time spent up to now is       39.3 secs

     total energy              =     -18.83672118 Ry
     estimated scf accuracy    <       0.00000116 Ry

     iteration # 28     ecut=    50.00 Ry     beta= 0.01
     Davidson diagonalization with overlap
     ethr =  1.45E-08,  avg # of iterations =  2.0

     total cpu time spent up to now is       40.7 secs

     End of self-consistent calculation

          k = 0.0000 0.0000 0.0000 (   459 PWs)   bands (ev):

    -3.3876  17.9808  17.9808  17.9808

          k =-0.1000 0.1000-0.1000 (   495 PWs)   bands (ev):

    -3.0791  16.7905  17.8366  17.8366

          k =-0.2000 0.2000-0.2000 (   483 PWs)   bands (ev):

    -2.1617  14.0270  17.5343  17.5343

          k =-0.3000 0.3000-0.3000 (   477 PWs)   bands (ev):

    -0.6667  10.7272  17.2140  17.2140

          k =-0.4000 0.4000-0.4000 (   471 PWs)   bands (ev):

     1.3133   7.5209  16.9875  16.9875

          k = 0.5000-0.5000 0.5000 (   464 PWs)   bands (ev):

     2.9396   5.4673  16.9094  16.9094

          k = 0.0000 0.2000 0.0000 (   487 PWs)   bands (ev):

    -2.9764  17.2902  17.3644  17.3644

          k =-0.1000 0.3000-0.1000 (   478 PWs)   bands (ev):

    -2.2624  15.0843  16.8283  17.4128

          k =-0.2000 0.4000-0.2000 (   474 PWs)   bands (ev):

    -0.9596  11.9931  16.4398  17.0740

          k =-0.3000 0.5000-0.3000 (   471 PWs)   bands (ev):

     0.8687   8.7656  16.3081  16.5356

          k = 0.6000-0.4000 0.6000 (   469 PWs)   bands (ev):

     2.8769   6.0721  16.0174  16.4552

          k = 0.5000-0.3000 0.5000 (   470 PWs)   bands (ev):

     2.2607   6.8284  15.6859  16.8395

          k = 0.4000-0.2000 0.4000 (   471 PWs)   bands (ev):

     0.2080   9.8240  15.6411  17.3510

          k = 0.3000-0.1000 0.3000 (   479 PWs)   bands (ev):

    -1.4574  13.0383  15.9319  17.8123

          k = 0.2000 0.0000 0.2000 (   485 PWs)   bands (ev):

    -2.5676  15.6795  16.6984  18.0179

          k = 0.0000 0.4000 0.0000 (   480 PWs)   bands (ev):

    -1.7558  15.5964  16.0666  16.0666

          k =-0.1000 0.5000-0.1000 (   471 PWs)   bands (ev):

    -0.6583  13.2825  15.5230  15.7996

          k =-0.2000 0.6000-0.2000 (   465 PWs)   bands (ev):

     0.9815  10.3539  14.9503  15.3163

          k = 0.7000-0.3000 0.7000 (   462 PWs)   bands (ev):

     2.9744   7.5459  13.9674  15.4844

          k = 0.6000-0.2000 0.6000 (   471 PWs)   bands (ev):

     3.5419   6.8615  13.2435  15.9942

          k = 0.5000-0.1000 0.5000 (   471 PWs)   bands (ev):

     1.6174   9.3657  12.9988  16.7378

          k = 0.4000 0.0000 0.4000 (   475 PWs)   bands (ev):

    -0.1737  11.8749  13.7086  17.4653

          k = 0.0000 0.6000 0.0000 (   464 PWs)   bands (ev):

     0.2274  13.1821  14.8105  14.8105

          k =-0.1000 0.7000-0.1000 (   464 PWs)   bands (ev):

     1.6544  11.3448  13.7070  14.4637

          k = 0.8000-0.2000 0.8000 (   468 PWs)   bands (ev):

     3.4800   9.2134  11.9356  14.5329

          k = 0.7000-0.1000 0.7000 (   468 PWs)   bands (ev):

     4.7547   7.8648  10.6451  15.0103

          k = 0.6000-0.0000 0.6000 (   462 PWs)   bands (ev):

     3.4176   9.0397  10.5968  15.8199

          k = 0.0000 0.8000 0.0000 (   460 PWs)   bands (ev):

     2.8452  10.1029  13.9612  13.9612

          k = 0.9000-0.1000 0.9000 (   464 PWs)   bands (ev):

     4.3774   8.6537  12.5383  13.8895

          k = 0.8000 0.0000 0.8000 (   468 PWs)   bands (ev):

     5.3502   8.3957  10.2147  14.2564

          k = 0.0000-1.0000 0.0000 (   468 PWs)   bands (ev):

     5.0786   7.6331  13.6637  13.6637

          k =-0.2000 0.4000 0.0000 (   474 PWs)   bands (ev):

    -1.3559  13.8193  15.2992  17.2670

          k =-0.3000 0.5000-0.1000 (   471 PWs)   bands (ev):

     0.1186  11.1975  14.4980  16.7466

          k = 0.6000-0.4000 0.8000 (   468 PWs)   bands (ev):

     2.0554   8.2110  14.3504  16.0429

          k = 0.5000-0.3000 0.7000 (   466 PWs)   bands (ev):

     3.5960   6.2841  14.3971  15.6843

          k =-0.2000 0.6000 0.0000 (   467 PWs)   bands (ev):

     0.6083  12.0767  13.9471  15.2914

          k = 0.7000-0.3000 0.9000 (   471 PWs)   bands (ev):

     2.3616   9.8348  13.0225  14.4306

          k = 0.6000-0.2000 0.8000 (   465 PWs)   bands (ev):

     4.1824   7.5995  12.2708  14.3092

          k = 0.5000-0.1000 0.7000 (   469 PWs)   bands (ev):

     3.6317   8.2500  11.7449  14.9293

          k = 0.4000 0.0000 0.6000 (   472 PWs)   bands (ev):

     1.7198  10.3397  12.2081  15.9003

          k = 0.8000-0.2000 1.0000 (   467 PWs)   bands (ev):

     3.1771  10.0394  13.0251  13.1845

          k = 0.7000-0.1000 0.9000 (   472 PWs)   bands (ev):

     4.8442   8.8758  10.8521  13.1997

          k = 0.6000 0.0000 0.8000 (   467 PWs)   bands (ev):

     5.1030   8.9080   9.5519  13.8609

          k =-0.2000-1.0000 0.0000 (   460 PWs)   bands (ev):

     5.2721   8.0190  12.4432  12.7318

          k = 0.6000-0.2000 1.0000 (   469 PWs)   bands (ev):

     4.0860   9.3924  11.2090  12.9744

          k = 0.5000-0.1000 0.9000 (   468 PWs)   bands (ev):

     5.2431   8.6213  10.7239  12.2938

          k =-0.4000-1.0000 0.0000 (   470 PWs)   bands (ev):

     5.6529   9.1197  10.8934  10.9915

     highest occupied level (ev):    18.0179

!    total energy              =     -18.83672134 Ry
     estimated scf accuracy    <       0.00000095 Ry

     The total energy is the sum of the following terms:
     one-electron contribution =      11.53246041 Ry
     hartree contribution      =       2.02196671 Ry
     xc contribution           =      -7.05274163 Ry
     ewald contribution        =     -25.33840683 Ry

     convergence has been achieved in  28 iterations
     Writing meta-gga kinetic term

     Writing all to output data dir ./input_pw/SiC/0/pwscf.save/
     Writing meta-gga kinetic term
 
     init_run     :      0.89s CPU      2.03s WALL (       1 calls)
     electrons    :     19.85s CPU     38.60s WALL (       1 calls)

     Called by init_run:
     wfcinit      :      0.79s CPU      1.86s WALL (       1 calls)
     potinit      :      0.01s CPU      0.03s WALL (       1 calls)
     hinit0       :      0.09s CPU      0.14s WALL (       1 calls)

     Called by electrons:
     c_bands      :     15.78s CPU     30.77s WALL (      28 calls)
     sum_band     :      3.68s CPU      7.05s WALL (      28 calls)
     v_of_rho     :      0.24s CPU      0.49s WALL (      29 calls)
     mix_rho      :      0.15s CPU      0.30s WALL (      28 calls)

     Called by c_bands:
     init_us_2    :      0.17s CPU      0.26s WALL (    2679 calls)
     init_us_2:cp :      0.16s CPU      0.25s WALL (    2679 calls)
     cegterg      :     15.60s CPU     30.44s WALL (    1316 calls)

     Called by *egterg:
     cdiaghg      :      0.14s CPU      0.26s WALL (    3005 calls)
     h_psi        :     15.98s CPU     31.58s WALL (    3052 calls)
     g_psi        :      0.01s CPU      0.03s WALL (    1689 calls)

     Called by h_psi:
     h_psi:calbec :      0.05s CPU      0.10s WALL (    3052 calls)
     vloc_psi     :      3.94s CPU      7.95s WALL (    3052 calls)
     add_vuspsi   :      0.05s CPU      0.09s WALL (    3052 calls)
     h_psi_meta   :     11.89s CPU     23.35s WALL (    3052 calls)

     General routines
     calbec       :      0.04s CPU      0.08s WALL (    3052 calls)
     fft          :      0.05s CPU      0.10s WALL (     345 calls)
     ffts         :      0.08s CPU      0.14s WALL (     553 calls)
     fftw         :     17.44s CPU     34.47s WALL (  120824 calls)
     interpolate  :      0.00s CPU      0.00s WALL (      29 calls)
 
     Parallel routines
 
     PWSCF        :     20.80s CPU     40.72s WALL

 
   This run was terminated on:  12:56:45  29Mar2023            

=------------------------------------------------------------------------------=
   JOB DONE.
=------------------------------------------------------------------------------=
