
     Program PWSCF v.7.0 starts on 14Mar2023 at 14:28:42 

     This program is part of the open-source Quantum ESPRESSO suite
     for quantum simulation of materials; please cite
         "P. Giannozzi et al., J. Phys.:Condens. Matter 21 395502 (2009);
         "P. Giannozzi et al., J. Phys.:Condens. Matter 29 465901 (2017);
         "P. Giannozzi et al., J. Chem. Phys. 152 154105 (2020);
          URL http://www.quantum-espresso.org", 
     in publications or presentations arising from this work. More details at
     http://www.quantum-espresso.org/quote

     Parallel version (MPI), running on     1 processors

     MPI processes distributed on     1 nodes
     27319 MiB available memory on the printing compute node when the environment starts
 
     Waiting for input...
     Reading input from standard input
Warning: card &CELL ignored
Warning: card / ignored

     Current dimensions of program PWSCF are:
     Max number of different atomic species (ntypx) = 10
     Max number of k-points (npk) =  40000
     Max angular momentum in pseudopotentials (lmaxx) =  4
     file Cl.SCAN.UPF2: wavefunction(s)  0D renormalized

     WARNING: the MGGA functional with ID    5 has been 
     read together with other dft terms, but it should 
     stand alone in order to work properly. The other 
     terms will be ignored.

     WARNING: the MGGA functional with ID    5 has been 
     read together with other dft terms, but it should 
     stand alone in order to work properly. The other 
     terms will be ignored.

     Subspace diagonalization in iterative solution of the eigenvalue problem:
     a serial algorithm will be used

 
     G-vector sticks info
     --------------------
     sticks:   dense  smooth     PW     G-vecs:    dense   smooth      PW
     Sum         367     367    121                 4693     4693     941
 
     Using Slab Decomposition
 


     bravais-lattice index     =            2
     lattice parameter (alat)  =       7.3420  a.u.
     unit-cell volume          =      98.9426 (a.u.)^3
     number of atoms/cell      =            2
     number of atomic types    =            2
     number of electrons       =         8.00
     number of Kohn-Sham states=            4
     kinetic-energy cutoff     =      50.0000  Ry
     charge density cutoff     =     200.0000  Ry
     scf convergence threshold =      1.0E-06
     mixing beta               =       0.0100
     number of iterations used =            8  local-TF  mixing
     Exchange-correlation= SLA  PW   SCAN SCAN
                           (   0   0   0   0   0 263 267)

     celldm(1)=   7.342000  celldm(2)=   0.000000  celldm(3)=   0.000000
     celldm(4)=   0.000000  celldm(5)=   0.000000  celldm(6)=   0.000000

     crystal axes: (cart. coord. in units of alat)
               a(1) = (  -0.500000   0.000000   0.500000 )  
               a(2) = (   0.000000   0.500000   0.500000 )  
               a(3) = (  -0.500000   0.500000   0.000000 )  

     reciprocal axes: (cart. coord. in units 2 pi/alat)
               b(1) = ( -1.000000 -1.000000  1.000000 )  
               b(2) = (  1.000000  1.000000  1.000000 )  
               b(3) = ( -1.000000  1.000000 -1.000000 )  


     PseudoPot. # 1 for Li read from file:
     ~/Documents/TA/PWDFT.jl/pseudopotentials/scan_upf/Li.SCAN.UPF2
     MD5 check sum: Not computed, couldn't open file
     Pseudo is Norm-conserving, Zval =  1.0
     Generated by new atomic code, or converted to UPF format
     Using radial grid of 1321 points,  1 beta functions with: 
                l(1) =   0

     PseudoPot. # 2 for Cl read from file:
     ~/Documents/TA/PWDFT.jl/pseudopotentials/scan_upf/Cl.SCAN.UPF2
     MD5 check sum: Not computed, couldn't open file
     Pseudo is Norm-conserving, Zval =  7.0
     Generated by new atomic code, or converted to UPF format
     Using radial grid of 1493 points,  2 beta functions with: 
                l(1) =   0
                l(2) =   1

     atomic species   valence    mass     pseudopotential
        Li             1.00     6.94100     Li( 1.00)
        Cl             7.00    35.45300     Cl( 1.00)

     48 Sym. Ops., with inversion, found



   Cartesian axes

     site n.     atom                  positions (alat units)
         1           Li  tau(   1) = (   0.0000000   0.0000000   0.0000000  )
         2           Cl  tau(   2) = (   0.5000000   0.5000000   0.5000000  )

     number of k points=    47
                       cart. coord. in units 2pi/alat
        k(    1) = (   0.0000000   0.0000000   0.0000000), wk =   0.0020000
        k(    2) = (  -0.1000000   0.1000000  -0.1000000), wk =   0.0160000
        k(    3) = (  -0.2000000   0.2000000  -0.2000000), wk =   0.0160000
        k(    4) = (  -0.3000000   0.3000000  -0.3000000), wk =   0.0160000
        k(    5) = (  -0.4000000   0.4000000  -0.4000000), wk =   0.0160000
        k(    6) = (   0.5000000  -0.5000000   0.5000000), wk =   0.0080000
        k(    7) = (   0.0000000   0.2000000   0.0000000), wk =   0.0120000
        k(    8) = (  -0.1000000   0.3000000  -0.1000000), wk =   0.0480000
        k(    9) = (  -0.2000000   0.4000000  -0.2000000), wk =   0.0480000
        k(   10) = (  -0.3000000   0.5000000  -0.3000000), wk =   0.0480000
        k(   11) = (   0.6000000  -0.4000000   0.6000000), wk =   0.0480000
        k(   12) = (   0.5000000  -0.3000000   0.5000000), wk =   0.0480000
        k(   13) = (   0.4000000  -0.2000000   0.4000000), wk =   0.0480000
        k(   14) = (   0.3000000  -0.1000000   0.3000000), wk =   0.0480000
        k(   15) = (   0.2000000   0.0000000   0.2000000), wk =   0.0240000
        k(   16) = (   0.0000000   0.4000000   0.0000000), wk =   0.0120000
        k(   17) = (  -0.1000000   0.5000000  -0.1000000), wk =   0.0480000
        k(   18) = (  -0.2000000   0.6000000  -0.2000000), wk =   0.0480000
        k(   19) = (   0.7000000  -0.3000000   0.7000000), wk =   0.0480000
        k(   20) = (   0.6000000  -0.2000000   0.6000000), wk =   0.0480000
        k(   21) = (   0.5000000  -0.1000000   0.5000000), wk =   0.0480000
        k(   22) = (   0.4000000   0.0000000   0.4000000), wk =   0.0240000
        k(   23) = (   0.0000000   0.6000000   0.0000000), wk =   0.0120000
        k(   24) = (  -0.1000000   0.7000000  -0.1000000), wk =   0.0480000
        k(   25) = (   0.8000000  -0.2000000   0.8000000), wk =   0.0480000
        k(   26) = (   0.7000000  -0.1000000   0.7000000), wk =   0.0480000
        k(   27) = (   0.6000000  -0.0000000   0.6000000), wk =   0.0240000
        k(   28) = (   0.0000000   0.8000000   0.0000000), wk =   0.0120000
        k(   29) = (   0.9000000  -0.1000000   0.9000000), wk =   0.0480000
        k(   30) = (   0.8000000   0.0000000   0.8000000), wk =   0.0240000
        k(   31) = (   0.0000000  -1.0000000   0.0000000), wk =   0.0060000
        k(   32) = (  -0.2000000   0.4000000   0.0000000), wk =   0.0480000
        k(   33) = (  -0.3000000   0.5000000  -0.1000000), wk =   0.0960000
        k(   34) = (   0.6000000  -0.4000000   0.8000000), wk =   0.0960000
        k(   35) = (   0.5000000  -0.3000000   0.7000000), wk =   0.0480000
        k(   36) = (  -0.2000000   0.6000000   0.0000000), wk =   0.0480000
        k(   37) = (   0.7000000  -0.3000000   0.9000000), wk =   0.0960000
        k(   38) = (   0.6000000  -0.2000000   0.8000000), wk =   0.0960000
        k(   39) = (   0.5000000  -0.1000000   0.7000000), wk =   0.0960000
        k(   40) = (   0.4000000   0.0000000   0.6000000), wk =   0.0480000
        k(   41) = (   0.8000000  -0.2000000   1.0000000), wk =   0.0480000
        k(   42) = (   0.7000000  -0.1000000   0.9000000), wk =   0.0960000
        k(   43) = (   0.6000000   0.0000000   0.8000000), wk =   0.0480000
        k(   44) = (  -0.2000000  -1.0000000   0.0000000), wk =   0.0240000
        k(   45) = (   0.6000000  -0.2000000   1.0000000), wk =   0.0480000
        k(   46) = (   0.5000000  -0.1000000   0.9000000), wk =   0.0480000
        k(   47) = (  -0.4000000  -1.0000000   0.0000000), wk =   0.0240000

     Dense  grid:     4693 G-vectors     FFT dimensions: (  24,  24,  24)

     Estimated max dynamical RAM per process >       9.01 MB

     WARNING: libxc functional with ID  263 depends
      on external parameters: check the user_guide of
      QE if you need to modify them or to check their
      default values.

     Initial potential from superposition of free atoms

     starting charge       7.9953, renormalised to       8.0000
     Starting wfcs are   13 randomized atomic wfcs

     total cpu time spent up to now is        2.7 secs

     Self-consistent Calculation

     iteration #  1     ecut=    50.00 Ry     beta= 0.01
     Davidson diagonalization with overlap
     ethr =  1.00E-02,  avg # of iterations =  2.0

     total cpu time spent up to now is        5.0 secs

     total energy              =     -30.26095663 Ry
     estimated scf accuracy    <       0.39388115 Ry

     iteration #  2     ecut=    50.00 Ry     beta= 0.01
     Davidson diagonalization with overlap
     ethr =  4.92E-03,  avg # of iterations =  1.0

     total cpu time spent up to now is        6.6 secs

     total energy              =     -30.34583991 Ry
     estimated scf accuracy    <       0.38262890 Ry

     iteration #  3     ecut=    50.00 Ry     beta= 0.01
     Davidson diagonalization with overlap
     ethr =  4.78E-03,  avg # of iterations =  1.0

     total cpu time spent up to now is        8.3 secs

     total energy              =     -30.37084856 Ry
     estimated scf accuracy    <       0.12466118 Ry

     iteration #  4     ecut=    50.00 Ry     beta= 0.01
     Davidson diagonalization with overlap
     ethr =  1.56E-03,  avg # of iterations =  1.0

     total cpu time spent up to now is        9.8 secs

     total energy              =     -30.37193371 Ry
     estimated scf accuracy    <       0.00379500 Ry

     iteration #  5     ecut=    50.00 Ry     beta= 0.01
     Davidson diagonalization with overlap
     ethr =  4.74E-05,  avg # of iterations =  1.0

     total cpu time spent up to now is       11.3 secs

     total energy              =     -30.37186389 Ry
     estimated scf accuracy    <       0.00348203 Ry

     iteration #  6     ecut=    50.00 Ry     beta= 0.01
     Davidson diagonalization with overlap
     ethr =  4.35E-05,  avg # of iterations =  1.0

     total cpu time spent up to now is       13.1 secs

     total energy              =     -30.37092212 Ry
     estimated scf accuracy    <       0.00272808 Ry

     iteration #  7     ecut=    50.00 Ry     beta= 0.01
     Davidson diagonalization with overlap
     ethr =  3.41E-05,  avg # of iterations =  2.0

     total cpu time spent up to now is       15.4 secs

     total energy              =     -30.37142612 Ry
     estimated scf accuracy    <       0.00052100 Ry

     iteration #  8     ecut=    50.00 Ry     beta= 0.01
     Davidson diagonalization with overlap
     ethr =  6.51E-06,  avg # of iterations =  1.0

     total cpu time spent up to now is       17.0 secs

     total energy              =     -30.37146179 Ry
     estimated scf accuracy    <       0.00057917 Ry

     iteration #  9     ecut=    50.00 Ry     beta= 0.01
     Davidson diagonalization with overlap
     ethr =  6.51E-06,  avg # of iterations =  1.0

     total cpu time spent up to now is       18.7 secs

     total energy              =     -30.37146971 Ry
     estimated scf accuracy    <       0.00077992 Ry

     iteration # 10     ecut=    50.00 Ry     beta= 0.01
     Davidson diagonalization with overlap
     ethr =  6.51E-06,  avg # of iterations =  1.0

     total cpu time spent up to now is       20.3 secs

     total energy              =     -30.37146170 Ry
     estimated scf accuracy    <       0.00083204 Ry

     iteration # 11     ecut=    50.00 Ry     beta= 0.01
     Davidson diagonalization with overlap
     ethr =  6.51E-06,  avg # of iterations =  1.0

     total cpu time spent up to now is       22.0 secs

     total energy              =     -30.37143422 Ry
     estimated scf accuracy    <       0.00029084 Ry

     iteration # 12     ecut=    50.00 Ry     beta= 0.01
     Davidson diagonalization with overlap
     ethr =  3.64E-06,  avg # of iterations =  1.0

     total cpu time spent up to now is       23.5 secs

     total energy              =     -30.37143978 Ry
     estimated scf accuracy    <       0.00018114 Ry

     iteration # 13     ecut=    50.00 Ry     beta= 0.01
     Davidson diagonalization with overlap
     ethr =  2.26E-06,  avg # of iterations =  1.0

     total cpu time spent up to now is       25.0 secs

     total energy              =     -30.37142205 Ry
     estimated scf accuracy    <       0.00019506 Ry

     iteration # 14     ecut=    50.00 Ry     beta= 0.01
     Davidson diagonalization with overlap
     ethr =  2.26E-06,  avg # of iterations =  1.0

     total cpu time spent up to now is       26.4 secs

     total energy              =     -30.37140127 Ry
     estimated scf accuracy    <       0.00011462 Ry

     iteration # 15     ecut=    50.00 Ry     beta= 0.01
     Davidson diagonalization with overlap
     ethr =  1.43E-06,  avg # of iterations =  1.0

     total cpu time spent up to now is       27.8 secs

     total energy              =     -30.37140265 Ry
     estimated scf accuracy    <       0.00003712 Ry

     iteration # 16     ecut=    50.00 Ry     beta= 0.01
     Davidson diagonalization with overlap
     ethr =  4.64E-07,  avg # of iterations =  1.0

     total cpu time spent up to now is       29.3 secs

     total energy              =     -30.37139128 Ry
     estimated scf accuracy    <       0.00003295 Ry

     iteration # 17     ecut=    50.00 Ry     beta= 0.01
     Davidson diagonalization with overlap
     ethr =  4.12E-07,  avg # of iterations =  1.9

     total cpu time spent up to now is       30.9 secs

     total energy              =     -30.37139449 Ry
     estimated scf accuracy    <       0.00000156 Ry

     iteration # 18     ecut=    50.00 Ry     beta= 0.01
     Davidson diagonalization with overlap
     ethr =  1.95E-08,  avg # of iterations =  2.0

     total cpu time spent up to now is       32.6 secs

     End of self-consistent calculation

          k = 0.0000 0.0000 0.0000 (   609 PWs)   bands (ev):

    -7.2297  12.6441  12.6441  12.6441

          k =-0.1000 0.1000-0.1000 (   576 PWs)   bands (ev):

    -7.0476  11.6456  12.5172  12.5172

          k =-0.2000 0.2000-0.2000 (   582 PWs)   bands (ev):

    -6.5259   9.3748  12.2278  12.2278

          k =-0.3000 0.3000-0.3000 (   595 PWs)   bands (ev):

    -5.7498   6.8970  11.9383  11.9383

          k =-0.4000 0.4000-0.4000 (   589 PWs)   bands (ev):

    -4.9441   4.9404  11.7482  11.7482

          k = 0.5000-0.5000 0.5000 (   580 PWs)   bands (ev):

    -4.5648   4.1602  11.6847  11.6847

          k = 0.0000 0.2000 0.0000 (   585 PWs)   bands (ev):

    -6.9846  12.0292  12.0292  12.1552

          k =-0.1000 0.3000-0.1000 (   582 PWs)   bands (ev):

    -6.5672  10.1728  11.4959  12.0775

          k =-0.2000 0.4000-0.2000 (   594 PWs)   bands (ev):

    -5.8551   7.7267  11.1246  11.6514

          k =-0.3000 0.5000-0.3000 (   594 PWs)   bands (ev):

    -5.0144   5.5500  11.0191  11.0806

          k = 0.6000-0.4000 0.6000 (   592 PWs)   bands (ev):

    -4.4305   4.3189  10.5886  11.1944

          k = 0.5000-0.3000 0.5000 (   592 PWs)   bands (ev):

    -4.5692   4.5993  10.3099  11.5939

          k = 0.4000-0.2000 0.4000 (   591 PWs)   bands (ev):

    -5.3017   6.2443  10.3133  12.0977

          k = 0.3000-0.1000 0.3000 (   586 PWs)   bands (ev):

    -6.1278   8.5946  10.6207  12.5357

          k = 0.2000 0.0000 0.2000 (   582 PWs)   bands (ev):

    -6.7494  10.7839  11.3416  12.7160

          k = 0.0000 0.4000 0.0000 (   584 PWs)   bands (ev):

    -6.2469  10.3574  10.7338  10.7338

          k =-0.1000 0.5000-0.1000 (   589 PWs)   bands (ev):

    -5.6048   8.2999  10.1967  10.2574

          k =-0.2000 0.6000-0.2000 (   594 PWs)   bands (ev):

    -4.7642   6.1531   9.4126  10.0013

          k = 0.7000-0.3000 0.7000 (   592 PWs)   bands (ev):

    -4.0393   4.6693   8.6032  10.1803

          k = 0.6000-0.2000 0.6000 (   597 PWs)   bands (ev):

    -3.9479   4.5415   8.0765  10.7026

          k = 0.5000-0.1000 0.5000 (   591 PWs)   bands (ev):

    -4.5754   5.8893   7.9179  11.4560

          k = 0.4000 0.0000 0.4000 (   592 PWs)   bands (ev):

    -5.4263   7.8987   8.3570  12.1961

          k = 0.0000 0.6000 0.0000 (   584 PWs)   bands (ev):

    -5.0260   7.3847   9.4909   9.4909

          k =-0.1000 0.7000-0.1000 (   591 PWs)   bands (ev):

    -4.2168   5.7252   8.6692   9.1503

          k = 0.8000-0.2000 0.8000 (   589 PWs)   bands (ev):

    -3.4436   4.4788   7.5281   9.2233

          k = 0.7000-0.1000 0.7000 (   591 PWs)   bands (ev):

    -3.2181   4.3296   6.6114   9.7015

          k = 0.6000-0.0000 0.6000 (   586 PWs)   bands (ev):

    -3.7464   5.4348   6.2605  10.5118

          k = 0.0000 0.8000 0.0000 (   600 PWs)   bands (ev):

    -3.4689   4.3570   8.6559   8.6559

          k = 0.9000-0.1000 0.9000 (   601 PWs)   bands (ev):

    -2.7965   3.3901   7.9613   8.5862

          k = 0.8000 0.0000 0.8000 (   586 PWs)   bands (ev):

    -2.6882   3.4868   6.9437   8.9496

          k = 0.0000-1.0000 0.0000 (   588 PWs)   bands (ev):

    -2.4731   2.8141   8.3657   8.3657

          k =-0.2000 0.4000 0.0000 (   585 PWs)   bands (ev):

    -6.0414   9.1559   9.9313  11.8729

          k =-0.3000 0.5000-0.1000 (   593 PWs)   bands (ev):

    -5.2557   7.0494   9.1546  11.4232

          k = 0.6000-0.4000 0.8000 (   590 PWs)   bands (ev):

    -4.4338   5.1428   8.8762  10.9160

          k = 0.5000-0.3000 0.7000 (   592 PWs)   bands (ev):

    -4.0439   4.3660   8.8057  10.6999

          k =-0.2000 0.6000 0.0000 (   594 PWs)   bands (ev):

    -4.8778   7.0153   8.6077  10.1139

          k = 0.7000-0.3000 0.9000 (   595 PWs)   bands (ev):

    -4.0324   5.4672   7.5890   9.8215

          k = 0.6000-0.2000 0.8000 (   595 PWs)   bands (ev):

    -3.4759   4.5488   6.9762   9.8252

          k = 0.5000-0.1000 0.7000 (   587 PWs)   bands (ev):

    -3.6735   5.0285   6.6814  10.2203

          k = 0.4000 0.0000 0.6000 (   587 PWs)   bands (ev):

    -4.4359   6.5607   6.9278  10.8639

          k = 0.8000-0.2000 1.0000 (   594 PWs)   bands (ev):

    -3.4245   4.4927   7.7286   8.9797

          k = 0.7000-0.1000 0.9000 (   592 PWs)   bands (ev):

    -2.8715   3.9298   6.6502   9.0585

          k = 0.6000 0.0000 0.8000 (   594 PWs)   bands (ev):

    -3.0016   4.4688   5.9180   9.5018

          k =-0.2000-1.0000 0.0000 (   604 PWs)   bands (ev):

    -2.5406   3.1511   7.4245   8.6295

          k = 0.6000-0.2000 1.0000 (   587 PWs)   bands (ev):

    -3.2736   5.0011   5.9939   9.5126

          k = 0.5000-0.1000 0.9000 (   596 PWs)   bands (ev):

    -2.9178   4.7674   5.4104   9.3636

          k =-0.4000-1.0000 0.0000 (   598 PWs)   bands (ev):

    -2.6447   4.1380   5.6729   9.0709

     highest occupied level (ev):    12.7160

!    total energy              =     -30.37139485 Ry
     estimated scf accuracy    <       0.00000043 Ry

     The total energy is the sum of the following terms:
     one-electron contribution =       7.30455780 Ry
     hartree contribution      =       2.47957496 Ry
     xc contribution           =      -6.85406145 Ry
     ewald contribution        =     -33.30146615 Ry

     convergence has been achieved in  18 iterations
     Writing meta-gga kinetic term

     Writing all to output data dir ./input_pw/LiCl/2/pwscf.save/
     Writing meta-gga kinetic term
 
     init_run     :      0.92s CPU      2.57s WALL (       1 calls)
     electrons    :     12.29s CPU     29.91s WALL (       1 calls)

     Called by init_run:
     wfcinit      :      0.80s CPU      2.18s WALL (       1 calls)
     potinit      :      0.01s CPU      0.06s WALL (       1 calls)
     hinit0       :      0.10s CPU      0.32s WALL (       1 calls)

     Called by electrons:
     c_bands      :      9.68s CPU     23.65s WALL (      18 calls)
     sum_band     :      2.35s CPU      5.62s WALL (      18 calls)
     v_of_rho     :      0.16s CPU      0.37s WALL (      19 calls)
     mix_rho      :      0.10s CPU      0.32s WALL (      18 calls)

     Called by c_bands:
     init_us_2    :      0.14s CPU      0.36s WALL (    1739 calls)
     init_us_2:cp :      0.13s CPU      0.36s WALL (    1739 calls)
     cegterg      :      9.54s CPU     23.28s WALL (     846 calls)

     Called by *egterg:
     cdiaghg      :      0.10s CPU      0.27s WALL (    1873 calls)
     h_psi        :     10.04s CPU     24.61s WALL (    1920 calls)
     g_psi        :      0.01s CPU      0.01s WALL (    1027 calls)

     Called by h_psi:
     h_psi:calbec :      0.04s CPU      0.04s WALL (    1920 calls)
     vloc_psi     :      2.47s CPU      6.07s WALL (    1920 calls)
     add_vuspsi   :      0.04s CPU      0.06s WALL (    1920 calls)
     h_psi_meta   :      7.46s CPU     18.36s WALL (    1920 calls)

     General routines
     calbec       :      0.03s CPU      0.03s WALL (    1920 calls)
     fft          :      0.03s CPU      0.11s WALL (     225 calls)
     ffts         :      0.05s CPU      0.18s WALL (     355 calls)
     fftw         :     10.85s CPU     26.72s WALL (   76792 calls)
     interpolate  :      0.00s CPU      0.00s WALL (      19 calls)
 
     Parallel routines
 
     PWSCF        :     13.28s CPU     32.69s WALL

 
   This run was terminated on:  14:29:15  14Mar2023            

=------------------------------------------------------------------------------=
   JOB DONE.
=------------------------------------------------------------------------------=
