
     Program PWSCF v.7.0 starts on 29Mar2023 at 10:21:34 

     This program is part of the open-source Quantum ESPRESSO suite
     for quantum simulation of materials; please cite
         "P. Giannozzi et al., J. Phys.:Condens. Matter 21 395502 (2009);
         "P. Giannozzi et al., J. Phys.:Condens. Matter 29 465901 (2017);
         "P. Giannozzi et al., J. Chem. Phys. 152 154105 (2020);
          URL http://www.quantum-espresso.org", 
     in publications or presentations arising from this work. More details at
     http://www.quantum-espresso.org/quote

     Parallel version (MPI), running on     1 processors

     MPI processes distributed on     1 nodes
     24477 MiB available memory on the printing compute node when the environment starts
 
     Waiting for input...
     Reading input from standard input
Warning: card &CELL ignored
Warning: card / ignored

     Current dimensions of program PWSCF are:
     Max number of different atomic species (ntypx) = 10
     Max number of k-points (npk) =  40000
     Max angular momentum in pseudopotentials (lmaxx) =  4
     file Cl.SCAN.UPF2: wavefunction(s)  0D renormalized

     WARNING: the MGGA functional with ID    5 has been 
     read together with other dft terms, but it should 
     stand alone in order to work properly. The other 
     terms will be ignored.

     WARNING: the MGGA functional with ID    5 has been 
     read together with other dft terms, but it should 
     stand alone in order to work properly. The other 
     terms will be ignored.

     Subspace diagonalization in iterative solution of the eigenvalue problem:
     a serial algorithm will be used

 
     G-vector sticks info
     --------------------
     sticks:   dense  smooth     PW     G-vecs:    dense   smooth      PW
     Sum         511     511    163                 7631     7631    1363
 
     Using Slab Decomposition
 


     bravais-lattice index     =            2
     lattice parameter (alat)  =       8.5717  a.u.
     unit-cell volume          =     157.4512 (a.u.)^3
     number of atoms/cell      =            2
     number of atomic types    =            2
     number of electrons       =         8.00
     number of Kohn-Sham states=            4
     kinetic-energy cutoff     =      50.0000  Ry
     charge density cutoff     =     200.0000  Ry
     scf convergence threshold =      1.0E-06
     mixing beta               =       0.0100
     number of iterations used =            8  local-TF  mixing
     Exchange-correlation= SLA  PW   SCAN SCAN
                           (   0   0   0   0   0 263 267)

     celldm(1)=   8.571733  celldm(2)=   0.000000  celldm(3)=   0.000000
     celldm(4)=   0.000000  celldm(5)=   0.000000  celldm(6)=   0.000000

     crystal axes: (cart. coord. in units of alat)
               a(1) = (  -0.500000   0.000000   0.500000 )  
               a(2) = (   0.000000   0.500000   0.500000 )  
               a(3) = (  -0.500000   0.500000   0.000000 )  

     reciprocal axes: (cart. coord. in units 2 pi/alat)
               b(1) = ( -1.000000 -1.000000  1.000000 )  
               b(2) = (  1.000000  1.000000  1.000000 )  
               b(3) = ( -1.000000  1.000000 -1.000000 )  


     PseudoPot. # 1 for Li read from file:
     ~/Documents/TA/PWDFT.jl/pseudopotentials/scan_upf/Li.SCAN.UPF2
     MD5 check sum: Not computed, couldn't open file
     Pseudo is Norm-conserving, Zval =  1.0
     Generated by new atomic code, or converted to UPF format
     Using radial grid of 1321 points,  1 beta functions with: 
                l(1) =   0

     PseudoPot. # 2 for Cl read from file:
     ~/Documents/TA/PWDFT.jl/pseudopotentials/scan_upf/Cl.SCAN.UPF2
     MD5 check sum: Not computed, couldn't open file
     Pseudo is Norm-conserving, Zval =  7.0
     Generated by new atomic code, or converted to UPF format
     Using radial grid of 1493 points,  2 beta functions with: 
                l(1) =   0
                l(2) =   1

     atomic species   valence    mass     pseudopotential
        Li             1.00     6.94100     Li( 1.00)
        Cl             7.00    35.45300     Cl( 1.00)

     48 Sym. Ops., with inversion, found



   Cartesian axes

     site n.     atom                  positions (alat units)
         1           Li  tau(   1) = (   0.0000000   0.0000000   0.0000000  )
         2           Cl  tau(   2) = (   0.5000000   0.5000000   0.5000000  )

     number of k points=    47
                       cart. coord. in units 2pi/alat
        k(    1) = (   0.0000000   0.0000000   0.0000000), wk =   0.0020000
        k(    2) = (  -0.1000000   0.1000000  -0.1000000), wk =   0.0160000
        k(    3) = (  -0.2000000   0.2000000  -0.2000000), wk =   0.0160000
        k(    4) = (  -0.3000000   0.3000000  -0.3000000), wk =   0.0160000
        k(    5) = (  -0.4000000   0.4000000  -0.4000000), wk =   0.0160000
        k(    6) = (   0.5000000  -0.5000000   0.5000000), wk =   0.0080000
        k(    7) = (   0.0000000   0.2000000   0.0000000), wk =   0.0120000
        k(    8) = (  -0.1000000   0.3000000  -0.1000000), wk =   0.0480000
        k(    9) = (  -0.2000000   0.4000000  -0.2000000), wk =   0.0480000
        k(   10) = (  -0.3000000   0.5000000  -0.3000000), wk =   0.0480000
        k(   11) = (   0.6000000  -0.4000000   0.6000000), wk =   0.0480000
        k(   12) = (   0.5000000  -0.3000000   0.5000000), wk =   0.0480000
        k(   13) = (   0.4000000  -0.2000000   0.4000000), wk =   0.0480000
        k(   14) = (   0.3000000  -0.1000000   0.3000000), wk =   0.0480000
        k(   15) = (   0.2000000   0.0000000   0.2000000), wk =   0.0240000
        k(   16) = (   0.0000000   0.4000000   0.0000000), wk =   0.0120000
        k(   17) = (  -0.1000000   0.5000000  -0.1000000), wk =   0.0480000
        k(   18) = (  -0.2000000   0.6000000  -0.2000000), wk =   0.0480000
        k(   19) = (   0.7000000  -0.3000000   0.7000000), wk =   0.0480000
        k(   20) = (   0.6000000  -0.2000000   0.6000000), wk =   0.0480000
        k(   21) = (   0.5000000  -0.1000000   0.5000000), wk =   0.0480000
        k(   22) = (   0.4000000   0.0000000   0.4000000), wk =   0.0240000
        k(   23) = (   0.0000000   0.6000000   0.0000000), wk =   0.0120000
        k(   24) = (  -0.1000000   0.7000000  -0.1000000), wk =   0.0480000
        k(   25) = (   0.8000000  -0.2000000   0.8000000), wk =   0.0480000
        k(   26) = (   0.7000000  -0.1000000   0.7000000), wk =   0.0480000
        k(   27) = (   0.6000000  -0.0000000   0.6000000), wk =   0.0240000
        k(   28) = (   0.0000000   0.8000000   0.0000000), wk =   0.0120000
        k(   29) = (   0.9000000  -0.1000000   0.9000000), wk =   0.0480000
        k(   30) = (   0.8000000   0.0000000   0.8000000), wk =   0.0240000
        k(   31) = (   0.0000000  -1.0000000   0.0000000), wk =   0.0060000
        k(   32) = (  -0.2000000   0.4000000   0.0000000), wk =   0.0480000
        k(   33) = (  -0.3000000   0.5000000  -0.1000000), wk =   0.0960000
        k(   34) = (   0.6000000  -0.4000000   0.8000000), wk =   0.0960000
        k(   35) = (   0.5000000  -0.3000000   0.7000000), wk =   0.0480000
        k(   36) = (  -0.2000000   0.6000000   0.0000000), wk =   0.0480000
        k(   37) = (   0.7000000  -0.3000000   0.9000000), wk =   0.0960000
        k(   38) = (   0.6000000  -0.2000000   0.8000000), wk =   0.0960000
        k(   39) = (   0.5000000  -0.1000000   0.7000000), wk =   0.0960000
        k(   40) = (   0.4000000   0.0000000   0.6000000), wk =   0.0480000
        k(   41) = (   0.8000000  -0.2000000   1.0000000), wk =   0.0480000
        k(   42) = (   0.7000000  -0.1000000   0.9000000), wk =   0.0960000
        k(   43) = (   0.6000000   0.0000000   0.8000000), wk =   0.0480000
        k(   44) = (  -0.2000000  -1.0000000   0.0000000), wk =   0.0240000
        k(   45) = (   0.6000000  -0.2000000   1.0000000), wk =   0.0480000
        k(   46) = (   0.5000000  -0.1000000   0.9000000), wk =   0.0480000
        k(   47) = (  -0.4000000  -1.0000000   0.0000000), wk =   0.0240000

     Dense  grid:     7631 G-vectors     FFT dimensions: (  27,  27,  27)

     Estimated max dynamical RAM per process >      14.15 MB

     WARNING: libxc functional with ID  263 depends
      on external parameters: check the user_guide of
      QE if you need to modify them or to check their
      default values.

     Initial potential from superposition of free atoms

     starting charge       7.9953, renormalised to       8.0000
     Starting wfcs are   13 randomized atomic wfcs

     total cpu time spent up to now is        2.9 secs

     Self-consistent Calculation

     iteration #  1     ecut=    50.00 Ry     beta= 0.01
     Davidson diagonalization with overlap
     ethr =  1.00E-02,  avg # of iterations =  1.0

     total cpu time spent up to now is        4.9 secs

     total energy              =     -30.59028825 Ry
     estimated scf accuracy    <       0.36220143 Ry

     iteration #  2     ecut=    50.00 Ry     beta= 0.01
     Davidson diagonalization with overlap
     ethr =  4.53E-03,  avg # of iterations =  1.0

     total cpu time spent up to now is        6.9 secs

     total energy              =     -30.61550207 Ry
     estimated scf accuracy    <       0.34375425 Ry

     iteration #  3     ecut=    50.00 Ry     beta= 0.01
     Davidson diagonalization with overlap
     ethr =  4.30E-03,  avg # of iterations =  1.0

     total cpu time spent up to now is        9.0 secs

     total energy              =     -30.67906894 Ry
     estimated scf accuracy    <       0.26924428 Ry

     iteration #  4     ecut=    50.00 Ry     beta= 0.01
     Davidson diagonalization with overlap
     ethr =  3.37E-03,  avg # of iterations =  1.0

     total cpu time spent up to now is       11.0 secs

     total energy              =     -30.68132485 Ry
     estimated scf accuracy    <       0.00327240 Ry

     iteration #  5     ecut=    50.00 Ry     beta= 0.01
     Davidson diagonalization with overlap
     ethr =  4.09E-05,  avg # of iterations =  1.0

     total cpu time spent up to now is       13.0 secs

     total energy              =     -30.68146005 Ry
     estimated scf accuracy    <       0.00359904 Ry

     iteration #  6     ecut=    50.00 Ry     beta= 0.01
     Davidson diagonalization with overlap
     ethr =  4.09E-05,  avg # of iterations =  1.0

     total cpu time spent up to now is       15.0 secs

     total energy              =     -30.68128669 Ry
     estimated scf accuracy    <       0.00359042 Ry

     iteration #  7     ecut=    50.00 Ry     beta= 0.01
     Davidson diagonalization with overlap
     ethr =  4.09E-05,  avg # of iterations =  1.0

     total cpu time spent up to now is       17.0 secs

     total energy              =     -30.68028399 Ry
     estimated scf accuracy    <       0.00259145 Ry

     iteration #  8     ecut=    50.00 Ry     beta= 0.01
     Davidson diagonalization with overlap
     ethr =  3.24E-05,  avg # of iterations =  2.0

     total cpu time spent up to now is       19.8 secs

     total energy              =     -30.68109463 Ry
     estimated scf accuracy    <       0.00197113 Ry

     iteration #  9     ecut=    50.00 Ry     beta= 0.01
     Davidson diagonalization with overlap
     ethr =  2.46E-05,  avg # of iterations =  1.0

     total cpu time spent up to now is       21.9 secs

     total energy              =     -30.68099227 Ry
     estimated scf accuracy    <       0.00177163 Ry

     iteration # 10     ecut=    50.00 Ry     beta= 0.01
     Davidson diagonalization with overlap
     ethr =  2.21E-05,  avg # of iterations =  1.0

     total cpu time spent up to now is       24.1 secs

     total energy              =     -30.68085187 Ry
     estimated scf accuracy    <       0.00107691 Ry

     iteration # 11     ecut=    50.00 Ry     beta= 0.01
     Davidson diagonalization with overlap
     ethr =  1.35E-05,  avg # of iterations =  1.0

     total cpu time spent up to now is       26.1 secs

     total energy              =     -30.68090786 Ry
     estimated scf accuracy    <       0.00001837 Ry

     iteration # 12     ecut=    50.00 Ry     beta= 0.01
     Davidson diagonalization with overlap
     ethr =  2.30E-07,  avg # of iterations =  2.0

     total cpu time spent up to now is       28.8 secs

     total energy              =     -30.68091189 Ry
     estimated scf accuracy    <       0.00000286 Ry

     iteration # 13     ecut=    50.00 Ry     beta= 0.01
     Davidson diagonalization with overlap
     ethr =  3.57E-08,  avg # of iterations =  1.0

     total cpu time spent up to now is       30.9 secs

     total energy              =     -30.68091339 Ry
     estimated scf accuracy    <       0.00000427 Ry

     iteration # 14     ecut=    50.00 Ry     beta= 0.01
     Davidson diagonalization with overlap
     ethr =  3.57E-08,  avg # of iterations =  1.0

     total cpu time spent up to now is       32.8 secs

     End of self-consistent calculation

          k = 0.0000 0.0000 0.0000 (   941 PWs)   bands (ev):

   -10.8597   4.8975   4.8975   4.8975

          k =-0.1000 0.1000-0.1000 (   932 PWs)   bands (ev):

   -10.7537   4.3368   4.8445   4.8445

          k =-0.2000 0.2000-0.2000 (   926 PWs)   bands (ev):

   -10.4581   3.0341   4.7142   4.7142

          k =-0.3000 0.3000-0.3000 (   938 PWs)   bands (ev):

   -10.0481   1.6085   4.5682   4.5682

          k =-0.4000 0.4000-0.4000 (   941 PWs)   bands (ev):

    -9.6670   0.5238   4.4609   4.4609

          k = 0.5000-0.5000 0.5000 (   960 PWs)   bands (ev):

    -9.5064   0.1148   4.4222   4.4222

          k = 0.0000 0.2000 0.0000 (   937 PWs)   bands (ev):

   -10.7175   4.4730   4.6516   4.6516

          k =-0.1000 0.3000-0.1000 (   935 PWs)   bands (ev):

   -10.4819   3.4432   4.4169   4.5901

          k =-0.2000 0.4000-0.2000 (   944 PWs)   bands (ev):

   -10.1029   2.0640   4.2346   4.4044

          k =-0.3000 0.5000-0.3000 (   931 PWs)   bands (ev):

    -9.6985   0.8721   4.1397   4.1660

          k = 0.6000-0.4000 0.6000 (   940 PWs)   bands (ev):

    -9.4510   0.2383   3.9044   4.2285

          k = 0.5000-0.3000 0.5000 (   942 PWs)   bands (ev):

    -9.5070   0.3819   3.7781   4.3994

          k = 0.4000-0.2000 0.4000 (   936 PWs)   bands (ev):

    -9.8305   1.2488   3.8038   4.6227

          k = 0.3000-0.1000 0.3000 (   940 PWs)   bands (ev):

   -10.2440   2.5367   3.9948   4.8197

          k = 0.2000 0.0000 0.2000 (   931 PWs)   bands (ev):

   -10.5832   3.7486   4.3771   4.9091

          k = 0.0000 0.4000 0.0000 (   942 PWs)   bands (ev):

   -10.3095   3.2959   4.0690   4.0690

          k =-0.1000 0.5000-0.1000 (   942 PWs)   bands (ev):

    -9.9803   2.2633   3.7827   3.8017

          k =-0.2000 0.6000-0.2000 (   933 PWs)   bands (ev):

    -9.5904   1.1903   3.3483   3.6948

          k = 0.7000-0.3000 0.7000 (   937 PWs)   bands (ev):

    -9.2988   0.5138   2.8880   3.7753

          k = 0.6000-0.2000 0.6000 (   941 PWs)   bands (ev):

    -9.2647   0.4901   2.5755   4.0220

          k = 0.5000-0.1000 0.5000 (   939 PWs)   bands (ev):

    -9.5087   1.1176   2.5323   4.3633

          k = 0.4000 0.0000 0.4000 (   937 PWs)   bands (ev):

    -9.8906   1.9680   2.9826   4.6768

          k = 0.0000 0.6000 0.0000 (   938 PWs)   bands (ev):

    -9.7090   1.7204   3.4417   3.4417

          k =-0.1000 0.7000-0.1000 (   943 PWs)   bands (ev):

    -9.3685   0.9451   3.0195   3.2583

          k = 0.8000-0.2000 0.8000 (   945 PWs)   bands (ev):

    -9.0916   0.4911   2.3570   3.2939

          k = 0.7000-0.1000 0.7000 (   953 PWs)   bands (ev):

    -9.0193   0.6047   1.7105   3.5412

          k = 0.6000-0.0000 0.6000 (   945 PWs)   bands (ev):

    -9.1908   1.2474   1.3661   3.9400

          k = 0.0000 0.8000 0.0000 (   942 PWs)   bands (ev):

    -9.1029   0.3332   2.9898   2.9898

          k = 0.9000-0.1000 0.9000 (   950 PWs)   bands (ev):

    -8.9045   0.0063   2.6174   2.9504

          k = 0.8000 0.0000 0.8000 (   951 PWs)   bands (ev):

    -8.8727   0.1863   1.9937   3.1482

          k = 0.0000-1.0000 0.0000 (   950 PWs)   bands (ev):

    -8.8274  -0.2355   2.8278   2.8278

          k =-0.2000 0.4000 0.0000 (   934 PWs)   bands (ev):

   -10.1998   2.7233   3.7362   4.5213

          k =-0.3000 0.5000-0.1000 (   937 PWs)   bands (ev):

    -9.8104   1.6492   3.2608   4.3340

          k = 0.6000-0.4000 0.8000 (   936 PWs)   bands (ev):

    -9.4513   0.7152   3.0559   4.1021

          k = 0.5000-0.3000 0.7000 (   942 PWs)   bands (ev):

    -9.3009   0.3514   3.0024   3.9984

          k =-0.2000 0.6000 0.0000 (   937 PWs)   bands (ev):

    -9.6411   1.5471   3.0569   3.7184

          k = 0.7000-0.3000 0.9000 (   941 PWs)   bands (ev):

    -9.2957   0.8850   2.4786   3.5488

          k = 0.6000-0.2000 0.8000 (   948 PWs)   bands (ev):

    -9.1005   0.5888   2.0478   3.5402

          k = 0.5000-0.1000 0.7000 (   939 PWs)   bands (ev):

    -9.1657   0.8315   1.8510   3.7509

          k = 0.4000 0.0000 0.6000 (   937 PWs)   bands (ev):

    -9.4517   1.3139   2.2102   4.0780

          k = 0.8000-0.2000 1.0000 (   944 PWs)   bands (ev):

    -9.0862   0.4487   2.5730   3.1018

          k = 0.7000-0.1000 0.9000 (   943 PWs)   bands (ev):

    -8.9188   0.3648   1.9459   3.1073

          k = 0.6000 0.0000 0.8000 (   938 PWs)   bands (ev):

    -8.9528   0.7872   1.3604   3.3555

          k =-0.2000-1.0000 0.0000 (   956 PWs)   bands (ev):

    -8.8381  -0.0235   2.4004   2.8906

          k = 0.6000-0.2000 1.0000 (   940 PWs)   bands (ev):

    -9.0340   0.8018   1.6714   3.3063

          k = 0.5000-0.1000 0.9000 (   936 PWs)   bands (ev):

    -8.9275   0.8798   1.2699   3.1855

          k =-0.4000-1.0000 0.0000 (   940 PWs)   bands (ev):

    -8.8547   0.5842   1.4812   2.9931

     highest occupied level (ev):     4.9091

!    total energy              =     -30.68091373 Ry
     estimated scf accuracy    <       0.00000076 Ry

     The total energy is the sum of the following terms:
     one-electron contribution =       0.16884625 Ry
     hartree contribution      =       4.20225985 Ry
     xc contribution           =      -6.52810816 Ry
     ewald contribution        =     -28.52391167 Ry

     convergence has been achieved in  14 iterations
     Writing meta-gga kinetic term

     Writing all to output data dir ./input_pw/LiCl/2/pwscf.save/
     Writing meta-gga kinetic term
 
     init_run     :      1.35s CPU      2.76s WALL (       1 calls)
     electrons    :     14.49s CPU     29.97s WALL (       1 calls)

     Called by init_run:
     wfcinit      :      1.22s CPU      2.40s WALL (       1 calls)
     potinit      :      0.02s CPU      0.07s WALL (       1 calls)
     hinit0       :      0.10s CPU      0.27s WALL (       1 calls)

     Called by electrons:
     c_bands      :     11.30s CPU     23.27s WALL (      14 calls)
     sum_band     :      2.85s CPU      5.99s WALL (      14 calls)
     v_of_rho     :      0.19s CPU      0.43s WALL (      15 calls)
     mix_rho      :      0.16s CPU      0.33s WALL (      14 calls)

     Called by c_bands:
     init_us_2    :      0.17s CPU      0.40s WALL (    1363 calls)
     init_us_2:cp :      0.16s CPU      0.40s WALL (    1363 calls)
     cegterg      :     11.13s CPU     22.85s WALL (     658 calls)

     Called by *egterg:
     cdiaghg      :      0.08s CPU      0.15s WALL (    1410 calls)
     h_psi        :     12.04s CPU     24.73s WALL (    1457 calls)
     g_psi        :      0.01s CPU      0.01s WALL (     752 calls)

     Called by h_psi:
     h_psi:calbec :      0.05s CPU      0.07s WALL (    1457 calls)
     vloc_psi     :      2.97s CPU      6.16s WALL (    1457 calls)
     add_vuspsi   :      0.04s CPU      0.09s WALL (    1457 calls)
     h_psi_meta   :      8.95s CPU     18.37s WALL (    1457 calls)

     General routines
     calbec       :      0.04s CPU      0.06s WALL (    1457 calls)
     fft          :      0.04s CPU      0.10s WALL (     177 calls)
     ffts         :      0.07s CPU      0.13s WALL (     301 calls)
     fftw         :     13.00s CPU     26.78s WALL (   60536 calls)
     interpolate  :      0.00s CPU      0.00s WALL (      15 calls)
 
     Parallel routines
 
     PWSCF        :     15.90s CPU     32.87s WALL

 
   This run was terminated on:  10:22: 7  29Mar2023            

=------------------------------------------------------------------------------=
   JOB DONE.
=------------------------------------------------------------------------------=
