
     Program PWSCF v.7.0 starts on  7Jul2023 at 14:24:17 

     This program is part of the open-source Quantum ESPRESSO suite
     for quantum simulation of materials; please cite
         "P. Giannozzi et al., J. Phys.:Condens. Matter 21 395502 (2009);
         "P. Giannozzi et al., J. Phys.:Condens. Matter 29 465901 (2017);
         "P. Giannozzi et al., J. Chem. Phys. 152 154105 (2020);
          URL http://www.quantum-espresso.org", 
     in publications or presentations arising from this work. More details at
     http://www.quantum-espresso.org/quote

     Parallel version (MPI), running on     1 processors

     MPI processes distributed on     1 nodes
     27272 MiB available memory on the printing compute node when the environment starts
 
     Waiting for input...
     Reading input from standard input
Warning: card &CELL ignored
Warning: card / ignored

     Current dimensions of program PWSCF are:
     Max number of different atomic species (ntypx) = 10
     Max number of k-points (npk) =  40000
     Max angular momentum in pseudopotentials (lmaxx) =  4
     file Cl.SCAN.UPF2: wavefunction(s)  0D renormalized

     WARNING: the MGGA functional with ID    5 has been 
     read together with other dft terms, but it should 
     stand alone in order to work properly. The other 
     terms will be ignored.

     WARNING: the MGGA functional with ID    5 has been 
     read together with other dft terms, but it should 
     stand alone in order to work properly. The other 
     terms will be ignored.

     Subspace diagonalization in iterative solution of the eigenvalue problem:
     a serial algorithm will be used

 
     G-vector sticks info
     --------------------
     sticks:   dense  smooth     PW     G-vecs:    dense   smooth      PW
     Sum         511     511    163                 7631     7631    1363
 
     Using Slab Decomposition
 


     bravais-lattice index     =            2
     lattice parameter (alat)  =       8.5717  a.u.
     unit-cell volume          =     157.4502 (a.u.)^3
     number of atoms/cell      =            2
     number of atomic types    =            2
     number of electrons       =         8.00
     number of Kohn-Sham states=            4
     kinetic-energy cutoff     =      50.0000  Ry
     charge density cutoff     =     200.0000  Ry
     scf convergence threshold =      2.0E-05
     mixing beta               =       0.2000
     number of iterations used =            8  local-TF  mixing
     Exchange-correlation= SLA  PW   SCAN SCAN
                           (   0   0   0   0   0 263 267)

     celldm(1)=   8.571716  celldm(2)=   0.000000  celldm(3)=   0.000000
     celldm(4)=   0.000000  celldm(5)=   0.000000  celldm(6)=   0.000000

     crystal axes: (cart. coord. in units of alat)
               a(1) = (  -0.500000   0.000000   0.500000 )  
               a(2) = (   0.000000   0.500000   0.500000 )  
               a(3) = (  -0.500000   0.500000   0.000000 )  

     reciprocal axes: (cart. coord. in units 2 pi/alat)
               b(1) = ( -1.000000 -1.000000  1.000000 )  
               b(2) = (  1.000000  1.000000  1.000000 )  
               b(3) = ( -1.000000  1.000000 -1.000000 )  


     PseudoPot. # 1 for Li read from file:
     ~/Documents/TA/PWDFT.jl/pseudopotentials/scan_upf/Li.SCAN.UPF2
     MD5 check sum: Not computed, couldn't open file
     Pseudo is Norm-conserving, Zval =  1.0
     Generated by new atomic code, or converted to UPF format
     Using radial grid of 1321 points,  1 beta functions with: 
                l(1) =   0

     PseudoPot. # 2 for Cl read from file:
     ~/Documents/TA/PWDFT.jl/pseudopotentials/scan_upf/Cl.SCAN.UPF2
     MD5 check sum: Not computed, couldn't open file
     Pseudo is Norm-conserving, Zval =  7.0
     Generated by new atomic code, or converted to UPF format
     Using radial grid of 1493 points,  2 beta functions with: 
                l(1) =   0
                l(2) =   1

     atomic species   valence    mass     pseudopotential
        Li             1.00     6.94100     Li( 1.00)
        Cl             7.00    35.45300     Cl( 1.00)

     48 Sym. Ops., with inversion, found



   Cartesian axes

     site n.     atom                  positions (alat units)
         1           Li  tau(   1) = (   0.0000000   0.0000000   0.0000000  )
         2           Cl  tau(   2) = (   0.5000000   0.5000000   0.5000000  )

     number of k points=    47
                       cart. coord. in units 2pi/alat
        k(    1) = (   0.0000000   0.0000000   0.0000000), wk =   0.0020000
        k(    2) = (  -0.1000000   0.1000000  -0.1000000), wk =   0.0160000
        k(    3) = (  -0.2000000   0.2000000  -0.2000000), wk =   0.0160000
        k(    4) = (  -0.3000000   0.3000000  -0.3000000), wk =   0.0160000
        k(    5) = (  -0.4000000   0.4000000  -0.4000000), wk =   0.0160000
        k(    6) = (   0.5000000  -0.5000000   0.5000000), wk =   0.0080000
        k(    7) = (   0.0000000   0.2000000   0.0000000), wk =   0.0120000
        k(    8) = (  -0.1000000   0.3000000  -0.1000000), wk =   0.0480000
        k(    9) = (  -0.2000000   0.4000000  -0.2000000), wk =   0.0480000
        k(   10) = (  -0.3000000   0.5000000  -0.3000000), wk =   0.0480000
        k(   11) = (   0.6000000  -0.4000000   0.6000000), wk =   0.0480000
        k(   12) = (   0.5000000  -0.3000000   0.5000000), wk =   0.0480000
        k(   13) = (   0.4000000  -0.2000000   0.4000000), wk =   0.0480000
        k(   14) = (   0.3000000  -0.1000000   0.3000000), wk =   0.0480000
        k(   15) = (   0.2000000   0.0000000   0.2000000), wk =   0.0240000
        k(   16) = (   0.0000000   0.4000000   0.0000000), wk =   0.0120000
        k(   17) = (  -0.1000000   0.5000000  -0.1000000), wk =   0.0480000
        k(   18) = (  -0.2000000   0.6000000  -0.2000000), wk =   0.0480000
        k(   19) = (   0.7000000  -0.3000000   0.7000000), wk =   0.0480000
        k(   20) = (   0.6000000  -0.2000000   0.6000000), wk =   0.0480000
        k(   21) = (   0.5000000  -0.1000000   0.5000000), wk =   0.0480000
        k(   22) = (   0.4000000   0.0000000   0.4000000), wk =   0.0240000
        k(   23) = (   0.0000000   0.6000000   0.0000000), wk =   0.0120000
        k(   24) = (  -0.1000000   0.7000000  -0.1000000), wk =   0.0480000
        k(   25) = (   0.8000000  -0.2000000   0.8000000), wk =   0.0480000
        k(   26) = (   0.7000000  -0.1000000   0.7000000), wk =   0.0480000
        k(   27) = (   0.6000000  -0.0000000   0.6000000), wk =   0.0240000
        k(   28) = (   0.0000000   0.8000000   0.0000000), wk =   0.0120000
        k(   29) = (   0.9000000  -0.1000000   0.9000000), wk =   0.0480000
        k(   30) = (   0.8000000   0.0000000   0.8000000), wk =   0.0240000
        k(   31) = (   0.0000000  -1.0000000   0.0000000), wk =   0.0060000
        k(   32) = (  -0.2000000   0.4000000   0.0000000), wk =   0.0480000
        k(   33) = (  -0.3000000   0.5000000  -0.1000000), wk =   0.0960000
        k(   34) = (   0.6000000  -0.4000000   0.8000000), wk =   0.0960000
        k(   35) = (   0.5000000  -0.3000000   0.7000000), wk =   0.0480000
        k(   36) = (  -0.2000000   0.6000000   0.0000000), wk =   0.0480000
        k(   37) = (   0.7000000  -0.3000000   0.9000000), wk =   0.0960000
        k(   38) = (   0.6000000  -0.2000000   0.8000000), wk =   0.0960000
        k(   39) = (   0.5000000  -0.1000000   0.7000000), wk =   0.0960000
        k(   40) = (   0.4000000   0.0000000   0.6000000), wk =   0.0480000
        k(   41) = (   0.8000000  -0.2000000   1.0000000), wk =   0.0480000
        k(   42) = (   0.7000000  -0.1000000   0.9000000), wk =   0.0960000
        k(   43) = (   0.6000000   0.0000000   0.8000000), wk =   0.0480000
        k(   44) = (  -0.2000000  -1.0000000   0.0000000), wk =   0.0240000
        k(   45) = (   0.6000000  -0.2000000   1.0000000), wk =   0.0480000
        k(   46) = (   0.5000000  -0.1000000   0.9000000), wk =   0.0480000
        k(   47) = (  -0.4000000  -1.0000000   0.0000000), wk =   0.0240000

     Dense  grid:     7631 G-vectors     FFT dimensions: (  27,  27,  27)

     Estimated max dynamical RAM per process >      14.15 MB

     WARNING: libxc functional with ID  263 depends
      on external parameters: check the user_guide of
      QE if you need to modify them or to check their
      default values.

     Initial potential from superposition of free atoms

     starting charge       7.9953, renormalised to       8.0000
     Starting wfcs are   13 randomized atomic wfcs

     total cpu time spent up to now is        2.9 secs

     Self-consistent Calculation

     iteration #  1     ecut=    50.00 Ry     beta= 0.20
     Davidson diagonalization with overlap
     ethr =  1.00E-02,  avg # of iterations =  1.0

     total cpu time spent up to now is        4.9 secs

     total energy              =     -30.62858258 Ry
     estimated scf accuracy    <       0.36220170 Ry

     iteration #  2     ecut=    50.00 Ry     beta= 0.20
     Davidson diagonalization with overlap
     ethr =  4.53E-03,  avg # of iterations =  1.0

     total cpu time spent up to now is        6.9 secs

     total energy              =     -30.67702468 Ry
     estimated scf accuracy    <       0.23271590 Ry

     iteration #  3     ecut=    50.00 Ry     beta= 0.20
     Davidson diagonalization with overlap
     ethr =  2.91E-03,  avg # of iterations =  1.0

     total cpu time spent up to now is        8.9 secs

     total energy              =     -30.68040488 Ry
     estimated scf accuracy    <       0.00154523 Ry

     iteration #  4     ecut=    50.00 Ry     beta= 0.20
     Davidson diagonalization with overlap
     ethr =  1.93E-05,  avg # of iterations =  2.0

     total cpu time spent up to now is       11.6 secs

     total energy              =     -30.68077046 Ry
     estimated scf accuracy    <       0.00109354 Ry

     iteration #  5     ecut=    50.00 Ry     beta= 0.20
     Davidson diagonalization with overlap
     ethr =  1.37E-05,  avg # of iterations =  1.0

     total cpu time spent up to now is       13.6 secs

     total energy              =     -30.68085550 Ry
     estimated scf accuracy    <       0.00024838 Ry

     iteration #  6     ecut=    50.00 Ry     beta= 0.20
     Davidson diagonalization with overlap
     ethr =  3.10E-06,  avg # of iterations =  2.0

     total cpu time spent up to now is       16.3 secs

     total energy              =     -30.68090700 Ry
     estimated scf accuracy    <       0.00002850 Ry

     iteration #  7     ecut=    50.00 Ry     beta= 0.20
     Davidson diagonalization with overlap
     ethr =  3.56E-07,  avg # of iterations =  2.0

     total cpu time spent up to now is       18.3 secs

     End of self-consistent calculation

          k = 0.0000 0.0000 0.0000 (   941 PWs)   bands (ev):

   -10.8747   4.8842   4.8842   4.8842

          k =-0.1000 0.1000-0.1000 (   932 PWs)   bands (ev):

   -10.7686   4.3238   4.8312   4.8312

          k =-0.2000 0.2000-0.2000 (   926 PWs)   bands (ev):

   -10.4732   3.0219   4.7009   4.7009

          k =-0.3000 0.3000-0.3000 (   938 PWs)   bands (ev):

   -10.0635   1.5971   4.5549   4.5549

          k =-0.4000 0.4000-0.4000 (   941 PWs)   bands (ev):

    -9.6827   0.5130   4.4475   4.4475

          k = 0.5000-0.5000 0.5000 (   960 PWs)   bands (ev):

    -9.5223   0.1041   4.4088   4.4088

          k = 0.0000 0.2000 0.0000 (   937 PWs)   bands (ev):

   -10.7325   4.4597   4.6385   4.6385

          k =-0.1000 0.3000-0.1000 (   935 PWs)   bands (ev):

   -10.4970   3.4306   4.4040   4.5769

          k =-0.2000 0.4000-0.2000 (   944 PWs)   bands (ev):

   -10.1183   2.0522   4.2218   4.3912

          k =-0.3000 0.5000-0.3000 (   931 PWs)   bands (ev):

    -9.7142   0.8610   4.1267   4.1531

          k = 0.6000-0.4000 0.6000 (   940 PWs)   bands (ev):

    -9.4669   0.2276   3.8916   4.2154

          k = 0.5000-0.3000 0.5000 (   942 PWs)   bands (ev):

    -9.5229   0.3711   3.7654   4.3861

          k = 0.4000-0.2000 0.4000 (   936 PWs)   bands (ev):

    -9.8461   1.2375   3.7912   4.6092

          k = 0.3000-0.1000 0.3000 (   940 PWs)   bands (ev):

   -10.2593   2.5246   3.9822   4.8061

          k = 0.2000 0.0000 0.2000 (   931 PWs)   bands (ev):

   -10.5983   3.7359   4.3643   4.8956

          k = 0.0000 0.4000 0.0000 (   942 PWs)   bands (ev):

   -10.3247   3.2831   4.0564   4.0564

          k =-0.1000 0.5000-0.1000 (   942 PWs)   bands (ev):

    -9.9958   2.2511   3.7702   3.7893

          k =-0.2000 0.6000-0.2000 (   933 PWs)   bands (ev):

    -9.6062   1.1790   3.3361   3.6824

          k = 0.7000-0.3000 0.7000 (   937 PWs)   bands (ev):

    -9.3148   0.5031   2.8760   3.7627

          k = 0.6000-0.2000 0.6000 (   941 PWs)   bands (ev):

    -9.2808   0.4794   2.5637   4.0091

          k = 0.5000-0.1000 0.5000 (   939 PWs)   bands (ev):

    -9.5246   1.1064   2.5207   4.3500

          k = 0.4000 0.0000 0.4000 (   937 PWs)   bands (ev):

    -9.9061   1.9561   2.9709   4.6633

          k = 0.0000 0.6000 0.0000 (   938 PWs)   bands (ev):

    -9.7247   1.7085   3.4296   3.4296

          k =-0.1000 0.7000-0.1000 (   943 PWs)   bands (ev):

    -9.3845   0.9338   3.0077   3.2463

          k = 0.8000-0.2000 0.8000 (   945 PWs)   bands (ev):

    -9.1079   0.4803   2.3455   3.2818

          k = 0.7000-0.1000 0.7000 (   953 PWs)   bands (ev):

    -9.0357   0.5941   1.6993   3.5288

          k = 0.6000-0.0000 0.6000 (   945 PWs)   bands (ev):

    -9.2070   1.2362   1.3552   3.9272

          k = 0.0000 0.8000 0.0000 (   942 PWs)   bands (ev):

    -9.1192   0.3224   2.9780   2.9780

          k = 0.9000-0.1000 0.9000 (   950 PWs)   bands (ev):

    -8.9211  -0.0042   2.6059   2.9386

          k = 0.8000 0.0000 0.8000 (   951 PWs)   bands (ev):

    -8.8892   0.1759   1.9825   3.1362

          k = 0.0000-1.0000 0.0000 (   950 PWs)   bands (ev):

    -8.8441  -0.2458   2.8161   2.8161

          k =-0.2000 0.4000 0.0000 (   934 PWs)   bands (ev):

   -10.2151   2.7109   3.7239   4.5080

          k =-0.3000 0.5000-0.1000 (   937 PWs)   bands (ev):

    -9.8260   1.6376   3.2488   4.3209

          k = 0.6000-0.4000 0.8000 (   936 PWs)   bands (ev):

    -9.4673   0.7042   3.0438   4.0892

          k = 0.5000-0.3000 0.7000 (   942 PWs)   bands (ev):

    -9.3170   0.3408   2.9903   3.9855

          k =-0.2000 0.6000 0.0000 (   937 PWs)   bands (ev):

    -9.6568   1.5354   3.0452   3.7059

          k = 0.7000-0.3000 0.9000 (   941 PWs)   bands (ev):

    -9.3117   0.8739   2.4671   3.5365

          k = 0.6000-0.2000 0.8000 (   948 PWs)   bands (ev):

    -9.1168   0.5782   2.0364   3.5278

          k = 0.5000-0.1000 0.7000 (   939 PWs)   bands (ev):

    -9.1819   0.8207   1.8398   3.7383

          k = 0.4000 0.0000 0.6000 (   937 PWs)   bands (ev):

    -9.4676   1.3025   2.1989   4.0651

          k = 0.8000-0.2000 1.0000 (   944 PWs)   bands (ev):

    -9.1025   0.4379   2.5615   3.0899

          k = 0.7000-0.1000 0.9000 (   943 PWs)   bands (ev):

    -8.9353   0.3543   1.9348   3.0953

          k = 0.6000 0.0000 0.8000 (   938 PWs)   bands (ev):

    -8.9693   0.7766   1.3494   3.3433

          k =-0.2000-1.0000 0.0000 (   956 PWs)   bands (ev):

    -8.8548  -0.0339   2.3890   2.8787

          k = 0.6000-0.2000 1.0000 (   940 PWs)   bands (ev):

    -9.0504   0.7910   1.6605   3.2941

          k = 0.5000-0.1000 0.9000 (   936 PWs)   bands (ev):

    -8.9440   0.8691   1.2590   3.1734

          k =-0.4000-1.0000 0.0000 (   940 PWs)   bands (ev):

    -8.8712   0.5737   1.4703   2.9811

     highest occupied level (ev):     4.8956

!    total energy              =     -30.68090977 Ry
     estimated scf accuracy    <       0.00001375 Ry

     The total energy is the sum of the following terms:
     one-electron contribution =       0.16527534 Ry
     hartree contribution      =       4.20738245 Ry
     xc contribution           =      -6.52959740 Ry
     ewald contribution        =     -28.52397016 Ry

     convergence has been achieved in   7 iterations
     Writing meta-gga kinetic term

     Writing all to output data dir ./input_pw/LiCl/2/pwscf.save/
     Writing meta-gga kinetic term
 
     init_run     :      1.33s CPU      2.79s WALL (       1 calls)
     electrons    :      7.73s CPU     15.41s WALL (       1 calls)

     Called by init_run:
     wfcinit      :      1.21s CPU      2.53s WALL (       1 calls)
     potinit      :      0.01s CPU      0.07s WALL (       1 calls)
     hinit0       :      0.09s CPU      0.16s WALL (       1 calls)

     Called by electrons:
     c_bands      :      6.17s CPU     12.37s WALL (       7 calls)
     sum_band     :      1.41s CPU      2.76s WALL (       7 calls)
     v_of_rho     :      0.09s CPU      0.23s WALL (       8 calls)
     mix_rho      :      0.06s CPU      0.11s WALL (       7 calls)

     Called by c_bands:
     init_us_2    :      0.09s CPU      0.11s WALL (     705 calls)
     init_us_2:cp :      0.08s CPU      0.11s WALL (     705 calls)
     cegterg      :      6.09s CPU     12.20s WALL (     329 calls)

     Called by *egterg:
     cdiaghg      :      0.04s CPU      0.05s WALL (     800 calls)
     h_psi        :      7.11s CPU     14.41s WALL (     847 calls)
     g_psi        :      0.01s CPU      0.01s WALL (     471 calls)

     Called by h_psi:
     h_psi:calbec :      0.02s CPU      0.04s WALL (     847 calls)
     vloc_psi     :      1.75s CPU      3.49s WALL (     847 calls)
     add_vuspsi   :      0.02s CPU      0.04s WALL (     847 calls)
     h_psi_meta   :      5.30s CPU     10.82s WALL (     847 calls)

     General routines
     calbec       :      0.02s CPU      0.04s WALL (     847 calls)
     fft          :      0.02s CPU      0.07s WALL (      93 calls)
     ffts         :      0.03s CPU      0.05s WALL (     138 calls)
     fftw         :      7.50s CPU     15.22s WALL (   34872 calls)
     interpolate  :      0.00s CPU      0.00s WALL (       8 calls)
 
     Parallel routines
 
     PWSCF        :      9.10s CPU     18.31s WALL

 
   This run was terminated on:  14:24:36   7Jul2023            

=------------------------------------------------------------------------------=
   JOB DONE.
=------------------------------------------------------------------------------=
