
     Program PWSCF v.7.0 starts on 21Feb2023 at 12:49:41 

     This program is part of the open-source Quantum ESPRESSO suite
     for quantum simulation of materials; please cite
         "P. Giannozzi et al., J. Phys.:Condens. Matter 21 395502 (2009);
         "P. Giannozzi et al., J. Phys.:Condens. Matter 29 465901 (2017);
         "P. Giannozzi et al., J. Chem. Phys. 152 154105 (2020);
          URL http://www.quantum-espresso.org", 
     in publications or presentations arising from this work. More details at
     http://www.quantum-espresso.org/quote

     Parallel version (MPI), running on     1 processors

     MPI processes distributed on     1 nodes
     3012 MiB available memory on the printing compute node when the environment starts
 
     Waiting for input...
     Reading input from standard input
Warning: card &CELL ignored
Warning: card / ignored

     Current dimensions of program PWSCF are:
     Max number of different atomic species (ntypx) = 10
     Max number of k-points (npk) =  40000
     Max angular momentum in pseudopotentials (lmaxx) =  4
     file Si.SCAN.UPF2: wavefunction(s)  0D renormalized

     WARNING: the MGGA functional with ID    5 has been 
     read together with other dft terms, but it should 
     stand alone in order to work properly. The other 
     terms will be ignored.

     Subspace diagonalization in iterative solution of the eigenvalue problem:
     a serial algorithm will be used

 
     G-vector sticks info
     --------------------
     sticks:   dense  smooth     PW     G-vecs:    dense   smooth      PW
     Sum         559     559    169                 8801     8801    1471
 
     Using Slab Decomposition
 


     bravais-lattice index     =            2
     lattice parameter (alat)  =       9.0183  a.u.
     unit-cell volume          =     183.3640 (a.u.)^3
     number of atoms/cell      =            2
     number of atomic types    =            1
     number of electrons       =         8.00
     number of Kohn-Sham states=            4
     kinetic-energy cutoff     =      50.0000  Ry
     charge density cutoff     =     200.0000  Ry
     scf convergence threshold =      1.0E-06
     mixing beta               =       0.0100
     number of iterations used =            8  local-TF  mixing
     Exchange-correlation= SLA  PW   SCAN SCAN
                           (   0   0   0   0   0 263 267)

     celldm(1)=   9.018300  celldm(2)=   0.000000  celldm(3)=   0.000000
     celldm(4)=   0.000000  celldm(5)=   0.000000  celldm(6)=   0.000000

     crystal axes: (cart. coord. in units of alat)
               a(1) = (  -0.500000   0.000000   0.500000 )  
               a(2) = (   0.000000   0.500000   0.500000 )  
               a(3) = (  -0.500000   0.500000   0.000000 )  

     reciprocal axes: (cart. coord. in units 2 pi/alat)
               b(1) = ( -1.000000 -1.000000  1.000000 )  
               b(2) = (  1.000000  1.000000  1.000000 )  
               b(3) = ( -1.000000  1.000000 -1.000000 )  


     PseudoPot. # 1 for Si read from file:
     ~/Documents/TA/PWDFT.jl/pseudopotentials/scan_upf/Si.SCAN.UPF2
     MD5 check sum: Not computed, couldn't open file
     Pseudo is Norm-conserving, Zval =  4.0
     Generated by new atomic code, or converted to UPF format
     Using radial grid of 1475 points,  2 beta functions with: 
                l(1) =   0
                l(2) =   1

     atomic species   valence    mass     pseudopotential
        Si             4.00    28.08550     Si( 1.00)

     48 Sym. Ops., with inversion, found (24 have fractional translation)



   Cartesian axes

     site n.     atom                  positions (alat units)
         1           Si  tau(   1) = (   0.0000000   0.0000000   0.0000000  )
         2           Si  tau(   2) = (   0.2500000   0.2500000   0.2500000  )

     number of k points=    47
                       cart. coord. in units 2pi/alat
        k(    1) = (   0.0000000   0.0000000   0.0000000), wk =   0.0020000
        k(    2) = (  -0.1000000   0.1000000  -0.1000000), wk =   0.0160000
        k(    3) = (  -0.2000000   0.2000000  -0.2000000), wk =   0.0160000
        k(    4) = (  -0.3000000   0.3000000  -0.3000000), wk =   0.0160000
        k(    5) = (  -0.4000000   0.4000000  -0.4000000), wk =   0.0160000
        k(    6) = (   0.5000000  -0.5000000   0.5000000), wk =   0.0080000
        k(    7) = (   0.0000000   0.2000000   0.0000000), wk =   0.0120000
        k(    8) = (  -0.1000000   0.3000000  -0.1000000), wk =   0.0480000
        k(    9) = (  -0.2000000   0.4000000  -0.2000000), wk =   0.0480000
        k(   10) = (  -0.3000000   0.5000000  -0.3000000), wk =   0.0480000
        k(   11) = (   0.6000000  -0.4000000   0.6000000), wk =   0.0480000
        k(   12) = (   0.5000000  -0.3000000   0.5000000), wk =   0.0480000
        k(   13) = (   0.4000000  -0.2000000   0.4000000), wk =   0.0480000
        k(   14) = (   0.3000000  -0.1000000   0.3000000), wk =   0.0480000
        k(   15) = (   0.2000000   0.0000000   0.2000000), wk =   0.0240000
        k(   16) = (   0.0000000   0.4000000   0.0000000), wk =   0.0120000
        k(   17) = (  -0.1000000   0.5000000  -0.1000000), wk =   0.0480000
        k(   18) = (  -0.2000000   0.6000000  -0.2000000), wk =   0.0480000
        k(   19) = (   0.7000000  -0.3000000   0.7000000), wk =   0.0480000
        k(   20) = (   0.6000000  -0.2000000   0.6000000), wk =   0.0480000
        k(   21) = (   0.5000000  -0.1000000   0.5000000), wk =   0.0480000
        k(   22) = (   0.4000000   0.0000000   0.4000000), wk =   0.0240000
        k(   23) = (   0.0000000   0.6000000   0.0000000), wk =   0.0120000
        k(   24) = (  -0.1000000   0.7000000  -0.1000000), wk =   0.0480000
        k(   25) = (   0.8000000  -0.2000000   0.8000000), wk =   0.0480000
        k(   26) = (   0.7000000  -0.1000000   0.7000000), wk =   0.0480000
        k(   27) = (   0.6000000  -0.0000000   0.6000000), wk =   0.0240000
        k(   28) = (   0.0000000   0.8000000   0.0000000), wk =   0.0120000
        k(   29) = (   0.9000000  -0.1000000   0.9000000), wk =   0.0480000
        k(   30) = (   0.8000000   0.0000000   0.8000000), wk =   0.0240000
        k(   31) = (   0.0000000  -1.0000000   0.0000000), wk =   0.0060000
        k(   32) = (  -0.2000000   0.4000000   0.0000000), wk =   0.0480000
        k(   33) = (  -0.3000000   0.5000000  -0.1000000), wk =   0.0960000
        k(   34) = (   0.6000000  -0.4000000   0.8000000), wk =   0.0960000
        k(   35) = (   0.5000000  -0.3000000   0.7000000), wk =   0.0480000
        k(   36) = (  -0.2000000   0.6000000   0.0000000), wk =   0.0480000
        k(   37) = (   0.7000000  -0.3000000   0.9000000), wk =   0.0960000
        k(   38) = (   0.6000000  -0.2000000   0.8000000), wk =   0.0960000
        k(   39) = (   0.5000000  -0.1000000   0.7000000), wk =   0.0960000
        k(   40) = (   0.4000000   0.0000000   0.6000000), wk =   0.0480000
        k(   41) = (   0.8000000  -0.2000000   1.0000000), wk =   0.0480000
        k(   42) = (   0.7000000  -0.1000000   0.9000000), wk =   0.0960000
        k(   43) = (   0.6000000   0.0000000   0.8000000), wk =   0.0480000
        k(   44) = (  -0.2000000  -1.0000000   0.0000000), wk =   0.0240000
        k(   45) = (   0.6000000  -0.2000000   1.0000000), wk =   0.0480000
        k(   46) = (   0.5000000  -0.1000000   0.9000000), wk =   0.0480000
        k(   47) = (  -0.4000000  -1.0000000   0.0000000), wk =   0.0240000

     Dense  grid:     8801 G-vectors     FFT dimensions: (  32,  32,  32)

     Estimated max dynamical RAM per process >      17.16 MB

     WARNING: libxc functional with ID  263 depends
      on external parameters: check the user_guide of
      QE if you need to modify them or to check their
      default values.

     Initial potential from superposition of free atoms

     starting charge       7.9990, renormalised to       8.0000
     Starting wfcs are   18 randomized atomic wfcs

     total cpu time spent up to now is        4.0 secs

     Self-consistent Calculation

     iteration #  1     ecut=    50.00 Ry     beta= 0.01
     Davidson diagonalization with overlap
     ethr =  1.00E-02,  avg # of iterations =  2.0

     total cpu time spent up to now is        6.7 secs

     total energy              =     -15.45994465 Ry
     estimated scf accuracy    <       0.10720839 Ry

     iteration #  2     ecut=    50.00 Ry     beta= 0.01
     Davidson diagonalization with overlap
     ethr =  1.34E-03,  avg # of iterations =  1.0

     total cpu time spent up to now is        8.9 secs

     total energy              =     -15.50585122 Ry
     estimated scf accuracy    <       0.11069105 Ry

     iteration #  3     ecut=    50.00 Ry     beta= 0.01
     Davidson diagonalization with overlap
     ethr =  1.34E-03,  avg # of iterations =  2.0

     total cpu time spent up to now is       11.4 secs

     total energy              =     -15.57743588 Ry
     estimated scf accuracy    <       0.19729194 Ry

     iteration #  4     ecut=    50.00 Ry     beta= 0.01
     Davidson diagonalization with overlap
     ethr =  1.34E-03,  avg # of iterations =  1.6

     total cpu time spent up to now is       13.5 secs

     total energy              =     -15.58322357 Ry
     estimated scf accuracy    <       0.01860260 Ry

     iteration #  5     ecut=    50.00 Ry     beta= 0.01
     Davidson diagonalization with overlap
     ethr =  2.33E-04,  avg # of iterations =  1.0

     total cpu time spent up to now is       15.6 secs

     total energy              =     -15.58385080 Ry
     estimated scf accuracy    <       0.01053428 Ry

     iteration #  6     ecut=    50.00 Ry     beta= 0.01
     Davidson diagonalization with overlap
     ethr =  1.32E-04,  avg # of iterations =  1.0

     total cpu time spent up to now is       17.6 secs

     total energy              =     -15.58148643 Ry
     estimated scf accuracy    <       0.01069262 Ry

     iteration #  7     ecut=    50.00 Ry     beta= 0.01
     Davidson diagonalization with overlap
     ethr =  1.32E-04,  avg # of iterations =  1.8

     total cpu time spent up to now is       19.9 secs

     total energy              =     -15.58248539 Ry
     estimated scf accuracy    <       0.00007749 Ry

     iteration #  8     ecut=    50.00 Ry     beta= 0.01
     Davidson diagonalization with overlap
     ethr =  9.69E-07,  avg # of iterations =  3.5

     total cpu time spent up to now is       23.5 secs

     total energy              =     -15.58244387 Ry
     estimated scf accuracy    <       0.00021272 Ry

     iteration #  9     ecut=    50.00 Ry     beta= 0.01
     Davidson diagonalization with overlap
     ethr =  9.69E-07,  avg # of iterations =  2.0

     total cpu time spent up to now is       26.4 secs

     total energy              =     -15.58243946 Ry
     estimated scf accuracy    <       0.00006517 Ry

     iteration # 10     ecut=    50.00 Ry     beta= 0.01
     Davidson diagonalization with overlap
     ethr =  8.15E-07,  avg # of iterations =  2.0

     total cpu time spent up to now is       29.3 secs

     total energy              =     -15.58245024 Ry
     estimated scf accuracy    <       0.00003964 Ry

     iteration # 11     ecut=    50.00 Ry     beta= 0.01
     Davidson diagonalization with overlap
     ethr =  4.96E-07,  avg # of iterations =  2.0

     total cpu time spent up to now is       32.0 secs

     total energy              =     -15.58245922 Ry
     estimated scf accuracy    <       0.00000478 Ry

     iteration # 12     ecut=    50.00 Ry     beta= 0.01
     Davidson diagonalization with overlap
     ethr =  5.98E-08,  avg # of iterations =  1.6

     total cpu time spent up to now is       34.3 secs

     total energy              =     -15.58245216 Ry
     estimated scf accuracy    <       0.00000275 Ry

     iteration # 13     ecut=    50.00 Ry     beta= 0.01
     Davidson diagonalization with overlap
     ethr =  3.44E-08,  avg # of iterations =  2.6

     total cpu time spent up to now is       36.8 secs

     total energy              =     -15.58245185 Ry
     estimated scf accuracy    <       0.00000445 Ry

     iteration # 14     ecut=    50.00 Ry     beta= 0.01
     Davidson diagonalization with overlap
     ethr =  3.44E-08,  avg # of iterations =  2.0

     total cpu time spent up to now is       38.6 secs

     End of self-consistent calculation

          k = 0.0000 0.0000 0.0000 (  1067 PWs)   bands (ev):

    -4.6980  10.7955  10.7955  10.7955

          k =-0.1000 0.1000-0.1000 (  1091 PWs)   bands (ev):

    -4.5107   9.4502  10.5147  10.5147

          k =-0.2000 0.2000-0.2000 (  1098 PWs)   bands (ev):

    -3.9539   7.0626  10.0071  10.0071

          k =-0.3000 0.3000-0.3000 (  1089 PWs)   bands (ev):

    -3.0495   4.6459   9.5864   9.5864

          k =-0.4000 0.4000-0.4000 (  1101 PWs)   bands (ev):

    -1.8803   2.5194   9.3326   9.3326

          k = 0.5000-0.5000 0.5000 (  1104 PWs)   bands (ev):

    -1.0387   1.3522   9.2497   9.2497

          k = 0.0000 0.2000 0.0000 (  1082 PWs)   bands (ev):

    -4.4481   9.9208   9.9208  10.0752

          k =-0.1000 0.3000-0.1000 (  1099 PWs)   bands (ev):

    -4.0138   7.9227   9.3112   9.8669

          k =-0.2000 0.4000-0.2000 (  1092 PWs)   bands (ev):

    -3.2224   5.5325   8.8982   9.3172

          k =-0.3000 0.5000-0.3000 (  1097 PWs)   bands (ev):

    -2.1238   3.3023   8.7383   8.7553

          k = 0.6000-0.4000 0.6000 (  1094 PWs)   bands (ev):

    -1.0082   1.6551   8.3195   8.8322

          k = 0.5000-0.3000 0.5000 (  1103 PWs)   bands (ev):

    -1.3278   2.0833   8.0782   9.1508

          k = 0.4000-0.2000 0.4000 (  1101 PWs)   bands (ev):

    -2.5188   4.0157   8.0793   9.6398

          k = 0.3000-0.1000 0.3000 (  1094 PWs)   bands (ev):

    -3.5252   6.3287   8.3552  10.2052

          k = 0.2000 0.0000 0.2000 (  1081 PWs)   bands (ev):

    -4.1999   8.5232   9.0608  10.6307

          k = 0.0000 0.4000 0.0000 (  1086 PWs)   bands (ev):

    -3.7030   8.3376   8.6196   8.6196

          k =-0.1000 0.5000-0.1000 (  1086 PWs)   bands (ev):

    -3.0304   6.4321   8.1432   8.1592

          k =-0.2000 0.6000-0.2000 (  1091 PWs)   bands (ev):

    -2.0280   4.2901   7.3526   7.9455

          k = 0.7000-0.3000 0.7000 (  1092 PWs)   bands (ev):

    -0.8407   2.4339   6.6341   8.0391

          k = 0.6000-0.2000 0.6000 (  1090 PWs)   bands (ev):

    -0.5362   2.0430   6.1563   8.4092

          k = 0.5000-0.1000 0.5000 (  1099 PWs)   bands (ev):

    -1.6537   3.6620   5.9933   9.0079

          k = 0.4000 0.0000 0.4000 (  1093 PWs)   bands (ev):

    -2.7421   5.5420   6.4240   9.7135

          k = 0.0000 0.6000 0.0000 (  1094 PWs)   bands (ev):

    -2.4777   6.0794   7.5864   7.5864

          k =-0.1000 0.7000-0.1000 (  1084 PWs)   bands (ev):

    -1.5845   4.6694   6.6337   7.3099

          k = 0.8000-0.2000 0.8000 (  1100 PWs)   bands (ev):

    -0.4290   3.1461   5.3987   7.3363

          k = 0.7000-0.1000 0.7000 (  1106 PWs)   bands (ev):

     0.3689   2.2543   4.5712   7.6609

          k = 0.6000-0.0000 0.6000 (  1109 PWs)   bands (ev):

    -0.5285   3.2108   4.4713   8.2507

          k = 0.0000 0.8000 0.0000 (  1086 PWs)   bands (ev):

    -0.8024   3.6259   6.9442   6.9442

          k = 0.9000-0.1000 0.9000 (  1096 PWs)   bands (ev):

     0.2752   2.4504   5.9641   6.8826

          k = 0.8000 0.0000 0.8000 (  1105 PWs)   bands (ev):

     1.1748   1.7588   4.6418   7.1285

          k = 0.0000-1.0000 0.0000 (  1106 PWs)   bands (ev):

     1.2672   1.2672   6.7274   6.7274

          k =-0.2000 0.4000 0.0000 (  1098 PWs)   bands (ev):

    -3.4608   6.9897   7.7501   9.5950

          k =-0.3000 0.5000-0.1000 (  1091 PWs)   bands (ev):

    -2.5621   4.9497   7.1273   8.9917

          k = 0.6000-0.4000 0.8000 (  1100 PWs)   bands (ev):

    -1.3989   2.8991   6.9716   8.4029

          k = 0.5000-0.3000 0.7000 (  1098 PWs)   bands (ev):

    -0.5551   1.7462   6.9610   8.1531

          k =-0.2000 0.6000 0.0000 (  1086 PWs)   bands (ev):

    -2.2483   5.4523   6.7153   7.8092

          k = 0.7000-0.3000 0.9000 (  1093 PWs)   bands (ev):

    -1.1624   3.7965   5.9658   7.2273

          k = 0.6000-0.2000 0.8000 (  1095 PWs)   bands (ev):

    -0.0519   2.3131   5.4510   7.1448

          k = 0.5000-0.1000 0.7000 (  1097 PWs)   bands (ev):

    -0.3989   2.7627   5.1368   7.5450

          k = 0.4000 0.0000 0.6000 (  1099 PWs)   bands (ev):

    -1.5763   4.2866   5.4056   8.2501

          k = 0.8000-0.2000 1.0000 (  1084 PWs)   bands (ev):

    -0.6005   3.5581   6.1057   6.4913

          k = 0.7000-0.1000 0.9000 (  1096 PWs)   bands (ev):

     0.5697   2.4508   4.9066   6.3917

          k = 0.6000 0.0000 0.8000 (  1104 PWs)   bands (ev):

     0.6910   2.3793   4.2318   6.8109

          k =-0.2000-1.0000 0.0000 (  1102 PWs)   bands (ev):

     1.4014   1.4014   5.9932   5.9932

          k = 0.6000-0.2000 1.0000 (  1091 PWs)   bands (ev):

    -0.0380   3.1209   4.8890   6.2774

          k = 0.5000-0.1000 0.9000 (  1092 PWs)   bands (ev):

     0.8270   2.3232   4.6401   5.8766

          k =-0.4000-1.0000 0.0000 (  1104 PWs)   bands (ev):

     1.6671   1.6671   5.0715   5.0715

     highest occupied level (ev):    10.7955

!    total energy              =     -15.58245263 Ry
     estimated scf accuracy    <       0.00000008 Ry

     The total energy is the sum of the following terms:
     one-electron contribution =       8.02267047 Ry
     hartree contribution      =       0.81207173 Ry
     xc contribution           =      -5.30300062 Ry
     ewald contribution        =     -19.11419422 Ry

     convergence has been achieved in  14 iterations
     Writing meta-gga kinetic term

     Writing all to output data dir ./input_pw/Si/3/pwscf.save/
     Writing meta-gga kinetic term
 
     init_run     :      1.79s CPU      3.93s WALL (       1 calls)
     electrons    :     17.66s CPU     34.67s WALL (       1 calls)

     Called by init_run:
     wfcinit      :      1.69s CPU      3.75s WALL (       1 calls)
     potinit      :      0.02s CPU      0.06s WALL (       1 calls)
     hinit0       :      0.06s CPU      0.11s WALL (       1 calls)

     Called by electrons:
     c_bands      :     14.28s CPU     27.98s WALL (      14 calls)
     sum_band     :      2.96s CPU      5.78s WALL (      14 calls)
     v_of_rho     :      0.30s CPU      0.63s WALL (      15 calls)
     mix_rho      :      0.14s CPU      0.30s WALL (      14 calls)

     Called by c_bands:
     init_us_2    :      0.19s CPU      0.42s WALL (    1363 calls)
     init_us_2:cp :      0.18s CPU      0.42s WALL (    1363 calls)
     cegterg      :     14.05s CPU     27.54s WALL (     658 calls)

     Called by *egterg:
     cdiaghg      :      0.11s CPU      0.14s WALL (    1888 calls)
     h_psi        :     15.24s CPU     30.24s WALL (    1935 calls)
     g_psi        :      0.02s CPU      0.02s WALL (    1230 calls)

     Called by h_psi:
     h_psi:calbec :      0.09s CPU      0.20s WALL (    1935 calls)
     vloc_psi     :      3.74s CPU      7.50s WALL (    1935 calls)
     add_vuspsi   :      0.07s CPU      0.15s WALL (    1935 calls)
     h_psi_meta   :     11.31s CPU     22.33s WALL (    1935 calls)

     General routines
     calbec       :      0.08s CPU      0.19s WALL (    1935 calls)
     fft          :      0.04s CPU      0.17s WALL (     177 calls)
     ffts         :      0.05s CPU      0.10s WALL (     231 calls)
     fftw         :     14.83s CPU     29.24s WALL (   72944 calls)
     interpolate  :      0.00s CPU      0.00s WALL (      15 calls)
 
     Parallel routines
 
     PWSCF        :     19.48s CPU     38.66s WALL

 
   This run was terminated on:  12:50:19  21Feb2023            

=------------------------------------------------------------------------------=
   JOB DONE.
=------------------------------------------------------------------------------=
