
     Program PWSCF v.7.0 starts on 29Mar2023 at 11:31: 6 

     This program is part of the open-source Quantum ESPRESSO suite
     for quantum simulation of materials; please cite
         "P. Giannozzi et al., J. Phys.:Condens. Matter 21 395502 (2009);
         "P. Giannozzi et al., J. Phys.:Condens. Matter 29 465901 (2017);
         "P. Giannozzi et al., J. Chem. Phys. 152 154105 (2020);
          URL http://www.quantum-espresso.org", 
     in publications or presentations arising from this work. More details at
     http://www.quantum-espresso.org/quote

     Parallel version (MPI), running on     1 processors

     MPI processes distributed on     1 nodes
     23780 MiB available memory on the printing compute node when the environment starts
 
     Waiting for input...
     Reading input from standard input
Warning: card &CELL ignored
Warning: card / ignored

     Current dimensions of program PWSCF are:
     Max number of different atomic species (ntypx) = 10
     Max number of k-points (npk) =  40000
     Max angular momentum in pseudopotentials (lmaxx) =  4
     file Si.SCAN.UPF2: wavefunction(s)  0D renormalized

     WARNING: the MGGA functional with ID    5 has been 
     read together with other dft terms, but it should 
     stand alone in order to work properly. The other 
     terms will be ignored.

     Subspace diagonalization in iterative solution of the eigenvalue problem:
     a serial algorithm will be used

 
     G-vector sticks info
     --------------------
     sticks:   dense  smooth     PW     G-vecs:    dense   smooth      PW
     Sum         583     583    187                 9089     9089    1639
 
     Using Slab Decomposition
 


     bravais-lattice index     =            2
     lattice parameter (alat)  =       9.0947  a.u.
     unit-cell volume          =     188.0652 (a.u.)^3
     number of atoms/cell      =            2
     number of atomic types    =            1
     number of electrons       =         8.00
     number of Kohn-Sham states=            4
     kinetic-energy cutoff     =      50.0000  Ry
     charge density cutoff     =     200.0000  Ry
     scf convergence threshold =      1.0E-06
     mixing beta               =       0.0100
     number of iterations used =            8  local-TF  mixing
     Exchange-correlation= SLA  PW   SCAN SCAN
                           (   0   0   0   0   0 263 267)

     celldm(1)=   9.094723  celldm(2)=   0.000000  celldm(3)=   0.000000
     celldm(4)=   0.000000  celldm(5)=   0.000000  celldm(6)=   0.000000

     crystal axes: (cart. coord. in units of alat)
               a(1) = (  -0.500000   0.000000   0.500000 )  
               a(2) = (   0.000000   0.500000   0.500000 )  
               a(3) = (  -0.500000   0.500000   0.000000 )  

     reciprocal axes: (cart. coord. in units 2 pi/alat)
               b(1) = ( -1.000000 -1.000000  1.000000 )  
               b(2) = (  1.000000  1.000000  1.000000 )  
               b(3) = ( -1.000000  1.000000 -1.000000 )  


     PseudoPot. # 1 for Si read from file:
     ~/Documents/TA/PWDFT.jl/pseudopotentials/scan_upf/Si.SCAN.UPF2
     MD5 check sum: Not computed, couldn't open file
     Pseudo is Norm-conserving, Zval =  4.0
     Generated by new atomic code, or converted to UPF format
     Using radial grid of 1475 points,  2 beta functions with: 
                l(1) =   0
                l(2) =   1

     atomic species   valence    mass     pseudopotential
        Si             4.00    28.08550     Si( 1.00)

     48 Sym. Ops., with inversion, found (24 have fractional translation)



   Cartesian axes

     site n.     atom                  positions (alat units)
         1           Si  tau(   1) = (   0.0000000   0.0000000   0.0000000  )
         2           Si  tau(   2) = (   0.2500000   0.2500000   0.2500000  )

     number of k points=    47
                       cart. coord. in units 2pi/alat
        k(    1) = (   0.0000000   0.0000000   0.0000000), wk =   0.0020000
        k(    2) = (  -0.1000000   0.1000000  -0.1000000), wk =   0.0160000
        k(    3) = (  -0.2000000   0.2000000  -0.2000000), wk =   0.0160000
        k(    4) = (  -0.3000000   0.3000000  -0.3000000), wk =   0.0160000
        k(    5) = (  -0.4000000   0.4000000  -0.4000000), wk =   0.0160000
        k(    6) = (   0.5000000  -0.5000000   0.5000000), wk =   0.0080000
        k(    7) = (   0.0000000   0.2000000   0.0000000), wk =   0.0120000
        k(    8) = (  -0.1000000   0.3000000  -0.1000000), wk =   0.0480000
        k(    9) = (  -0.2000000   0.4000000  -0.2000000), wk =   0.0480000
        k(   10) = (  -0.3000000   0.5000000  -0.3000000), wk =   0.0480000
        k(   11) = (   0.6000000  -0.4000000   0.6000000), wk =   0.0480000
        k(   12) = (   0.5000000  -0.3000000   0.5000000), wk =   0.0480000
        k(   13) = (   0.4000000  -0.2000000   0.4000000), wk =   0.0480000
        k(   14) = (   0.3000000  -0.1000000   0.3000000), wk =   0.0480000
        k(   15) = (   0.2000000   0.0000000   0.2000000), wk =   0.0240000
        k(   16) = (   0.0000000   0.4000000   0.0000000), wk =   0.0120000
        k(   17) = (  -0.1000000   0.5000000  -0.1000000), wk =   0.0480000
        k(   18) = (  -0.2000000   0.6000000  -0.2000000), wk =   0.0480000
        k(   19) = (   0.7000000  -0.3000000   0.7000000), wk =   0.0480000
        k(   20) = (   0.6000000  -0.2000000   0.6000000), wk =   0.0480000
        k(   21) = (   0.5000000  -0.1000000   0.5000000), wk =   0.0480000
        k(   22) = (   0.4000000   0.0000000   0.4000000), wk =   0.0240000
        k(   23) = (   0.0000000   0.6000000   0.0000000), wk =   0.0120000
        k(   24) = (  -0.1000000   0.7000000  -0.1000000), wk =   0.0480000
        k(   25) = (   0.8000000  -0.2000000   0.8000000), wk =   0.0480000
        k(   26) = (   0.7000000  -0.1000000   0.7000000), wk =   0.0480000
        k(   27) = (   0.6000000  -0.0000000   0.6000000), wk =   0.0240000
        k(   28) = (   0.0000000   0.8000000   0.0000000), wk =   0.0120000
        k(   29) = (   0.9000000  -0.1000000   0.9000000), wk =   0.0480000
        k(   30) = (   0.8000000   0.0000000   0.8000000), wk =   0.0240000
        k(   31) = (   0.0000000  -1.0000000   0.0000000), wk =   0.0060000
        k(   32) = (  -0.2000000   0.4000000   0.0000000), wk =   0.0480000
        k(   33) = (  -0.3000000   0.5000000  -0.1000000), wk =   0.0960000
        k(   34) = (   0.6000000  -0.4000000   0.8000000), wk =   0.0960000
        k(   35) = (   0.5000000  -0.3000000   0.7000000), wk =   0.0480000
        k(   36) = (  -0.2000000   0.6000000   0.0000000), wk =   0.0480000
        k(   37) = (   0.7000000  -0.3000000   0.9000000), wk =   0.0960000
        k(   38) = (   0.6000000  -0.2000000   0.8000000), wk =   0.0960000
        k(   39) = (   0.5000000  -0.1000000   0.7000000), wk =   0.0960000
        k(   40) = (   0.4000000   0.0000000   0.6000000), wk =   0.0480000
        k(   41) = (   0.8000000  -0.2000000   1.0000000), wk =   0.0480000
        k(   42) = (   0.7000000  -0.1000000   0.9000000), wk =   0.0960000
        k(   43) = (   0.6000000   0.0000000   0.8000000), wk =   0.0480000
        k(   44) = (  -0.2000000  -1.0000000   0.0000000), wk =   0.0240000
        k(   45) = (   0.6000000  -0.2000000   1.0000000), wk =   0.0480000
        k(   46) = (   0.5000000  -0.1000000   0.9000000), wk =   0.0480000
        k(   47) = (  -0.4000000  -1.0000000   0.0000000), wk =   0.0240000

     Dense  grid:     9089 G-vectors     FFT dimensions: (  32,  32,  32)

     Estimated max dynamical RAM per process >      17.57 MB

     WARNING: libxc functional with ID  263 depends
      on external parameters: check the user_guide of
      QE if you need to modify them or to check their
      default values.

     Initial potential from superposition of free atoms

     starting charge       7.9990, renormalised to       8.0000
     Starting wfcs are   18 randomized atomic wfcs

     total cpu time spent up to now is        3.3 secs

     Self-consistent Calculation

     iteration #  1     ecut=    50.00 Ry     beta= 0.01
     Davidson diagonalization with overlap
     ethr =  1.00E-02,  avg # of iterations =  2.0

     total cpu time spent up to now is        6.1 secs

     total energy              =     -15.48254243 Ry
     estimated scf accuracy    <       0.10320965 Ry

     iteration #  2     ecut=    50.00 Ry     beta= 0.01
     Davidson diagonalization with overlap
     ethr =  1.29E-03,  avg # of iterations =  1.0

     total cpu time spent up to now is        8.1 secs

     total energy              =     -15.53061744 Ry
     estimated scf accuracy    <       0.10669972 Ry

     iteration #  3     ecut=    50.00 Ry     beta= 0.01
     Davidson diagonalization with overlap
     ethr =  1.29E-03,  avg # of iterations =  2.0

     total cpu time spent up to now is       10.5 secs

     total energy              =     -15.60137256 Ry
     estimated scf accuracy    <       0.19182007 Ry

     iteration #  4     ecut=    50.00 Ry     beta= 0.01
     Davidson diagonalization with overlap
     ethr =  1.29E-03,  avg # of iterations =  1.6

     total cpu time spent up to now is       12.4 secs

     total energy              =     -15.60706799 Ry
     estimated scf accuracy    <       0.01936257 Ry

     iteration #  5     ecut=    50.00 Ry     beta= 0.01
     Davidson diagonalization with overlap
     ethr =  2.42E-04,  avg # of iterations =  1.0

     total cpu time spent up to now is       14.4 secs

     total energy              =     -15.60766292 Ry
     estimated scf accuracy    <       0.01122642 Ry

     iteration #  6     ecut=    50.00 Ry     beta= 0.01
     Davidson diagonalization with overlap
     ethr =  1.40E-04,  avg # of iterations =  1.0

     total cpu time spent up to now is       16.1 secs

     total energy              =     -15.60510918 Ry
     estimated scf accuracy    <       0.01123226 Ry

     iteration #  7     ecut=    50.00 Ry     beta= 0.01
     Davidson diagonalization with overlap
     ethr =  1.40E-04,  avg # of iterations =  2.0

     total cpu time spent up to now is       18.4 secs

     total energy              =     -15.60623309 Ry
     estimated scf accuracy    <       0.00011939 Ry

     iteration #  8     ecut=    50.00 Ry     beta= 0.01
     Davidson diagonalization with overlap
     ethr =  1.49E-06,  avg # of iterations =  3.1

     total cpu time spent up to now is       21.4 secs

     total energy              =     -15.60615196 Ry
     estimated scf accuracy    <       0.00022280 Ry

     iteration #  9     ecut=    50.00 Ry     beta= 0.01
     Davidson diagonalization with overlap
     ethr =  1.49E-06,  avg # of iterations =  2.0

     total cpu time spent up to now is       24.3 secs

     total energy              =     -15.60611669 Ry
     estimated scf accuracy    <       0.00005919 Ry

     iteration # 10     ecut=    50.00 Ry     beta= 0.01
     Davidson diagonalization with overlap
     ethr =  7.40E-07,  avg # of iterations =  2.0

     total cpu time spent up to now is       27.0 secs

     total energy              =     -15.60613805 Ry
     estimated scf accuracy    <       0.00002362 Ry

     iteration # 11     ecut=    50.00 Ry     beta= 0.01
     Davidson diagonalization with overlap
     ethr =  2.95E-07,  avg # of iterations =  2.0

     total cpu time spent up to now is       30.0 secs

     total energy              =     -15.60614626 Ry
     estimated scf accuracy    <       0.00000428 Ry

     iteration # 12     ecut=    50.00 Ry     beta= 0.01
     Davidson diagonalization with overlap
     ethr =  5.35E-08,  avg # of iterations =  2.0

     total cpu time spent up to now is       32.7 secs

     total energy              =     -15.60613567 Ry
     estimated scf accuracy    <       0.00000318 Ry

     iteration # 13     ecut=    50.00 Ry     beta= 0.01
     Davidson diagonalization with overlap
     ethr =  3.98E-08,  avg # of iterations =  3.1

     total cpu time spent up to now is       36.1 secs

     End of self-consistent calculation

          k = 0.0000 0.0000 0.0000 (  1139 PWs)   bands (ev):

    -4.8232  10.4349  10.4349  10.4349

          k =-0.1000 0.1000-0.1000 (  1125 PWs)   bands (ev):

    -4.6395   9.1128  10.1604  10.1604

          k =-0.2000 0.2000-0.2000 (  1122 PWs)   bands (ev):

    -4.0937   6.7630   9.6605   9.6605

          k =-0.3000 0.3000-0.3000 (  1125 PWs)   bands (ev):

    -3.2080   4.3871   9.2434   9.2434

          k =-0.4000 0.4000-0.4000 (  1125 PWs)   bands (ev):

    -2.0675   2.3035   8.9905   8.9905

          k = 0.5000-0.5000 0.5000 (  1158 PWs)   bands (ev):

    -1.2576   1.1728   8.9075   8.9075

          k = 0.0000 0.2000 0.0000 (  1127 PWs)   bands (ev):

    -4.5781   9.5832   9.5832   9.7080

          k =-0.1000 0.3000-0.1000 (  1124 PWs)   bands (ev):

    -4.1523   7.6048   8.9850   9.5104

          k =-0.2000 0.4000-0.2000 (  1115 PWs)   bands (ev):

    -3.3769   5.2549   8.5769   8.9687

          k =-0.3000 0.5000-0.3000 (  1125 PWs)   bands (ev):

    -2.3032   3.0670   8.4161   8.4169

          k = 0.6000-0.4000 0.6000 (  1125 PWs)   bands (ev):

    -1.2235   1.4640   7.9917   8.5042

          k = 0.5000-0.3000 0.5000 (  1125 PWs)   bands (ev):

    -1.5305   1.8780   7.7594   8.8135

          k = 0.4000-0.2000 0.4000 (  1125 PWs)   bands (ev):

    -2.6887   3.7662   7.7658   9.2916

          k = 0.3000-0.1000 0.3000 (  1119 PWs)   bands (ev):

    -3.6735   6.0367   8.0427   9.8465

          k = 0.2000 0.0000 0.2000 (  1129 PWs)   bands (ev):

    -4.3348   8.1905   8.7440  10.2665

          k = 0.0000 0.4000 0.0000 (  1114 PWs)   bands (ev):

    -3.8474   7.9726   8.3079   8.3079

          k =-0.1000 0.5000-0.1000 (  1125 PWs)   bands (ev):

    -3.1882   6.1191   7.8367   7.8392

          k =-0.2000 0.6000-0.2000 (  1121 PWs)   bands (ev):

    -2.2072   4.0225   7.0448   7.6431

          k = 0.7000-0.3000 0.7000 (  1123 PWs)   bands (ev):

    -1.0521   2.2122   6.3418   7.7325

          k = 0.6000-0.2000 0.6000 (  1120 PWs)   bands (ev):

    -0.7603   1.8362   5.8769   8.0930

          k = 0.5000-0.1000 0.5000 (  1122 PWs)   bands (ev):

    -1.8428   3.4098   5.7239   8.6773

          k = 0.4000 0.0000 0.4000 (  1119 PWs)   bands (ev):

    -2.9066   5.2432   6.1614   9.3656

          k = 0.0000 0.6000 0.0000 (  1118 PWs)   bands (ev):

    -2.6460   5.7427   7.2929   7.2929

          k =-0.1000 0.7000-0.1000 (  1119 PWs)   bands (ev):

    -1.7710   4.3593   6.3659   7.0206

          k = 0.8000-0.2000 0.8000 (  1126 PWs)   bands (ev):

    -0.6430   2.8730   5.1588   7.0451

          k = 0.7000-0.1000 0.7000 (  1129 PWs)   bands (ev):

     0.1239   2.0169   4.3482   7.3622

          k = 0.6000-0.0000 0.6000 (  1131 PWs)   bands (ev):

    -0.7453   2.9415   4.2570   7.9387

          k = 0.0000 0.8000 0.0000 (  1126 PWs)   bands (ev):

    -1.0037   3.3352   6.6615   6.6615

          k = 0.9000-0.1000 0.9000 (  1127 PWs)   bands (ev):

     0.0507   2.1810   5.7135   6.6004

          k = 0.8000 0.0000 0.8000 (  1128 PWs)   bands (ev):

     0.9163   1.5091   4.4337   6.8411

          k = 0.0000-1.0000 0.0000 (  1106 PWs)   bands (ev):

     1.0243   1.0243   6.4482   6.4482

          k =-0.2000 0.4000 0.0000 (  1118 PWs)   bands (ev):

    -3.6102   6.6700   7.4596   9.2468

          k =-0.3000 0.5000-0.1000 (  1124 PWs)   bands (ev):

    -2.7302   4.6738   6.8348   8.6610

          k = 0.6000-0.4000 0.8000 (  1130 PWs)   bands (ev):

    -1.5953   2.6683   6.6727   8.0907

          k = 0.5000-0.3000 0.7000 (  1122 PWs)   bands (ev):

    -0.7826   1.5520   6.6574   7.8502

          k =-0.2000 0.6000 0.0000 (  1120 PWs)   bands (ev):

    -2.4219   5.1359   6.4447   7.5119

          k = 0.7000-0.3000 0.9000 (  1118 PWs)   bands (ev):

    -1.3603   3.5212   5.6981   6.9511

          k = 0.6000-0.2000 0.8000 (  1121 PWs)   bands (ev):

    -0.2845   2.0854   5.1893   6.8698

          k = 0.5000-0.1000 0.7000 (  1128 PWs)   bands (ev):

    -0.6199   2.5204   4.8879   7.2575

          k = 0.4000 0.0000 0.6000 (  1126 PWs)   bands (ev):

    -1.7659   3.9987   5.1656   7.9430

          k = 0.8000-0.2000 1.0000 (  1120 PWs)   bands (ev):

    -0.8077   3.2635   5.8483   6.2334

          k = 0.7000-0.1000 0.9000 (  1123 PWs)   bands (ev):

     0.3319   2.1780   4.6888   6.1325

          k = 0.6000 0.0000 0.8000 (  1120 PWs)   bands (ev):

     0.4405   2.1163   4.0334   6.5410

          k =-0.2000-1.0000 0.0000 (  1124 PWs)   bands (ev):

     1.1517   1.1517   5.7417   5.7417

          k = 0.6000-0.2000 1.0000 (  1123 PWs)   bands (ev):

    -0.2630   2.8352   4.6656   6.0297

          k = 0.5000-0.1000 0.9000 (  1122 PWs)   bands (ev):

     0.5739   2.0623   4.4211   5.6401

          k =-0.4000-1.0000 0.0000 (  1130 PWs)   bands (ev):

     1.4016   1.4016   4.8539   4.8539

     highest occupied level (ev):    10.4349

!    total energy              =     -15.60613899 Ry
     estimated scf accuracy    <       0.00000033 Ry

     The total energy is the sum of the following terms:
     one-electron contribution =       7.78712463 Ry
     hartree contribution      =       0.83099844 Ry
     xc contribution           =      -5.27068391 Ry
     ewald contribution        =     -18.95357814 Ry

     convergence has been achieved in  13 iterations
     Writing meta-gga kinetic term

     Writing all to output data dir ./input_pw/Si/3/pwscf.save/
     Writing meta-gga kinetic term
 
     init_run     :      1.76s CPU      3.16s WALL (       1 calls)
     electrons    :     16.28s CPU     32.83s WALL (       1 calls)

     Called by init_run:
     wfcinit      :      1.67s CPU      2.91s WALL (       1 calls)
     potinit      :      0.02s CPU      0.04s WALL (       1 calls)
     hinit0       :      0.06s CPU      0.20s WALL (       1 calls)

     Called by electrons:
     c_bands      :     13.20s CPU     26.55s WALL (      13 calls)
     sum_band     :      2.69s CPU      5.53s WALL (      13 calls)
     v_of_rho     :      0.28s CPU      0.57s WALL (      14 calls)
     mix_rho      :      0.12s CPU      0.21s WALL (      13 calls)

     Called by c_bands:
     init_us_2    :      0.18s CPU      0.34s WALL (    1269 calls)
     init_us_2:cp :      0.18s CPU      0.34s WALL (    1269 calls)
     cegterg      :     12.98s CPU     26.10s WALL (     611 calls)

     Called by *egterg:
     cdiaghg      :      0.11s CPU      0.24s WALL (    1773 calls)
     h_psi        :     14.17s CPU     28.11s WALL (    1820 calls)
     g_psi        :      0.02s CPU      0.04s WALL (    1162 calls)

     Called by h_psi:
     h_psi:calbec :      0.09s CPU      0.18s WALL (    1820 calls)
     vloc_psi     :      3.48s CPU      7.01s WALL (    1820 calls)
     add_vuspsi   :      0.06s CPU      0.15s WALL (    1820 calls)
     h_psi_meta   :     10.50s CPU     20.68s WALL (    1820 calls)

     General routines
     calbec       :      0.08s CPU      0.17s WALL (    1820 calls)
     fft          :      0.03s CPU      0.10s WALL (     165 calls)
     ffts         :      0.04s CPU      0.06s WALL (     212 calls)
     fftw         :     13.60s CPU     27.48s WALL (   68944 calls)
     interpolate  :      0.00s CPU      0.00s WALL (      14 calls)
 
     Parallel routines
 
     PWSCF        :     18.09s CPU     36.13s WALL

 
   This run was terminated on:  11:31:42  29Mar2023            

=------------------------------------------------------------------------------=
   JOB DONE.
=------------------------------------------------------------------------------=
