
     Program PWSCF v.7.0 starts on 21Mar2023 at 13:11:36 

     This program is part of the open-source Quantum ESPRESSO suite
     for quantum simulation of materials; please cite
         "P. Giannozzi et al., J. Phys.:Condens. Matter 21 395502 (2009);
         "P. Giannozzi et al., J. Phys.:Condens. Matter 29 465901 (2017);
         "P. Giannozzi et al., J. Chem. Phys. 152 154105 (2020);
          URL http://www.quantum-espresso.org", 
     in publications or presentations arising from this work. More details at
     http://www.quantum-espresso.org/quote

     Parallel version (MPI), running on     1 processors

     MPI processes distributed on     1 nodes
     23990 MiB available memory on the printing compute node when the environment starts
 
     Waiting for input...
     Reading input from standard input
Warning: card &CELL ignored
Warning: card / ignored

     Current dimensions of program PWSCF are:
     Max number of different atomic species (ntypx) = 10
     Max number of k-points (npk) =  40000
     Max angular momentum in pseudopotentials (lmaxx) =  4
     file Al.SCAN.UPF2: wavefunction(s)  0D renormalized

     WARNING: the MGGA functional with ID    5 has been 
     read together with other dft terms, but it should 
     stand alone in order to work properly. The other 
     terms will be ignored.

     Subspace diagonalization in iterative solution of the eigenvalue problem:
     a serial algorithm will be used

 
     G-vector sticks info
     --------------------
     sticks:   dense  smooth     PW     G-vecs:    dense   smooth      PW
     Sum        2125    2125    595                64875    64875    9841
 
     Using Slab Decomposition
 


     bravais-lattice index     =            2
     lattice parameter (alat)  =      16.0665  a.u.
     unit-cell volume          =    1036.8118 (a.u.)^3
     number of atoms/cell      =            1
     number of atomic types    =            1
     number of electrons       =         3.00
     number of Kohn-Sham states=            6
     kinetic-energy cutoff     =      60.0000  Ry
     charge density cutoff     =     240.0000  Ry
     scf convergence threshold =      1.0E-06
     mixing beta               =       0.0100
     number of iterations used =            8  local-TF  mixing
     Exchange-correlation= SLA  PW   SCAN SCAN
                           (   0   0   0   0   0 263 267)

     celldm(1)=  16.066452  celldm(2)=   0.000000  celldm(3)=   0.000000
     celldm(4)=   0.000000  celldm(5)=   0.000000  celldm(6)=   0.000000

     crystal axes: (cart. coord. in units of alat)
               a(1) = (  -0.500000   0.000000   0.500000 )  
               a(2) = (   0.000000   0.500000   0.500000 )  
               a(3) = (  -0.500000   0.500000   0.000000 )  

     reciprocal axes: (cart. coord. in units 2 pi/alat)
               b(1) = ( -1.000000 -1.000000  1.000000 )  
               b(2) = (  1.000000  1.000000  1.000000 )  
               b(3) = ( -1.000000  1.000000 -1.000000 )  


     PseudoPot. # 1 for Al read from file:
     ~/Documents/TA/PWDFT.jl/pseudopotentials/scan_upf/Al.SCAN.UPF2
     MD5 check sum: Not computed, couldn't open file
     Pseudo is Norm-conserving, Zval =  3.0
     Generated by new atomic code, or converted to UPF format
     Using radial grid of 1467 points,  2 beta functions with: 
                l(1) =   0
                l(2) =   1

     atomic species   valence    mass     pseudopotential
        Al             3.00    26.98154     Al( 1.00)

     48 Sym. Ops., with inversion, found



   Cartesian axes

     site n.     atom                  positions (alat units)
         1           Al  tau(   1) = (   0.0000000   0.0000000   0.0000000  )

     number of k points=    47  Gaussian smearing, width (Ry)=  0.1000
                       cart. coord. in units 2pi/alat
        k(    1) = (   0.0000000   0.0000000   0.0000000), wk =   0.0020000
        k(    2) = (  -0.1000000   0.1000000  -0.1000000), wk =   0.0160000
        k(    3) = (  -0.2000000   0.2000000  -0.2000000), wk =   0.0160000
        k(    4) = (  -0.3000000   0.3000000  -0.3000000), wk =   0.0160000
        k(    5) = (  -0.4000000   0.4000000  -0.4000000), wk =   0.0160000
        k(    6) = (   0.5000000  -0.5000000   0.5000000), wk =   0.0080000
        k(    7) = (   0.0000000   0.2000000   0.0000000), wk =   0.0120000
        k(    8) = (  -0.1000000   0.3000000  -0.1000000), wk =   0.0480000
        k(    9) = (  -0.2000000   0.4000000  -0.2000000), wk =   0.0480000
        k(   10) = (  -0.3000000   0.5000000  -0.3000000), wk =   0.0480000
        k(   11) = (   0.6000000  -0.4000000   0.6000000), wk =   0.0480000
        k(   12) = (   0.5000000  -0.3000000   0.5000000), wk =   0.0480000
        k(   13) = (   0.4000000  -0.2000000   0.4000000), wk =   0.0480000
        k(   14) = (   0.3000000  -0.1000000   0.3000000), wk =   0.0480000
        k(   15) = (   0.2000000   0.0000000   0.2000000), wk =   0.0240000
        k(   16) = (   0.0000000   0.4000000   0.0000000), wk =   0.0120000
        k(   17) = (  -0.1000000   0.5000000  -0.1000000), wk =   0.0480000
        k(   18) = (  -0.2000000   0.6000000  -0.2000000), wk =   0.0480000
        k(   19) = (   0.7000000  -0.3000000   0.7000000), wk =   0.0480000
        k(   20) = (   0.6000000  -0.2000000   0.6000000), wk =   0.0480000
        k(   21) = (   0.5000000  -0.1000000   0.5000000), wk =   0.0480000
        k(   22) = (   0.4000000   0.0000000   0.4000000), wk =   0.0240000
        k(   23) = (   0.0000000   0.6000000   0.0000000), wk =   0.0120000
        k(   24) = (  -0.1000000   0.7000000  -0.1000000), wk =   0.0480000
        k(   25) = (   0.8000000  -0.2000000   0.8000000), wk =   0.0480000
        k(   26) = (   0.7000000  -0.1000000   0.7000000), wk =   0.0480000
        k(   27) = (   0.6000000  -0.0000000   0.6000000), wk =   0.0240000
        k(   28) = (   0.0000000   0.8000000   0.0000000), wk =   0.0120000
        k(   29) = (   0.9000000  -0.1000000   0.9000000), wk =   0.0480000
        k(   30) = (   0.8000000   0.0000000   0.8000000), wk =   0.0240000
        k(   31) = (   0.0000000  -1.0000000   0.0000000), wk =   0.0060000
        k(   32) = (  -0.2000000   0.4000000   0.0000000), wk =   0.0480000
        k(   33) = (  -0.3000000   0.5000000  -0.1000000), wk =   0.0960000
        k(   34) = (   0.6000000  -0.4000000   0.8000000), wk =   0.0960000
        k(   35) = (   0.5000000  -0.3000000   0.7000000), wk =   0.0480000
        k(   36) = (  -0.2000000   0.6000000   0.0000000), wk =   0.0480000
        k(   37) = (   0.7000000  -0.3000000   0.9000000), wk =   0.0960000
        k(   38) = (   0.6000000  -0.2000000   0.8000000), wk =   0.0960000
        k(   39) = (   0.5000000  -0.1000000   0.7000000), wk =   0.0960000
        k(   40) = (   0.4000000   0.0000000   0.6000000), wk =   0.0480000
        k(   41) = (   0.8000000  -0.2000000   1.0000000), wk =   0.0480000
        k(   42) = (   0.7000000  -0.1000000   0.9000000), wk =   0.0960000
        k(   43) = (   0.6000000   0.0000000   0.8000000), wk =   0.0480000
        k(   44) = (  -0.2000000  -1.0000000   0.0000000), wk =   0.0240000
        k(   45) = (   0.6000000  -0.2000000   1.0000000), wk =   0.0480000
        k(   46) = (   0.5000000  -0.1000000   0.9000000), wk =   0.0480000
        k(   47) = (  -0.4000000  -1.0000000   0.0000000), wk =   0.0240000

     Dense  grid:    64875 G-vectors     FFT dimensions: (  60,  60,  60)

     Estimated max dynamical RAM per process >     134.58 MB

     WARNING: libxc functional with ID  263 depends
      on external parameters: check the user_guide of
      QE if you need to modify them or to check their
      default values.

     Initial potential from superposition of free atoms

     starting charge       2.9979, renormalised to       3.0000
     Starting wfcs are    9 randomized atomic wfcs

     total cpu time spent up to now is       34.4 secs

     Self-consistent Calculation

     iteration #  1     ecut=    60.00 Ry     beta= 0.01
     Davidson diagonalization with overlap
     ethr =  1.00E-02,  avg # of iterations =  2.2

     Threshold (ethr) on eigenvalues was too large:
     Diagonalizing with lowered threshold

     Davidson diagonalization with overlap
     ethr =  5.82E-05,  avg # of iterations =  4.9

     total cpu time spent up to now is      211.5 secs

     total energy              =      -3.94690359 Ry
     estimated scf accuracy    <       0.00212467 Ry

     iteration #  2     ecut=    60.00 Ry     beta= 0.01
     Davidson diagonalization with overlap
     ethr =  7.08E-05,  avg # of iterations =  1.0

     total cpu time spent up to now is      274.1 secs

     total energy              =      -3.96099064 Ry
     estimated scf accuracy    <       0.00209559 Ry

     iteration #  3     ecut=    60.00 Ry     beta= 0.01
     Davidson diagonalization with overlap
     ethr =  6.99E-05,  avg # of iterations =  2.1

     total cpu time spent up to now is      341.6 secs

     total energy              =      -3.96226870 Ry
     estimated scf accuracy    <       0.00007493 Ry

     iteration #  4     ecut=    60.00 Ry     beta= 0.01
     Davidson diagonalization with overlap
     ethr =  2.50E-06,  avg # of iterations =  5.4

     total cpu time spent up to now is      409.5 secs

     total energy              =      -3.96209635 Ry
     estimated scf accuracy    <       0.00003528 Ry

     iteration #  5     ecut=    60.00 Ry     beta= 0.01
     Davidson diagonalization with overlap
     ethr =  1.18E-06,  avg # of iterations =  3.0

     total cpu time spent up to now is      463.4 secs

     total energy              =      -3.96227741 Ry
     estimated scf accuracy    <       0.00002556 Ry

     iteration #  6     ecut=    60.00 Ry     beta= 0.01
     Davidson diagonalization with overlap
     ethr =  8.52E-07,  avg # of iterations =  1.0

     total cpu time spent up to now is      491.8 secs

     total energy              =      -3.96231237 Ry
     estimated scf accuracy    <       0.00002397 Ry

     iteration #  7     ecut=    60.00 Ry     beta= 0.01
     Davidson diagonalization with overlap
     ethr =  7.99E-07,  avg # of iterations =  3.3

     total cpu time spent up to now is      537.5 secs

     total energy              =      -3.96243630 Ry
     estimated scf accuracy    <       0.00000266 Ry

     iteration #  8     ecut=    60.00 Ry     beta= 0.01
     Davidson diagonalization with overlap
     ethr =  8.86E-08,  avg # of iterations =  1.6

     total cpu time spent up to now is      568.2 secs

     total energy              =      -3.96243640 Ry
     estimated scf accuracy    <       0.00000278 Ry

     iteration #  9     ecut=    60.00 Ry     beta= 0.01
     Davidson diagonalization with overlap
     ethr =  8.86E-08,  avg # of iterations =  1.0

     total cpu time spent up to now is      593.5 secs

     total energy              =      -3.96243571 Ry
     estimated scf accuracy    <       0.00000281 Ry

     iteration # 10     ecut=    60.00 Ry     beta= 0.01
     Davidson diagonalization with overlap
     ethr =  8.86E-08,  avg # of iterations =  1.0

     total cpu time spent up to now is      606.1 secs

     total energy              =      -3.96239302 Ry
     estimated scf accuracy    <       0.00000282 Ry

     iteration # 11     ecut=    60.00 Ry     beta= 0.01
     Davidson diagonalization with overlap
     ethr =  8.86E-08,  avg # of iterations =  3.5

     total cpu time spent up to now is      618.5 secs

     total energy              =      -3.96239725 Ry
     estimated scf accuracy    <       0.00000474 Ry

     iteration # 12     ecut=    60.00 Ry     beta= 0.01
     Davidson diagonalization with overlap
     ethr =  8.86E-08,  avg # of iterations =  2.0

     total cpu time spent up to now is      627.5 secs

     total energy              =      -3.96238974 Ry
     estimated scf accuracy    <       0.00000534 Ry

     iteration # 13     ecut=    60.00 Ry     beta= 0.01
     Davidson diagonalization with overlap
     ethr =  8.86E-08,  avg # of iterations =  1.0

     total cpu time spent up to now is      635.2 secs

     total energy              =      -3.96236055 Ry
     estimated scf accuracy    <       0.00000654 Ry

     iteration # 14     ecut=    60.00 Ry     beta= 0.01
     Davidson diagonalization with overlap
     ethr =  8.86E-08,  avg # of iterations =  2.0

     total cpu time spent up to now is      646.1 secs

     total energy              =      -3.96235997 Ry
     estimated scf accuracy    <       0.00001293 Ry

     iteration # 15     ecut=    60.00 Ry     beta= 0.01
     Davidson diagonalization with overlap
     ethr =  8.86E-08,  avg # of iterations =  1.0

     total cpu time spent up to now is      653.9 secs

     total energy              =      -3.96234902 Ry
     estimated scf accuracy    <       0.00001391 Ry

     iteration # 16     ecut=    60.00 Ry     beta= 0.01
     Davidson diagonalization with overlap
     ethr =  8.86E-08,  avg # of iterations =  1.8

     total cpu time spent up to now is      662.1 secs

     total energy              =      -3.96240226 Ry
     estimated scf accuracy    <       0.00001592 Ry

     iteration # 17     ecut=    60.00 Ry     beta= 0.01
     Davidson diagonalization with overlap
     ethr =  8.86E-08,  avg # of iterations =  4.4

     total cpu time spent up to now is      675.7 secs

     End of self-consistent calculation

          k = 0.0000 0.0000 0.0000 (  8099 PWs)   bands (ev):

    -6.6886  -0.5898  -0.5898  -0.5898   1.0459   3.8672

          k =-0.1000 0.1000-0.1000 (  8102 PWs)   bands (ev):

    -6.6702  -0.7942  -0.6050  -0.6050   1.2654   3.6309

          k =-0.2000 0.2000-0.2000 (  8120 PWs)   bands (ev):

    -6.6206  -1.1956  -0.6431  -0.6431   1.6719   3.3631

          k =-0.3000 0.3000-0.3000 (  8105 PWs)   bands (ev):

    -6.5559  -1.5761  -0.6876  -0.6876   1.9301   3.3816

          k =-0.4000 0.4000-0.4000 (  8099 PWs)   bands (ev):

    -6.5005  -1.8388  -0.7217  -0.7217   1.9740   3.6782

          k = 0.5000-0.5000 0.5000 (  8086 PWs)   bands (ev):

    -6.4785  -1.9323  -0.7343  -0.7343   1.9660   3.6177

          k = 0.0000 0.2000 0.0000 (  8108 PWs)   bands (ev):

    -6.6641  -0.7998  -0.6399  -0.6399   1.3380   3.5153

          k =-0.1000 0.3000-0.1000 (  8110 PWs)   bands (ev):

    -6.6249  -1.0997  -0.6928  -0.6731   1.6828   3.2671

          k =-0.2000 0.4000-0.2000 (  8142 PWs)   bands (ev):

    -6.5650  -1.4606  -0.7419  -0.7263   2.0103   3.2029

          k =-0.3000 0.5000-0.3000 (  8115 PWs)   bands (ev):

    -6.5061  -1.7450  -0.7921  -0.7697   2.1256   3.2138

          k = 0.6000-0.4000 0.6000 (  8140 PWs)   bands (ev):

    -6.4725  -1.8870  -0.8453  -0.7677   2.1367   3.1426

          k = 0.5000-0.3000 0.5000 (  8141 PWs)   bands (ev):

    -6.4798  -1.8565  -0.8672  -0.7369   2.1493   3.1842

          k = 0.4000-0.2000 0.4000 (  8120 PWs)   bands (ev):

    -6.5245  -1.6614  -0.8487  -0.6873   2.1334   3.2985

          k = 0.3000-0.1000 0.3000 (  8123 PWs)   bands (ev):

    -6.5865  -1.3481  -0.7896  -0.6362   1.9319   3.2575

          k = 0.2000 0.0000 0.2000 (  8106 PWs)   bands (ev):

    -6.6414  -1.0093  -0.6964  -0.6037   1.5462   3.4099

          k = 0.0000 0.4000 0.0000 (  8120 PWs)   bands (ev):

    -6.5981  -1.1784  -0.7624  -0.7624   1.8720   3.0096

          k =-0.1000 0.5000-0.1000 (  8142 PWs)   bands (ev):

    -6.5489  -1.4117  -0.8385  -0.8240   2.0966   2.8682

          k =-0.2000 0.6000-0.2000 (  8113 PWs)   bands (ev):

    -6.4944  -1.6383  -0.9519  -0.8564   2.2343   2.9201

          k = 0.7000-0.3000 0.7000 (  8141 PWs)   bands (ev):

    -6.4562  -1.7731  -1.0708  -0.8500   2.3186   2.8934

          k = 0.6000-0.2000 0.6000 (  8141 PWs)   bands (ev):

    -6.4513  -1.7818  -1.1445  -0.8070   2.4548   2.8418

          k = 0.5000-0.1000 0.5000 (  8141 PWs)   bands (ev):

    -6.4817  -1.6758  -1.1313  -0.7409   2.5629   2.9234

          k = 0.4000 0.0000 0.4000 (  8146 PWs)   bands (ev):

    -6.5339  -1.5131  -1.0010  -0.6749   2.3415   3.2011

          k = 0.0000 0.6000 0.0000 (  8144 PWs)   bands (ev):

    -6.5127  -1.5070  -0.9000  -0.9000   2.0130   2.6163

          k =-0.1000 0.7000-0.1000 (  8136 PWs)   bands (ev):

    -6.4692  -1.6373  -1.0071  -0.9441   1.9762   2.5740

          k = 0.8000-0.2000 0.8000 (  8132 PWs)   bands (ev):

    -6.4354  -1.6948  -1.1966  -0.9435   2.0425   2.7631

          k = 0.7000-0.1000 0.7000 (  8152 PWs)   bands (ev):

    -6.4255  -1.6474  -1.3881  -0.8986   2.2041   2.9996

          k = 0.6000-0.0000 0.6000 (  8144 PWs)   bands (ev):

    -6.4435  -1.6212  -1.3859  -0.8225   2.4748   3.0233

          k = 0.0000 0.8000 0.0000 (  8132 PWs)   bands (ev):

    -6.4399  -1.7193  -1.0021  -1.0021   1.7486   2.3746

          k = 0.9000-0.1000 0.9000 (  8141 PWs)   bands (ev):

    -6.4180  -1.7506  -1.1113  -1.0137   1.7480   2.4228

          k = 0.8000 0.0000 0.8000 (  8126 PWs)   bands (ev):

    -6.4125  -1.6834  -1.3179  -0.9757   1.9251   2.7125

          k = 0.0000-1.0000 0.0000 (  8144 PWs)   bands (ev):

    -6.4112  -1.7923  -1.0393  -1.0393   1.6186   2.2934

          k =-0.2000 0.4000 0.0000 (  8127 PWs)   bands (ev):

    -6.5805  -1.3137  -0.8333  -0.6926   2.0057   3.0930

          k =-0.3000 0.5000-0.1000 (  8133 PWs)   bands (ev):

    -6.5231  -1.5626  -0.9533  -0.7408   2.2990   3.0828

          k = 0.6000-0.4000 0.8000 (  8133 PWs)   bands (ev):

    -6.4744  -1.7551  -1.0196  -0.7953   2.4009   2.9123

          k = 0.5000-0.3000 0.7000 (  8152 PWs)   bands (ev):

    -6.4552  -1.8267  -1.0397  -0.8190   2.4213   2.8186

          k =-0.2000 0.6000 0.0000 (  8135 PWs)   bands (ev):

    -6.5023  -1.5555  -0.9851  -0.8610   2.1951   2.7802

          k = 0.7000-0.3000 0.9000 (  8148 PWs)   bands (ev):

    -6.4579  -1.6656  -1.1311  -0.9155   2.2850   2.8821

          k = 0.6000-0.2000 0.8000 (  8159 PWs)   bands (ev):

    -6.4340  -1.7025  -1.2563  -0.9255   2.3902   2.9063

          k = 0.5000-0.1000 0.7000 (  8149 PWs)   bands (ev):

    -6.4409  -1.6731  -1.2961  -0.8791   2.5695   2.8548

          k = 0.4000 0.0000 0.6000 (  8133 PWs)   bands (ev):

    -6.4756  -1.6268  -1.1812  -0.8032   2.6470   2.9050

          k = 0.8000-0.2000 1.0000 (  8139 PWs)   bands (ev):

    -6.4363  -1.6948  -1.0967  -1.0158   1.9450   2.5739

          k = 0.7000-0.1000 0.9000 (  8143 PWs)   bands (ev):

    -6.4168  -1.6648  -1.2845  -1.0317   2.0699   2.8009

          k = 0.6000 0.0000 0.8000 (  8145 PWs)   bands (ev):

    -6.4186  -1.5304  -1.5017  -0.9734   2.2798   3.0567

          k =-0.2000-1.0000 0.0000 (  8152 PWs)   bands (ev):

    -6.4105  -1.7374  -1.1372  -1.0793   1.8188   2.5029

          k = 0.6000-0.2000 1.0000 (  8171 PWs)   bands (ev):

    -6.4277  -1.6243  -1.3109  -1.0140   2.3723   3.0793

          k = 0.5000-0.1000 0.9000 (  8146 PWs)   bands (ev):

    -6.4160  -1.5616  -1.4186  -1.0634   2.3968   3.1623

          k =-0.4000-1.0000 0.0000 (  8136 PWs)   bands (ev):

    -6.4093  -1.5817  -1.3574  -1.1389   2.2487   3.0411

     the Fermi energy is    -2.1720 ev

!    total energy              =      -3.96242770 Ry
     estimated scf accuracy    <       0.00000025 Ry
     smearing contrib. (-TS)   =      -0.09828361 Ry
     internal energy E=F+TS    =      -3.86414410 Ry

     The total energy is F=E-TS. E is the sum of the following terms:
     one-electron contribution =      -0.76333357 Ry
     hartree contribution      =       0.63212863 Ry
     xc contribution           =      -1.16462103 Ry
     ewald contribution        =      -2.56831813 Ry

     convergence has been achieved in  17 iterations
     Writing meta-gga kinetic term

     Writing all to output data dir ./input_pw/Al/11/pwscf.save/
     Writing meta-gga kinetic term
 
     init_run     :     19.01s CPU     34.36s WALL (       1 calls)
     electrons    :    499.55s CPU    641.33s WALL (       1 calls)

     Called by init_run:
     wfcinit      :     18.64s CPU     33.45s WALL (       1 calls)
     potinit      :      0.19s CPU      0.51s WALL (       1 calls)
     hinit0       :      0.08s CPU      0.20s WALL (       1 calls)

     Called by electrons:
     c_bands      :    415.88s CPU    533.61s WALL (      18 calls)
     sum_band     :     77.80s CPU    100.83s WALL (      18 calls)
     v_of_rho     :      2.53s CPU      3.12s WALL (      18 calls)
     mix_rho      :      3.37s CPU      4.02s WALL (      18 calls)

     Called by c_bands:
     init_us_2    :      1.31s CPU      1.72s WALL (    1739 calls)
     init_us_2:cp :      1.30s CPU      1.72s WALL (    1739 calls)
     cegterg      :    414.36s CPU    531.57s WALL (     846 calls)

     Called by *egterg:
     cdiaghg      :      0.30s CPU      0.37s WALL (    2782 calls)
     h_psi        :    426.99s CPU    557.22s WALL (    2876 calls)
     g_psi        :      0.27s CPU      0.37s WALL (    1983 calls)

     Called by h_psi:
     h_psi:calbec :      1.16s CPU      1.60s WALL (    2876 calls)
     vloc_psi     :    105.07s CPU    137.42s WALL (    2876 calls)
     add_vuspsi   :      0.65s CPU      0.79s WALL (    2876 calls)
     h_psi_meta   :    319.69s CPU    416.84s WALL (    2876 calls)

     General routines
     calbec       :      1.14s CPU      1.58s WALL (    2876 calls)
     fft          :      0.59s CPU      0.80s WALL (     215 calls)
     ffts         :      1.12s CPU      1.33s WALL (     400 calls)
     fftw         :    384.46s CPU    498.01s WALL (  135056 calls)
     interpolate  :      0.01s CPU      0.01s WALL (      18 calls)
 
     Parallel routines
 
     PWSCF        :   8m38.60s CPU  11m15.80s WALL

 
   This run was terminated on:  13:22:52  21Mar2023            

=------------------------------------------------------------------------------=
   JOB DONE.
=------------------------------------------------------------------------------=
