
     Program PWSCF v.7.0 starts on  4Apr2023 at  8:56:50 

     This program is part of the open-source Quantum ESPRESSO suite
     for quantum simulation of materials; please cite
         "P. Giannozzi et al., J. Phys.:Condens. Matter 21 395502 (2009);
         "P. Giannozzi et al., J. Phys.:Condens. Matter 29 465901 (2017);
         "P. Giannozzi et al., J. Chem. Phys. 152 154105 (2020);
          URL http://www.quantum-espresso.org", 
     in publications or presentations arising from this work. More details at
     http://www.quantum-espresso.org/quote

     Parallel version (MPI), running on     1 processors

     MPI processes distributed on     1 nodes
     19790 MiB available memory on the printing compute node when the environment starts
 
     Waiting for input...
     Reading input from standard input
Warning: card &CELL ignored
Warning: card / ignored

     Current dimensions of program PWSCF are:
     Max number of different atomic species (ntypx) = 10
     Max number of k-points (npk) =  40000
     Max angular momentum in pseudopotentials (lmaxx) =  4
     file Al.SCAN.UPF2: wavefunction(s)  0D renormalized

     WARNING: the MGGA functional with ID    5 has been 
     read together with other dft terms, but it should 
     stand alone in order to work properly. The other 
     terms will be ignored.

     Subspace diagonalization in iterative solution of the eigenvalue problem:
     a serial algorithm will be used

 
     G-vector sticks info
     --------------------
     sticks:   dense  smooth     PW     G-vecs:    dense   smooth      PW
     Sum        1273    1273    367                29939    29939    4693
 
     Using Slab Decomposition
 


     bravais-lattice index     =            2
     lattice parameter (alat)  =      12.3966  a.u.
     unit-cell volume          =     476.2644 (a.u.)^3
     number of atoms/cell      =            1
     number of atomic types    =            1
     number of electrons       =         3.00
     number of Kohn-Sham states=            6
     kinetic-energy cutoff     =      60.0000  Ry
     charge density cutoff     =     240.0000  Ry
     scf convergence threshold =      1.0E-06
     mixing beta               =       0.0100
     number of iterations used =            8  local-TF  mixing
     Exchange-correlation= SLA  PW   SCAN SCAN
                           (   0   0   0   0   0 263 267)

     celldm(1)=  12.396603  celldm(2)=   0.000000  celldm(3)=   0.000000
     celldm(4)=   0.000000  celldm(5)=   0.000000  celldm(6)=   0.000000

     crystal axes: (cart. coord. in units of alat)
               a(1) = (  -0.500000   0.000000   0.500000 )  
               a(2) = (   0.000000   0.500000   0.500000 )  
               a(3) = (  -0.500000   0.500000   0.000000 )  

     reciprocal axes: (cart. coord. in units 2 pi/alat)
               b(1) = ( -1.000000 -1.000000  1.000000 )  
               b(2) = (  1.000000  1.000000  1.000000 )  
               b(3) = ( -1.000000  1.000000 -1.000000 )  


     PseudoPot. # 1 for Al read from file:
     ~/Documents/TA/PWDFT.jl/pseudopotentials/scan_upf/Al.SCAN.UPF2
     MD5 check sum: Not computed, couldn't open file
     Pseudo is Norm-conserving, Zval =  3.0
     Generated by new atomic code, or converted to UPF format
     Using radial grid of 1467 points,  2 beta functions with: 
                l(1) =   0
                l(2) =   1

     atomic species   valence    mass     pseudopotential
        Al             3.00    26.98154     Al( 1.00)

     48 Sym. Ops., with inversion, found



   Cartesian axes

     site n.     atom                  positions (alat units)
         1           Al  tau(   1) = (   0.0000000   0.0000000   0.0000000  )

     number of k points=    47  Gaussian smearing, width (Ry)=  0.1000
                       cart. coord. in units 2pi/alat
        k(    1) = (   0.0000000   0.0000000   0.0000000), wk =   0.0020000
        k(    2) = (  -0.1000000   0.1000000  -0.1000000), wk =   0.0160000
        k(    3) = (  -0.2000000   0.2000000  -0.2000000), wk =   0.0160000
        k(    4) = (  -0.3000000   0.3000000  -0.3000000), wk =   0.0160000
        k(    5) = (  -0.4000000   0.4000000  -0.4000000), wk =   0.0160000
        k(    6) = (   0.5000000  -0.5000000   0.5000000), wk =   0.0080000
        k(    7) = (   0.0000000   0.2000000   0.0000000), wk =   0.0120000
        k(    8) = (  -0.1000000   0.3000000  -0.1000000), wk =   0.0480000
        k(    9) = (  -0.2000000   0.4000000  -0.2000000), wk =   0.0480000
        k(   10) = (  -0.3000000   0.5000000  -0.3000000), wk =   0.0480000
        k(   11) = (   0.6000000  -0.4000000   0.6000000), wk =   0.0480000
        k(   12) = (   0.5000000  -0.3000000   0.5000000), wk =   0.0480000
        k(   13) = (   0.4000000  -0.2000000   0.4000000), wk =   0.0480000
        k(   14) = (   0.3000000  -0.1000000   0.3000000), wk =   0.0480000
        k(   15) = (   0.2000000   0.0000000   0.2000000), wk =   0.0240000
        k(   16) = (   0.0000000   0.4000000   0.0000000), wk =   0.0120000
        k(   17) = (  -0.1000000   0.5000000  -0.1000000), wk =   0.0480000
        k(   18) = (  -0.2000000   0.6000000  -0.2000000), wk =   0.0480000
        k(   19) = (   0.7000000  -0.3000000   0.7000000), wk =   0.0480000
        k(   20) = (   0.6000000  -0.2000000   0.6000000), wk =   0.0480000
        k(   21) = (   0.5000000  -0.1000000   0.5000000), wk =   0.0480000
        k(   22) = (   0.4000000   0.0000000   0.4000000), wk =   0.0240000
        k(   23) = (   0.0000000   0.6000000   0.0000000), wk =   0.0120000
        k(   24) = (  -0.1000000   0.7000000  -0.1000000), wk =   0.0480000
        k(   25) = (   0.8000000  -0.2000000   0.8000000), wk =   0.0480000
        k(   26) = (   0.7000000  -0.1000000   0.7000000), wk =   0.0480000
        k(   27) = (   0.6000000  -0.0000000   0.6000000), wk =   0.0240000
        k(   28) = (   0.0000000   0.8000000   0.0000000), wk =   0.0120000
        k(   29) = (   0.9000000  -0.1000000   0.9000000), wk =   0.0480000
        k(   30) = (   0.8000000   0.0000000   0.8000000), wk =   0.0240000
        k(   31) = (   0.0000000  -1.0000000   0.0000000), wk =   0.0060000
        k(   32) = (  -0.2000000   0.4000000   0.0000000), wk =   0.0480000
        k(   33) = (  -0.3000000   0.5000000  -0.1000000), wk =   0.0960000
        k(   34) = (   0.6000000  -0.4000000   0.8000000), wk =   0.0960000
        k(   35) = (   0.5000000  -0.3000000   0.7000000), wk =   0.0480000
        k(   36) = (  -0.2000000   0.6000000   0.0000000), wk =   0.0480000
        k(   37) = (   0.7000000  -0.3000000   0.9000000), wk =   0.0960000
        k(   38) = (   0.6000000  -0.2000000   0.8000000), wk =   0.0960000
        k(   39) = (   0.5000000  -0.1000000   0.7000000), wk =   0.0960000
        k(   40) = (   0.4000000   0.0000000   0.6000000), wk =   0.0480000
        k(   41) = (   0.8000000  -0.2000000   1.0000000), wk =   0.0480000
        k(   42) = (   0.7000000  -0.1000000   0.9000000), wk =   0.0960000
        k(   43) = (   0.6000000   0.0000000   0.8000000), wk =   0.0480000
        k(   44) = (  -0.2000000  -1.0000000   0.0000000), wk =   0.0240000
        k(   45) = (   0.6000000  -0.2000000   1.0000000), wk =   0.0480000
        k(   46) = (   0.5000000  -0.1000000   0.9000000), wk =   0.0480000
        k(   47) = (  -0.4000000  -1.0000000   0.0000000), wk =   0.0240000

     Dense  grid:    29939 G-vectors     FFT dimensions: (  45,  45,  45)

     Estimated max dynamical RAM per process >      61.11 MB

     WARNING: libxc functional with ID  263 depends
      on external parameters: check the user_guide of
      QE if you need to modify them or to check their
      default values.

     Initial potential from superposition of free atoms

     starting charge       2.9979, renormalised to       3.0000
     Starting wfcs are    9 randomized atomic wfcs

     total cpu time spent up to now is        9.8 secs

     Self-consistent Calculation

     iteration #  1     ecut=    60.00 Ry     beta= 0.01
     Davidson diagonalization with overlap
     ethr =  1.00E-02,  avg # of iterations =  2.8

     Threshold (ethr) on eigenvalues was too large:
     Diagonalizing with lowered threshold

     Davidson diagonalization with overlap
     ethr =  1.21E-04,  avg # of iterations =  2.8

     total cpu time spent up to now is       56.4 secs

     total energy              =      -3.99261007 Ry
     estimated scf accuracy    <       0.00352039 Ry

     iteration #  2     ecut=    60.00 Ry     beta= 0.01
     Davidson diagonalization with overlap
     ethr =  1.17E-04,  avg # of iterations =  1.0

     total cpu time spent up to now is       73.5 secs

     total energy              =      -3.99950180 Ry
     estimated scf accuracy    <       0.00344799 Ry

     iteration #  3     ecut=    60.00 Ry     beta= 0.01
     Davidson diagonalization with overlap
     ethr =  1.15E-04,  avg # of iterations =  2.0

     total cpu time spent up to now is       93.1 secs

     total energy              =      -4.00075129 Ry
     estimated scf accuracy    <       0.00011819 Ry

     iteration #  4     ecut=    60.00 Ry     beta= 0.01
     Davidson diagonalization with overlap
     ethr =  3.94E-06,  avg # of iterations =  3.1

     total cpu time spent up to now is      110.0 secs

     total energy              =      -4.00079972 Ry
     estimated scf accuracy    <       0.00004417 Ry

     iteration #  5     ecut=    60.00 Ry     beta= 0.01
     Davidson diagonalization with overlap
     ethr =  1.47E-06,  avg # of iterations =  1.1

     total cpu time spent up to now is      120.1 secs

     total energy              =      -4.00073169 Ry
     estimated scf accuracy    <       0.00004283 Ry

     iteration #  6     ecut=    60.00 Ry     beta= 0.01
     Davidson diagonalization with overlap
     ethr =  1.43E-06,  avg # of iterations =  2.0

     total cpu time spent up to now is      126.9 secs

     total energy              =      -4.00074098 Ry
     estimated scf accuracy    <       0.00003952 Ry

     iteration #  7     ecut=    60.00 Ry     beta= 0.01
     Davidson diagonalization with overlap
     ethr =  1.32E-06,  avg # of iterations =  2.0

     total cpu time spent up to now is      133.4 secs

     total energy              =      -4.00075861 Ry
     estimated scf accuracy    <       0.00000222 Ry

     iteration #  8     ecut=    60.00 Ry     beta= 0.01
     Davidson diagonalization with overlap
     ethr =  7.42E-08,  avg # of iterations =  1.1

     total cpu time spent up to now is      138.0 secs

     total energy              =      -4.00075920 Ry
     estimated scf accuracy    <       0.00000180 Ry

     iteration #  9     ecut=    60.00 Ry     beta= 0.01
     Davidson diagonalization with overlap
     ethr =  5.99E-08,  avg # of iterations =  1.0

     total cpu time spent up to now is      142.5 secs

     total energy              =      -4.00076015 Ry
     estimated scf accuracy    <       0.00000118 Ry

     iteration # 10     ecut=    60.00 Ry     beta= 0.01
     Davidson diagonalization with overlap
     ethr =  3.92E-08,  avg # of iterations =  2.0

     total cpu time spent up to now is      147.3 secs

     End of self-consistent calculation

          k = 0.0000 0.0000 0.0000 (  3719 PWs)   bands (ev):

    -5.9711   2.6802   2.6802   2.6802   5.5774   6.8745

          k =-0.1000 0.1000-0.1000 (  3749 PWs)   bands (ev):

    -5.8887   2.0982   2.6190   2.6190   5.8833   6.7570

          k =-0.2000 0.2000-0.2000 (  3723 PWs)   bands (ev):

    -5.6509   0.9763   2.4770   2.4770   5.6815   7.1767

          k =-0.3000 0.3000-0.3000 (  3726 PWs)   bands (ev):

    -5.2938  -0.1455   2.3288   2.3288   5.3239   6.9011

          k =-0.4000 0.4000-0.4000 (  3750 PWs)   bands (ev):

    -4.9155  -1.0166   2.2253   2.2253   5.1004   6.5964

          k = 0.5000-0.5000 0.5000 (  3750 PWs)   bands (ev):

    -4.7326  -1.3682   2.1890   2.1890   5.0266   6.4825

          k = 0.0000 0.2000 0.0000 (  3731 PWs)   bands (ev):

    -5.8612   2.1750   2.4601   2.4601   6.1083   6.3043

          k =-0.1000 0.3000-0.1000 (  3726 PWs)   bands (ev):

    -5.6748   1.3161   2.2571   2.3544   5.9386   6.5490

          k =-0.2000 0.4000-0.2000 (  3726 PWs)   bands (ev):

    -5.3550   0.2333   2.0957   2.1592   5.6376   6.6317

          k =-0.3000 0.5000-0.3000 (  3738 PWs)   bands (ev):

    -4.9732  -0.7095   1.9326   2.0221   5.4355   6.2587

          k = 0.6000-0.4000 0.6000 (  3743 PWs)   bands (ev):

    -4.7023  -1.2479   1.7540   2.0495   5.3805   6.0970

          k = 0.5000-0.3000 0.5000 (  3739 PWs)   bands (ev):

    -4.7652  -1.1295   1.6674   2.1673   5.4667   6.1685

          k = 0.4000-0.2000 0.4000 (  3741 PWs)   bands (ev):

    -5.1008  -0.4225   1.6980   2.3452   5.6643   6.4841

          k = 0.3000-0.1000 0.3000 (  3733 PWs)   bands (ev):

    -5.4746   0.5818   1.8633   2.5304   5.9705   6.8935

          k = 0.2000 0.0000 0.2000 (  3735 PWs)   bands (ev):

    -5.7543   1.5573   2.2031   2.6454   6.2657   6.4435

          k = 0.0000 0.4000 0.0000 (  3715 PWs)   bands (ev):

    -5.5431   1.2191   1.9965   1.9965   5.4581   5.9376

          k =-0.1000 0.5000-0.1000 (  3722 PWs)   bands (ev):

    -5.2735   0.4924   1.7266   1.7959   5.2477   5.6289

          k =-0.2000 0.6000-0.2000 (  3743 PWs)   bands (ev):

    -4.9199  -0.3335   1.3376   1.7055   4.9956   6.1391

          k = 0.7000-0.3000 0.7000 (  3735 PWs)   bands (ev):

    -4.6127  -0.9279   0.9823   1.7415   4.9447   6.6099

          k = 0.6000-0.2000 0.6000 (  3720 PWs)   bands (ev):

    -4.5625  -1.0075   0.7624   1.8956   5.1382   6.7185

          k = 0.5000-0.1000 0.5000 (  3736 PWs)   bands (ev):

    -4.8148  -0.5369   0.7452   2.1335   5.5619   6.7709

          k = 0.4000 0.0000 0.4000 (  3723 PWs)   bands (ev):

    -5.1722   0.1179   1.0832   2.3834   6.1618   6.7222

          k = 0.0000 0.6000 0.0000 (  3731 PWs)   bands (ev):

    -5.0612   0.2310   1.5518   1.5518   4.7333   4.7931

          k =-0.1000 0.7000-0.1000 (  3738 PWs)   bands (ev):

    -4.7617  -0.2764   1.1463   1.4238   4.4091   4.9546

          k = 0.8000-0.2000 0.8000 (  3739 PWs)   bands (ev):

    -4.4768  -0.6534   0.5153   1.4340   4.3530   5.8208

          k = 0.7000-0.1000 0.7000 (  3745 PWs)   bands (ev):

    -4.3700  -0.6891   0.0104   1.5803   4.5376   6.9082

          k = 0.6000-0.0000 0.6000 (  3743 PWs)   bands (ev):

    -4.5215  -0.5183  -0.0103   1.8357   4.9535   7.6940

          k = 0.0000 0.8000 0.0000 (  3744 PWs)   bands (ev):

    -4.5388  -0.6106   1.2529   1.2529   3.9196   4.3830

          k = 0.9000-0.1000 0.9000 (  3744 PWs)   bands (ev):

    -4.3389  -0.8346   0.8222   1.2230   3.9161   4.6743

          k = 0.8000 0.0000 0.8000 (  3759 PWs)   bands (ev):

    -4.2721  -0.7342   0.1385   1.3382   4.1311   5.7074

          k = 0.0000-1.0000 0.0000 (  3740 PWs)   bands (ev):

    -4.2771  -0.9833   1.1490   1.1490   3.6445   4.2451

          k =-0.2000 0.4000 0.0000 (  3730 PWs)   bands (ev):

    -5.4462   0.7563   1.6821   2.2982   5.9386   6.3094

          k =-0.3000 0.5000-0.1000 (  3743 PWs)   bands (ev):

    -5.1060  -0.0664   1.3016   2.1100   5.8137   6.2898

          k = 0.6000-0.4000 0.8000 (  3748 PWs)   bands (ev):

    -4.7520  -0.8157   1.1478   1.9038   5.6659   6.0336

          k = 0.5000-0.3000 0.7000 (  3732 PWs)   bands (ev):

    -4.5843  -1.1277   1.1100   1.8165   5.6482   5.8828

          k =-0.2000 0.6000 0.0000 (  3733 PWs)   bands (ev):

    -4.9852   0.0222   1.1972   1.6529   5.1668   5.3700

          k = 0.7000-0.3000 0.9000 (  3742 PWs)   bands (ev):

    -4.6562  -0.4939   0.7478   1.4343   5.0524   6.0275

          k = 0.6000-0.2000 0.8000 (  3730 PWs)   bands (ev):

    -4.4400  -0.8089   0.4227   1.3984   5.1148   6.6119

          k = 0.5000-0.1000 0.7000 (  3747 PWs)   bands (ev):

    -4.4986  -0.6966   0.2915   1.5637   5.3638   6.6585

          k = 0.4000 0.0000 0.6000 (  3745 PWs)   bands (ev):

    -4.7809  -0.3417   0.5502   1.8500   5.7383   6.6366

          k = 0.8000-0.2000 1.0000 (  3743 PWs)   bands (ev):

    -4.4986  -0.5850   0.8765   1.1028   4.4481   5.0005

          k = 0.7000-0.1000 0.9000 (  3736 PWs)   bands (ev):

    -4.3118  -0.6611   0.2558   1.0444   4.6486   5.8294

          k = 0.6000 0.0000 0.8000 (  3745 PWs)   bands (ev):

    -4.3152  -0.3689  -0.3256   1.2344   4.9328   6.9036

          k =-0.2000-1.0000 0.0000 (  3738 PWs)   bands (ev):

    -4.2632  -0.8585   0.7657   0.8964   4.2145   4.8743

          k = 0.6000-0.2000 1.0000 (  3739 PWs)   bands (ev):

    -4.4039  -0.5186   0.2050   1.0278   5.4495   6.3786

          k = 0.5000-0.1000 0.9000 (  3746 PWs)   bands (ev):

    -4.2945  -0.4744  -0.0500   0.8509   5.5365   6.8029

          k =-0.4000-1.0000 0.0000 (  3748 PWs)   bands (ev):

    -4.2402  -0.4912   0.0868   0.5876   5.3293   6.2792

     the Fermi energy is    -0.6755 ev

!    total energy              =      -4.00076137 Ry
     estimated scf accuracy    <       0.00000002 Ry
     smearing contrib. (-TS)   =      -0.06909140 Ry
     internal energy E=F+TS    =      -3.93166996 Ry

     The total energy is F=E-TS. E is the sum of the following terms:
     one-electron contribution =       0.32638406 Ry
     hartree contribution      =       0.26521100 Ry
     xc contribution           =      -1.19463077 Ry
     ewald contribution        =      -3.32863426 Ry

     convergence has been achieved in  10 iterations
     Writing meta-gga kinetic term

     Writing all to output data dir ./input_pw/Al/11/pwscf.save/
     Writing meta-gga kinetic term
 
     init_run     :      5.30s CPU      9.81s WALL (       1 calls)
     electrons    :     98.20s CPU    137.51s WALL (       1 calls)

     Called by init_run:
     wfcinit      :      5.12s CPU      9.40s WALL (       1 calls)
     potinit      :      0.07s CPU      0.21s WALL (       1 calls)
     hinit0       :      0.08s CPU      0.15s WALL (       1 calls)

     Called by electrons:
     c_bands      :     79.17s CPU    110.97s WALL (      11 calls)
     sum_band     :     17.90s CPU     25.07s WALL (      11 calls)
     v_of_rho     :      0.62s CPU      0.93s WALL (      11 calls)
     mix_rho      :      0.53s CPU      0.69s WALL (      11 calls)

     Called by c_bands:
     init_us_2    :      0.38s CPU      0.54s WALL (    1081 calls)
     init_us_2:cp :      0.38s CPU      0.54s WALL (    1081 calls)
     cegterg      :     78.75s CPU    110.41s WALL (     517 calls)

     Called by *egterg:
     cdiaghg      :      0.14s CPU      0.20s WALL (    1451 calls)
     h_psi        :     82.53s CPU    117.84s WALL (    1545 calls)
     g_psi        :      0.05s CPU      0.07s WALL (     981 calls)

     Called by h_psi:
     h_psi:calbec :      0.23s CPU      0.30s WALL (    1545 calls)
     vloc_psi     :     20.54s CPU     28.92s WALL (    1545 calls)
     add_vuspsi   :      0.15s CPU      0.18s WALL (    1545 calls)
     h_psi_meta   :     61.52s CPU     88.31s WALL (    1545 calls)

     General routines
     calbec       :      0.22s CPU      0.29s WALL (    1545 calls)
     fft          :      0.14s CPU      0.23s WALL (     131 calls)
     ffts         :      0.19s CPU      0.29s WALL (     175 calls)
     fftw         :     80.83s CPU    116.23s WALL (   77592 calls)
     interpolate  :      0.00s CPU      0.00s WALL (      11 calls)
 
     Parallel routines
 
     PWSCF        :   1m43.54s CPU   2m27.38s WALL

 
   This run was terminated on:   8:59:18   4Apr2023            

=------------------------------------------------------------------------------=
   JOB DONE.
=------------------------------------------------------------------------------=
