
     Program PWSCF v.7.0 starts on 21Mar2023 at 11:18: 3 

     This program is part of the open-source Quantum ESPRESSO suite
     for quantum simulation of materials; please cite
         "P. Giannozzi et al., J. Phys.:Condens. Matter 21 395502 (2009);
         "P. Giannozzi et al., J. Phys.:Condens. Matter 29 465901 (2017);
         "P. Giannozzi et al., J. Chem. Phys. 152 154105 (2020);
          URL http://www.quantum-espresso.org", 
     in publications or presentations arising from this work. More details at
     http://www.quantum-espresso.org/quote

     Parallel version (MPI), running on     1 processors

     MPI processes distributed on     1 nodes
     24540 MiB available memory on the printing compute node when the environment starts
 
     Waiting for input...
     Reading input from standard input
Warning: card &CELL ignored
Warning: card / ignored

     Current dimensions of program PWSCF are:
     Max number of different atomic species (ntypx) = 10
     Max number of k-points (npk) =  40000
     Max angular momentum in pseudopotentials (lmaxx) =  4
     file Al.SCAN.UPF2: wavefunction(s)  0D renormalized

     WARNING: the MGGA functional with ID    5 has been 
     read together with other dft terms, but it should 
     stand alone in order to work properly. The other 
     terms will be ignored.

     Subspace diagonalization in iterative solution of the eigenvalue problem:
     a serial algorithm will be used

 
     G-vector sticks info
     --------------------
     sticks:   dense  smooth     PW     G-vecs:    dense   smooth      PW
     Sum         583     583    187                 9089     9089    1639
 
     Using Slab Decomposition
 


     bravais-lattice index     =            2
     lattice parameter (alat)  =       8.3094  a.u.
     unit-cell volume          =     143.4328 (a.u.)^3
     number of atoms/cell      =            1
     number of atomic types    =            1
     number of electrons       =         3.00
     number of Kohn-Sham states=            6
     kinetic-energy cutoff     =      60.0000  Ry
     charge density cutoff     =     240.0000  Ry
     scf convergence threshold =      1.0E-06
     mixing beta               =       0.0100
     number of iterations used =            8  local-TF  mixing
     Exchange-correlation= SLA  PW   SCAN SCAN
                           (   0   0   0   0   0 263 267)

     celldm(1)=   8.309396  celldm(2)=   0.000000  celldm(3)=   0.000000
     celldm(4)=   0.000000  celldm(5)=   0.000000  celldm(6)=   0.000000

     crystal axes: (cart. coord. in units of alat)
               a(1) = (  -0.500000   0.000000   0.500000 )  
               a(2) = (   0.000000   0.500000   0.500000 )  
               a(3) = (  -0.500000   0.500000   0.000000 )  

     reciprocal axes: (cart. coord. in units 2 pi/alat)
               b(1) = ( -1.000000 -1.000000  1.000000 )  
               b(2) = (  1.000000  1.000000  1.000000 )  
               b(3) = ( -1.000000  1.000000 -1.000000 )  


     PseudoPot. # 1 for Al read from file:
     ~/Documents/TA/PWDFT.jl/pseudopotentials/scan_upf/Al.SCAN.UPF2
     MD5 check sum: Not computed, couldn't open file
     Pseudo is Norm-conserving, Zval =  3.0
     Generated by new atomic code, or converted to UPF format
     Using radial grid of 1467 points,  2 beta functions with: 
                l(1) =   0
                l(2) =   1

     atomic species   valence    mass     pseudopotential
        Al             3.00    26.98154     Al( 1.00)

     48 Sym. Ops., with inversion, found



   Cartesian axes

     site n.     atom                  positions (alat units)
         1           Al  tau(   1) = (   0.0000000   0.0000000   0.0000000  )

     number of k points=    47  Gaussian smearing, width (Ry)=  0.1000
                       cart. coord. in units 2pi/alat
        k(    1) = (   0.0000000   0.0000000   0.0000000), wk =   0.0020000
        k(    2) = (  -0.1000000   0.1000000  -0.1000000), wk =   0.0160000
        k(    3) = (  -0.2000000   0.2000000  -0.2000000), wk =   0.0160000
        k(    4) = (  -0.3000000   0.3000000  -0.3000000), wk =   0.0160000
        k(    5) = (  -0.4000000   0.4000000  -0.4000000), wk =   0.0160000
        k(    6) = (   0.5000000  -0.5000000   0.5000000), wk =   0.0080000
        k(    7) = (   0.0000000   0.2000000   0.0000000), wk =   0.0120000
        k(    8) = (  -0.1000000   0.3000000  -0.1000000), wk =   0.0480000
        k(    9) = (  -0.2000000   0.4000000  -0.2000000), wk =   0.0480000
        k(   10) = (  -0.3000000   0.5000000  -0.3000000), wk =   0.0480000
        k(   11) = (   0.6000000  -0.4000000   0.6000000), wk =   0.0480000
        k(   12) = (   0.5000000  -0.3000000   0.5000000), wk =   0.0480000
        k(   13) = (   0.4000000  -0.2000000   0.4000000), wk =   0.0480000
        k(   14) = (   0.3000000  -0.1000000   0.3000000), wk =   0.0480000
        k(   15) = (   0.2000000   0.0000000   0.2000000), wk =   0.0240000
        k(   16) = (   0.0000000   0.4000000   0.0000000), wk =   0.0120000
        k(   17) = (  -0.1000000   0.5000000  -0.1000000), wk =   0.0480000
        k(   18) = (  -0.2000000   0.6000000  -0.2000000), wk =   0.0480000
        k(   19) = (   0.7000000  -0.3000000   0.7000000), wk =   0.0480000
        k(   20) = (   0.6000000  -0.2000000   0.6000000), wk =   0.0480000
        k(   21) = (   0.5000000  -0.1000000   0.5000000), wk =   0.0480000
        k(   22) = (   0.4000000   0.0000000   0.4000000), wk =   0.0240000
        k(   23) = (   0.0000000   0.6000000   0.0000000), wk =   0.0120000
        k(   24) = (  -0.1000000   0.7000000  -0.1000000), wk =   0.0480000
        k(   25) = (   0.8000000  -0.2000000   0.8000000), wk =   0.0480000
        k(   26) = (   0.7000000  -0.1000000   0.7000000), wk =   0.0480000
        k(   27) = (   0.6000000  -0.0000000   0.6000000), wk =   0.0240000
        k(   28) = (   0.0000000   0.8000000   0.0000000), wk =   0.0120000
        k(   29) = (   0.9000000  -0.1000000   0.9000000), wk =   0.0480000
        k(   30) = (   0.8000000   0.0000000   0.8000000), wk =   0.0240000
        k(   31) = (   0.0000000  -1.0000000   0.0000000), wk =   0.0060000
        k(   32) = (  -0.2000000   0.4000000   0.0000000), wk =   0.0480000
        k(   33) = (  -0.3000000   0.5000000  -0.1000000), wk =   0.0960000
        k(   34) = (   0.6000000  -0.4000000   0.8000000), wk =   0.0960000
        k(   35) = (   0.5000000  -0.3000000   0.7000000), wk =   0.0480000
        k(   36) = (  -0.2000000   0.6000000   0.0000000), wk =   0.0480000
        k(   37) = (   0.7000000  -0.3000000   0.9000000), wk =   0.0960000
        k(   38) = (   0.6000000  -0.2000000   0.8000000), wk =   0.0960000
        k(   39) = (   0.5000000  -0.1000000   0.7000000), wk =   0.0960000
        k(   40) = (   0.4000000   0.0000000   0.6000000), wk =   0.0480000
        k(   41) = (   0.8000000  -0.2000000   1.0000000), wk =   0.0480000
        k(   42) = (   0.7000000  -0.1000000   0.9000000), wk =   0.0960000
        k(   43) = (   0.6000000   0.0000000   0.8000000), wk =   0.0480000
        k(   44) = (  -0.2000000  -1.0000000   0.0000000), wk =   0.0240000
        k(   45) = (   0.6000000  -0.2000000   1.0000000), wk =   0.0480000
        k(   46) = (   0.5000000  -0.1000000   0.9000000), wk =   0.0480000
        k(   47) = (  -0.4000000  -1.0000000   0.0000000), wk =   0.0240000

     Dense  grid:     9089 G-vectors     FFT dimensions: (  30,  30,  30)

     Estimated max dynamical RAM per process >      18.51 MB

     WARNING: libxc functional with ID  263 depends
      on external parameters: check the user_guide of
      QE if you need to modify them or to check their
      default values.

     Initial potential from superposition of free atoms

     starting charge       2.9979, renormalised to       3.0000
     Starting wfcs are    9 randomized atomic wfcs

     total cpu time spent up to now is        4.1 secs

     Self-consistent Calculation

     iteration #  1     ecut=    60.00 Ry     beta= 0.01
     Davidson diagonalization with overlap
     ethr =  1.00E-02,  avg # of iterations =  2.9

     Threshold (ethr) on eigenvalues was too large:
     Diagonalizing with lowered threshold

     Davidson diagonalization with overlap
     ethr =  2.02E-04,  avg # of iterations =  2.6

     total cpu time spent up to now is       19.0 secs

     total energy              =      -4.13817425 Ry
     estimated scf accuracy    <       0.00595672 Ry

     iteration #  2     ecut=    60.00 Ry     beta= 0.01
     Davidson diagonalization with overlap
     ethr =  1.99E-04,  avg # of iterations =  1.0

     total cpu time spent up to now is       24.4 secs

     total energy              =      -4.13894528 Ry
     estimated scf accuracy    <       0.00587470 Ry

     iteration #  3     ecut=    60.00 Ry     beta= 0.01
     Davidson diagonalization with overlap
     ethr =  1.96E-04,  avg # of iterations =  2.0

     total cpu time spent up to now is       31.1 secs

     total energy              =      -4.14006286 Ry
     estimated scf accuracy    <       0.00033294 Ry

     iteration #  4     ecut=    60.00 Ry     beta= 0.01
     Davidson diagonalization with overlap
     ethr =  1.11E-05,  avg # of iterations =  2.7

     total cpu time spent up to now is       37.1 secs

     total energy              =      -4.14018064 Ry
     estimated scf accuracy    <       0.00009370 Ry

     iteration #  5     ecut=    60.00 Ry     beta= 0.01
     Davidson diagonalization with overlap
     ethr =  3.12E-06,  avg # of iterations =  1.1

     total cpu time spent up to now is       40.4 secs

     total energy              =      -4.13961825 Ry
     estimated scf accuracy    <       0.00011669 Ry

     iteration #  6     ecut=    60.00 Ry     beta= 0.01
     Davidson diagonalization with overlap
     ethr =  3.12E-06,  avg # of iterations =  2.9

     total cpu time spent up to now is       43.9 secs

     total energy              =      -4.14004637 Ry
     estimated scf accuracy    <       0.00003182 Ry

     iteration #  7     ecut=    60.00 Ry     beta= 0.01
     Davidson diagonalization with overlap
     ethr =  1.06E-06,  avg # of iterations =  2.1

     total cpu time spent up to now is       46.9 secs

     total energy              =      -4.14009417 Ry
     estimated scf accuracy    <       0.00003619 Ry

     iteration #  8     ecut=    60.00 Ry     beta= 0.01
     Davidson diagonalization with overlap
     ethr =  1.06E-06,  avg # of iterations =  1.1

     total cpu time spent up to now is       48.9 secs

     total energy              =      -4.14006140 Ry
     estimated scf accuracy    <       0.00002647 Ry

     iteration #  9     ecut=    60.00 Ry     beta= 0.01
     Davidson diagonalization with overlap
     ethr =  8.82E-07,  avg # of iterations =  2.0

     total cpu time spent up to now is       51.1 secs

     total energy              =      -4.14005735 Ry
     estimated scf accuracy    <       0.00000848 Ry

     iteration # 10     ecut=    60.00 Ry     beta= 0.01
     Davidson diagonalization with overlap
     ethr =  2.83E-07,  avg # of iterations =  2.0

     total cpu time spent up to now is       53.2 secs

     total energy              =      -4.14006222 Ry
     estimated scf accuracy    <       0.00000386 Ry

     iteration # 11     ecut=    60.00 Ry     beta= 0.01
     Davidson diagonalization with overlap
     ethr =  1.29E-07,  avg # of iterations =  2.0

     total cpu time spent up to now is       55.4 secs

     total energy              =      -4.14006437 Ry
     estimated scf accuracy    <       0.00000157 Ry

     iteration # 12     ecut=    60.00 Ry     beta= 0.01
     Davidson diagonalization with overlap
     ethr =  5.24E-08,  avg # of iterations =  2.0

     total cpu time spent up to now is       57.4 secs

     End of self-consistent calculation

          k = 0.0000 0.0000 0.0000 (  1139 PWs)   bands (ev):

    -4.3344  16.9644  16.9644  16.9645  17.2888  17.2888

          k =-0.1000 0.1000-0.1000 (  1134 PWs)   bands (ev):

    -4.0943  13.8310  15.9577  15.9577  18.3458  18.5862

          k =-0.2000 0.2000-0.2000 (  1122 PWs)   bands (ev):

    -3.3761  10.3031  15.1871  15.1871  18.2031  19.2183

          k =-0.3000 0.3000-0.3000 (  1125 PWs)   bands (ev):

    -2.1865   7.0218  14.7993  14.7993  17.9662  17.9662

          k =-0.4000 0.4000-0.4000 (  1125 PWs)   bands (ev):

    -0.5368   4.0975  14.7476  14.7476  16.8333  16.8333

          k = 0.5000-0.5000 0.5000 (  1158 PWs)   bands (ev):

     1.4202   1.7130  14.8206  14.8206  16.3544  16.3544

          k = 0.0000 0.2000 0.0000 (  1139 PWs)   bands (ev):

    -4.0143  14.6858  14.6858  15.7835  16.2022  19.9743

          k =-0.1000 0.3000-0.1000 (  1134 PWs)   bands (ev):

    -3.4557  11.6234  13.7898  15.1998  16.7721  18.4561

          k =-0.2000 0.4000-0.2000 (  1123 PWs)   bands (ev):

    -2.4235   8.2693  13.3009  14.5578  15.8493  19.4988

          k =-0.3000 0.5000-0.3000 (  1128 PWs)   bands (ev):

    -0.9273   5.2283  13.2221  13.7262  15.2091  19.0162

          k = 0.6000-0.4000 0.6000 (  1127 PWs)   bands (ev):

     1.0120   2.5797  12.8121  13.5458  15.4404  18.0410

          k = 0.5000-0.3000 0.5000 (  1125 PWs)   bands (ev):

     0.3196   3.4139  12.2086  14.2459  16.2015  17.4919

          k = 0.4000-0.2000 0.4000 (  1125 PWs)   bands (ev):

    -1.4768   6.2001  12.0061  15.2385  17.3946  17.4550

          k = 0.3000-0.1000 0.3000 (  1119 PWs)   bands (ev):

    -2.8197   9.3523  12.2270  16.2910  18.0338  18.9236

          k = 0.2000 0.0000 0.2000 (  1141 PWs)   bands (ev):

    -3.6949  12.6008  13.0395  17.0676  17.9005  19.0048

          k = 0.0000 0.4000 0.0000 (  1130 PWs)   bands (ev):

    -3.0577  12.7555  12.7555  13.7884  14.2952  16.0263

          k =-0.1000 0.5000-0.1000 (  1125 PWs)   bands (ev):

    -2.1858   9.8981  12.1295  12.7499  13.9438  16.2730

          k =-0.2000 0.6000-0.2000 (  1121 PWs)   bands (ev):

    -0.8479   6.7886  11.2161  11.9194  13.7614  18.5704

          k = 0.7000-0.3000 0.7000 (  1123 PWs)   bands (ev):

     0.9414   4.0198  10.0062  12.1249  13.9897  21.0171

          k = 0.6000-0.2000 0.6000 (  1132 PWs)   bands (ev):

     1.6321   3.1862   9.2105  12.7406  14.6639  19.9681

          k = 0.5000-0.1000 0.5000 (  1130 PWs)   bands (ev):

    -0.3009   5.8090   8.8606  13.7509  15.7674  19.6647

          k = 0.4000 0.0000 0.4000 (  1119 PWs)   bands (ev):

    -1.7914   8.5345   9.2313  15.1004  17.2542  19.8724

          k = 0.0000 0.6000 0.0000 (  1118 PWs)   bands (ev):

    -1.4756  10.6388  11.3636  11.3636  12.2744  14.0928

          k =-0.1000 0.7000-0.1000 (  1125 PWs)   bands (ev):

    -0.2997   8.6654   8.9213  11.0145  12.6650  15.1445

          k = 0.8000-0.2000 0.8000 (  1126 PWs)   bands (ev):

     1.3291   5.8876   7.4606  11.0839  12.8532  17.8209

          k = 0.7000-0.1000 0.7000 (  1129 PWs)   bands (ev):

     3.2872   3.5064   6.5038  11.5703  13.4075  20.8566

          k = 0.6000-0.0000 0.6000 (  1131 PWs)   bands (ev):

     1.3298   5.5748   6.2921  12.4672  14.3883  22.2490

          k = 0.0000 0.8000 0.0000 (  1126 PWs)   bands (ev):

     0.7112   6.8527  10.5252  10.5252  11.3507  13.1941

          k = 0.9000-0.1000 0.9000 (  1129 PWs)   bands (ev):

     2.1675   5.2882   8.1546  10.4553  12.0566  14.5834

          k = 0.8000 0.0000 0.8000 (  1128 PWs)   bands (ev):

     3.7908   4.4266   5.6144  10.8047  12.5523  17.5616

          k = 0.0000-1.0000 0.0000 (  1106 PWs)   bands (ev):

     3.1954   3.8195  10.2454  10.2454  11.0411  12.8984

          k =-0.2000 0.4000 0.0000 (  1118 PWs)   bands (ev):

    -2.7402  10.5829  11.1529  14.9712  16.4953  17.5092

          k =-0.3000 0.5000-0.1000 (  1124 PWs)   bands (ev):

    -1.5550   7.5917  10.5558  13.3929  16.5349  18.8765

          k = 0.6000-0.4000 0.8000 (  1130 PWs)   bands (ev):

     0.0884   4.6978  10.6087  12.0845  16.5602  18.1575

          k = 0.5000-0.3000 0.7000 (  1124 PWs)   bands (ev):

     2.0479   2.3160  10.9529  11.3171  16.7495  17.5804

          k =-0.2000 0.6000 0.0000 (  1120 PWs)   bands (ev):

    -1.1614   9.1203   9.7181  10.9993  15.0826  16.0959

          k = 0.7000-0.3000 0.9000 (  1118 PWs)   bands (ev):

     0.3231   6.4017   9.2686   9.5996  15.4475  18.2443

          k = 0.6000-0.2000 0.8000 (  1129 PWs)   bands (ev):

     2.2469   3.7924   8.3291   9.7905  15.8327  19.8581

          k = 0.5000-0.1000 0.7000 (  1128 PWs)   bands (ev):

     1.5602   4.6073   7.6863  10.5791  16.5923  19.3789

          k = 0.4000 0.0000 0.6000 (  1126 PWs)   bands (ev):

    -0.2224   7.0577   7.7750  11.7974  17.6458  18.8096

          k = 0.8000-0.2000 1.0000 (  1124 PWs)   bands (ev):

     1.0207   7.1413   8.2381   8.9092  14.2119  15.2872

          k = 0.7000-0.1000 0.9000 (  1131 PWs)   bands (ev):

     2.7775   5.7291   5.9744   8.8463  14.8865  17.7657

          k = 0.6000 0.0000 0.8000 (  1120 PWs)   bands (ev):

     3.4678   4.6833   5.3848   9.4905  15.5667  20.8036

          k =-0.2000-1.0000 0.0000 (  1132 PWs)   bands (ev):

     3.4931   4.1291   7.9434   8.6070  13.9194  15.0144

          k = 0.6000-0.2000 1.0000 (  1123 PWs)   bands (ev):

     1.9450   6.1688   6.8637   8.0796  17.9838  18.3673

          k = 0.5000-0.1000 0.9000 (  1122 PWs)   bands (ev):

     3.8982   4.0932   6.9494   7.2573  18.3471  19.1893

          k =-0.4000-1.0000 0.0000 (  1130 PWs)   bands (ev):

     4.3860   5.0346   5.8722   6.6250  17.7023  18.3030

     the Fermi energy is     5.5213 ev

!    total energy              =      -4.14006190 Ry
     estimated scf accuracy    <       0.00000073 Ry
     smearing contrib. (-TS)   =      -0.03168136 Ry
     internal energy E=F+TS    =      -4.10838053 Ry

     The total energy is F=E-TS. E is the sum of the following terms:
     one-electron contribution =       2.32822637 Ry
     hartree contribution      =       0.00821665 Ry
     xc contribution           =      -1.47890785 Ry
     ewald contribution        =      -4.96591569 Ry

     convergence has been achieved in  12 iterations
     Writing meta-gga kinetic term

     Writing all to output data dir ./input_pw/Al/11/pwscf.save/
     Writing meta-gga kinetic term
 
     init_run     :      1.22s CPU      4.02s WALL (       1 calls)
     electrons    :     30.05s CPU     53.33s WALL (       1 calls)

     Called by init_run:
     wfcinit      :      1.14s CPU      3.71s WALL (       1 calls)
     potinit      :      0.02s CPU      0.08s WALL (       1 calls)
     hinit0       :      0.05s CPU      0.20s WALL (       1 calls)

     Called by electrons:
     c_bands      :     24.65s CPU     44.42s WALL (      13 calls)
     sum_band     :      5.09s CPU      8.47s WALL (      13 calls)
     v_of_rho     :      0.21s CPU      0.39s WALL (      13 calls)
     mix_rho      :      0.10s CPU      0.11s WALL (      13 calls)

     Called by c_bands:
     init_us_2    :      0.16s CPU      0.29s WALL (    1269 calls)
     init_us_2:cp :      0.15s CPU      0.29s WALL (    1269 calls)
     cegterg      :     24.50s CPU     44.17s WALL (     611 calls)

     Called by *egterg:
     cdiaghg      :      0.12s CPU      0.25s WALL (    1805 calls)
     h_psi        :     25.11s CPU     46.91s WALL (    1899 calls)
     g_psi        :      0.02s CPU      0.05s WALL (    1241 calls)

     Called by h_psi:
     h_psi:calbec :      0.06s CPU      0.10s WALL (    1899 calls)
     vloc_psi     :      6.19s CPU     11.89s WALL (    1899 calls)
     add_vuspsi   :      0.06s CPU      0.08s WALL (    1899 calls)
     h_psi_meta   :     18.77s CPU     34.76s WALL (    1899 calls)

     General routines
     calbec       :      0.05s CPU      0.10s WALL (    1899 calls)
     fft          :      0.04s CPU      0.17s WALL (     155 calls)
     ffts         :      0.05s CPU      0.05s WALL (     165 calls)
     fftw         :     26.93s CPU     49.34s WALL (   91648 calls)
     interpolate  :      0.00s CPU      0.00s WALL (      13 calls)
 
     Parallel routines
 
     PWSCF        :     31.30s CPU     57.41s WALL

 
   This run was terminated on:  11:19: 1  21Mar2023            

=------------------------------------------------------------------------------=
   JOB DONE.
=------------------------------------------------------------------------------=
