
     Program PWSCF v.7.0 starts on 18Feb2023 at 14:42:57 

     This program is part of the open-source Quantum ESPRESSO suite
     for quantum simulation of materials; please cite
         "P. Giannozzi et al., J. Phys.:Condens. Matter 21 395502 (2009);
         "P. Giannozzi et al., J. Phys.:Condens. Matter 29 465901 (2017);
         "P. Giannozzi et al., J. Chem. Phys. 152 154105 (2020);
          URL http://www.quantum-espresso.org", 
     in publications or presentations arising from this work. More details at
     http://www.quantum-espresso.org/quote

     Parallel version (MPI), running on     1 processors

     MPI processes distributed on     1 nodes
     8172 MiB available memory on the printing compute node when the environment starts
 
     Waiting for input...
     Reading input from standard input

     Current dimensions of program PWSCF are:
     Max number of different atomic species (ntypx) = 10
     Max number of k-points (npk) =  40000
     Max angular momentum in pseudopotentials (lmaxx) =  4
     file Si.SCAN.UPF: wavefunction(s)  0D renormalized

     WARNING: the MGGA functional with ID    5 has been 
     read together with other dft terms, but it should 
     stand alone in order to work properly. The other 
     terms will be ignored.

     WARNING: the MGGA functional with ID    5 has been 
     read together with other dft terms, but it should 
     stand alone in order to work properly. The other 
     terms will be ignored.

     Subspace diagonalization in iterative solution of the eigenvalue problem:
     a serial algorithm will be used

 
     G-vector sticks info
     --------------------
     sticks:   dense  smooth     PW     G-vecs:    dense   smooth      PW
     Sum         733     733    223                12939    12939    2229
 
     Using Slab Decomposition
 


     bravais-lattice index     =            2
     lattice parameter (alat)  =      10.2631  a.u.
     unit-cell volume          =     270.2562 (a.u.)^3
     number of atoms/cell      =            2
     number of atomic types    =            2
     number of electrons       =         8.00
     number of Kohn-Sham states=            4
     kinetic-energy cutoff     =      50.0000  Ry
     charge density cutoff     =     200.0000  Ry
     scf convergence threshold =      1.0E-06
     mixing beta               =       0.0100
     number of iterations used =            8  local-TF  mixing
     energy convergence thresh.=      1.0E-04
     force convergence thresh. =      1.0E-03
     press convergence thresh. =      5.0E-01
     Exchange-correlation= SLA  PW   SCAN SCAN
                           (   0   0   0   0   0 263 267)
     nstep                     =           50


     celldm(1)=  10.263100  celldm(2)=   0.000000  celldm(3)=   0.000000
     celldm(4)=   0.000000  celldm(5)=   0.000000  celldm(6)=   0.000000

     crystal axes: (cart. coord. in units of alat)
               a(1) = (  -0.500000   0.000000   0.500000 )  
               a(2) = (   0.000000   0.500000   0.500000 )  
               a(3) = (  -0.500000   0.500000   0.000000 )  

     reciprocal axes: (cart. coord. in units 2 pi/alat)
               b(1) = ( -1.000000 -1.000000  1.000000 )  
               b(2) = (  1.000000  1.000000  1.000000 )  
               b(3) = ( -1.000000  1.000000 -1.000000 )  


     PseudoPot. # 1 for Si read from file:
     ~/Documents/PWDFT.jl/pseudopotentials/scan_upf/Si.SCAN.UPF
     MD5 check sum: Not computed, couldn't open file
     Pseudo is Norm-conserving, Zval =  4.0
     Generated by new atomic code, or converted to UPF format
     Using radial grid of 1475 points,  2 beta functions with: 
                l(1) =   0
                l(2) =   1

     PseudoPot. # 2 for C  read from file:
     ~/Documents/PWDFT.jl/pseudopotentials/scan_upf/C.SCAN.UPF
     MD5 check sum: Not computed, couldn't open file
     Pseudo is Norm-conserving, Zval =  4.0
     Generated by new atomic code, or converted to UPF format
     Using radial grid of 1389 points,  1 beta functions with: 
                l(1) =   0

     atomic species   valence    mass     pseudopotential
        Si             4.00    28.08550     Si( 1.00)
        C              4.00    12.01100     C ( 1.00)

     24 Sym. Ops. (no inversion) found



   Cartesian axes

     site n.     atom                  positions (alat units)
         1           Si  tau(   1) = (   0.0000000   0.0000000   0.0000000  )
         2           C   tau(   2) = (   0.2500000   0.2500000   0.2500000  )

     number of k points=    47
                       cart. coord. in units 2pi/alat
        k(    1) = (   0.0000000   0.0000000   0.0000000), wk =   0.0020000
        k(    2) = (  -0.1000000   0.1000000  -0.1000000), wk =   0.0160000
        k(    3) = (  -0.2000000   0.2000000  -0.2000000), wk =   0.0160000
        k(    4) = (  -0.3000000   0.3000000  -0.3000000), wk =   0.0160000
        k(    5) = (  -0.4000000   0.4000000  -0.4000000), wk =   0.0160000
        k(    6) = (   0.5000000  -0.5000000   0.5000000), wk =   0.0080000
        k(    7) = (   0.0000000   0.2000000   0.0000000), wk =   0.0120000
        k(    8) = (  -0.1000000   0.3000000  -0.1000000), wk =   0.0480000
        k(    9) = (  -0.2000000   0.4000000  -0.2000000), wk =   0.0480000
        k(   10) = (  -0.3000000   0.5000000  -0.3000000), wk =   0.0480000
        k(   11) = (   0.6000000  -0.4000000   0.6000000), wk =   0.0480000
        k(   12) = (   0.5000000  -0.3000000   0.5000000), wk =   0.0480000
        k(   13) = (   0.4000000  -0.2000000   0.4000000), wk =   0.0480000
        k(   14) = (   0.3000000  -0.1000000   0.3000000), wk =   0.0480000
        k(   15) = (   0.2000000   0.0000000   0.2000000), wk =   0.0240000
        k(   16) = (   0.0000000   0.4000000   0.0000000), wk =   0.0120000
        k(   17) = (  -0.1000000   0.5000000  -0.1000000), wk =   0.0480000
        k(   18) = (  -0.2000000   0.6000000  -0.2000000), wk =   0.0480000
        k(   19) = (   0.7000000  -0.3000000   0.7000000), wk =   0.0480000
        k(   20) = (   0.6000000  -0.2000000   0.6000000), wk =   0.0480000
        k(   21) = (   0.5000000  -0.1000000   0.5000000), wk =   0.0480000
        k(   22) = (   0.4000000   0.0000000   0.4000000), wk =   0.0240000
        k(   23) = (   0.0000000   0.6000000   0.0000000), wk =   0.0120000
        k(   24) = (  -0.1000000   0.7000000  -0.1000000), wk =   0.0480000
        k(   25) = (   0.8000000  -0.2000000   0.8000000), wk =   0.0480000
        k(   26) = (   0.7000000  -0.1000000   0.7000000), wk =   0.0480000
        k(   27) = (   0.6000000  -0.0000000   0.6000000), wk =   0.0240000
        k(   28) = (   0.0000000   0.8000000   0.0000000), wk =   0.0120000
        k(   29) = (   0.9000000  -0.1000000   0.9000000), wk =   0.0480000
        k(   30) = (   0.8000000   0.0000000   0.8000000), wk =   0.0240000
        k(   31) = (   0.0000000  -1.0000000   0.0000000), wk =   0.0060000
        k(   32) = (  -0.2000000   0.4000000   0.0000000), wk =   0.0480000
        k(   33) = (  -0.3000000   0.5000000  -0.1000000), wk =   0.0960000
        k(   34) = (   0.6000000  -0.4000000   0.8000000), wk =   0.0960000
        k(   35) = (   0.5000000  -0.3000000   0.7000000), wk =   0.0480000
        k(   36) = (  -0.2000000   0.6000000   0.0000000), wk =   0.0480000
        k(   37) = (   0.7000000  -0.3000000   0.9000000), wk =   0.0960000
        k(   38) = (   0.6000000  -0.2000000   0.8000000), wk =   0.0960000
        k(   39) = (   0.5000000  -0.1000000   0.7000000), wk =   0.0960000
        k(   40) = (   0.4000000   0.0000000   0.6000000), wk =   0.0480000
        k(   41) = (   0.8000000  -0.2000000   1.0000000), wk =   0.0480000
        k(   42) = (   0.7000000  -0.1000000   0.9000000), wk =   0.0960000
        k(   43) = (   0.6000000   0.0000000   0.8000000), wk =   0.0480000
        k(   44) = (  -0.2000000  -1.0000000   0.0000000), wk =   0.0240000
        k(   45) = (   0.6000000  -0.2000000   1.0000000), wk =   0.0480000
        k(   46) = (   0.5000000  -0.1000000   0.9000000), wk =   0.0480000
        k(   47) = (  -0.4000000  -1.0000000   0.0000000), wk =   0.0240000

     Dense  grid:    12939 G-vectors     FFT dimensions: (  36,  36,  36)

     Estimated max dynamical RAM per process >      25.63 MB

     WARNING: libxc functional with ID  263 depends
      on external parameters: check the user_guide of
      QE if you need to modify them or to check their
      default values.

     Initial potential from superposition of free atoms

     starting charge       7.9995, renormalised to       8.0000
     Starting wfcs are   13 randomized atomic wfcs

     total cpu time spent up to now is        1.9 secs

     Self-consistent Calculation

     iteration #  1     ecut=    50.00 Ry     beta= 0.01
     Davidson diagonalization with overlap
     ethr =  1.00E-02,  avg # of iterations =  1.3

     total cpu time spent up to now is        3.1 secs

     total energy              =     -19.00342774 Ry
     estimated scf accuracy    <       1.02985729 Ry

     iteration #  2     ecut=    50.00 Ry     beta= 0.01
     Davidson diagonalization with overlap
     ethr =  1.00E-02,  avg # of iterations =  1.0

     total cpu time spent up to now is        4.2 secs

     total energy              =     -18.96505411 Ry
     estimated scf accuracy    <       1.01422753 Ry

     iteration #  3     ecut=    50.00 Ry     beta= 0.01
     Davidson diagonalization with overlap
     ethr =  1.00E-02,  avg # of iterations =  1.0

     total cpu time spent up to now is        5.4 secs

     total energy              =     -18.97280648 Ry
     estimated scf accuracy    <       0.14852449 Ry

     iteration #  4     ecut=    50.00 Ry     beta= 0.01
     Davidson diagonalization with overlap
     ethr =  1.86E-03,  avg # of iterations =  2.0

     total cpu time spent up to now is        6.7 secs

     total energy              =     -18.98949510 Ry
     estimated scf accuracy    <       0.02393519 Ry

     iteration #  5     ecut=    50.00 Ry     beta= 0.01
     Davidson diagonalization with overlap
     ethr =  2.99E-04,  avg # of iterations =  2.9

     total cpu time spent up to now is        8.4 secs

     total energy              =     -18.99638942 Ry
     estimated scf accuracy    <       0.09279613 Ry

     iteration #  6     ecut=    50.00 Ry     beta= 0.01
     Davidson diagonalization with overlap
     ethr =  2.99E-04,  avg # of iterations =  1.0

     total cpu time spent up to now is        9.6 secs

     total energy              =     -18.99975730 Ry
     estimated scf accuracy    <       0.11051170 Ry

     iteration #  7     ecut=    50.00 Ry     beta= 0.01
     Davidson diagonalization with overlap
     ethr =  2.99E-04,  avg # of iterations =  1.0

     total cpu time spent up to now is       10.7 secs

     total energy              =     -19.00224239 Ry
     estimated scf accuracy    <       0.02287603 Ry

     iteration #  8     ecut=    50.00 Ry     beta= 0.01
     Davidson diagonalization with overlap
     ethr =  2.86E-04,  avg # of iterations =  1.0

     total cpu time spent up to now is       11.8 secs

     total energy              =     -19.00260118 Ry
     estimated scf accuracy    <       0.03864656 Ry

     iteration #  9     ecut=    50.00 Ry     beta= 0.01
     Davidson diagonalization with overlap
     ethr =  2.86E-04,  avg # of iterations =  1.0

     total cpu time spent up to now is       13.0 secs

     total energy              =     -18.99905950 Ry
     estimated scf accuracy    <       0.04247183 Ry

     iteration # 10     ecut=    50.00 Ry     beta= 0.01
     Davidson diagonalization with overlap
     ethr =  2.86E-04,  avg # of iterations =  1.0

     total cpu time spent up to now is       14.1 secs

     total energy              =     -18.99476378 Ry
     estimated scf accuracy    <       0.02643769 Ry

     iteration # 11     ecut=    50.00 Ry     beta= 0.01
     Davidson diagonalization with overlap
     ethr =  2.86E-04,  avg # of iterations =  2.0

     total cpu time spent up to now is       15.5 secs

     total energy              =     -18.99683236 Ry
     estimated scf accuracy    <       0.00035467 Ry

     iteration # 12     ecut=    50.00 Ry     beta= 0.01
     Davidson diagonalization with overlap
     ethr =  4.43E-06,  avg # of iterations =  3.7

     total cpu time spent up to now is       17.4 secs

     total energy              =     -18.99708425 Ry
     estimated scf accuracy    <       0.00005502 Ry

     iteration # 13     ecut=    50.00 Ry     beta= 0.01
     Davidson diagonalization with overlap
     ethr =  6.88E-07,  avg # of iterations =  1.6

     total cpu time spent up to now is       18.7 secs

     total energy              =     -18.99708685 Ry
     estimated scf accuracy    <       0.00006619 Ry

     iteration # 14     ecut=    50.00 Ry     beta= 0.01
     Davidson diagonalization with overlap
     ethr =  6.88E-07,  avg # of iterations =  1.0

     total cpu time spent up to now is       19.8 secs

     total energy              =     -18.99708690 Ry
     estimated scf accuracy    <       0.00011394 Ry

     iteration # 15     ecut=    50.00 Ry     beta= 0.01
     Davidson diagonalization with overlap
     ethr =  6.88E-07,  avg # of iterations =  3.3

     total cpu time spent up to now is       21.8 secs

     total energy              =     -18.99710288 Ry
     estimated scf accuracy    <       0.00042665 Ry

     iteration # 16     ecut=    50.00 Ry     beta= 0.01
     Davidson diagonalization with overlap
     ethr =  6.88E-07,  avg # of iterations =  1.0

     total cpu time spent up to now is       23.0 secs

     total energy              =     -18.99710154 Ry
     estimated scf accuracy    <       0.00028533 Ry

     iteration # 17     ecut=    50.00 Ry     beta= 0.01
     Davidson diagonalization with overlap
     ethr =  6.88E-07,  avg # of iterations =  1.0

     total cpu time spent up to now is       24.1 secs

     total energy              =     -18.99710035 Ry
     estimated scf accuracy    <       0.00025633 Ry

     iteration # 18     ecut=    50.00 Ry     beta= 0.01
     Davidson diagonalization with overlap
     ethr =  6.88E-07,  avg # of iterations =  1.0

     total cpu time spent up to now is       25.3 secs

     total energy              =     -18.99707763 Ry
     estimated scf accuracy    <       0.00024067 Ry

     iteration # 19     ecut=    50.00 Ry     beta= 0.01
     Davidson diagonalization with overlap
     ethr =  6.88E-07,  avg # of iterations =  1.9

     total cpu time spent up to now is       26.6 secs

     total energy              =     -18.99707629 Ry
     estimated scf accuracy    <       0.00006076 Ry

     iteration # 20     ecut=    50.00 Ry     beta= 0.01
     Davidson diagonalization with overlap
     ethr =  6.88E-07,  avg # of iterations =  1.2

     total cpu time spent up to now is       27.7 secs

     total energy              =     -18.99707980 Ry
     estimated scf accuracy    <       0.00000880 Ry

     iteration # 21     ecut=    50.00 Ry     beta= 0.01
     Davidson diagonalization with overlap
     ethr =  1.10E-07,  avg # of iterations =  2.7

     total cpu time spent up to now is       29.3 secs

     End of self-consistent calculation

          k = 0.0000 0.0000 0.0000 (  1639 PWs)   bands (ev):

    -9.0386   2.3833   2.8235   2.8235

          k =-0.1000 0.1000-0.1000 (  1606 PWs)   bands (ev):

    -8.9277   1.1576   2.7218   2.7218

          k =-0.2000 0.2000-0.2000 (  1606 PWs)   bands (ev):

    -8.6069  -0.3475   2.4844   2.4844

          k =-0.3000 0.3000-0.3000 (  1615 PWs)   bands (ev):

    -8.1223  -1.7634   2.2372   2.2372

          k =-0.4000 0.4000-0.4000 (  1616 PWs)   bands (ev):

    -7.6017  -2.8736   2.0645   2.0645

          k = 0.5000-0.5000 0.5000 (  1622 PWs)   bands (ev):

    -7.3448  -3.3322   2.0030   2.0030

          k = 0.0000 0.2000 0.0000 (  1599 PWs)   bands (ev):

    -8.8904   1.0409   2.5233   2.5233

          k =-0.1000 0.3000-0.1000 (  1609 PWs)   bands (ev):

    -8.6385  -0.0672   2.2336   2.2649

          k =-0.2000 0.4000-0.2000 (  1607 PWs)   bands (ev):

    -8.2038  -1.3913   1.9166   1.9855

          k =-0.3000 0.5000-0.3000 (  1610 PWs)   bands (ev):

    -7.6778  -2.5656   1.5764   1.8488

          k = 0.6000-0.4000 0.6000 (  1609 PWs)   bands (ev):

    -7.2956  -3.2575   1.3457   1.8500

          k = 0.5000-0.3000 0.5000 (  1616 PWs)   bands (ev):

    -7.3858  -3.1030   1.2727   1.9842

          k = 0.4000-0.2000 0.4000 (  1621 PWs)   bands (ev):

    -7.8556  -2.2046   1.3811   2.2211

          k = 0.3000-0.1000 0.3000 (  1605 PWs)   bands (ev):

    -8.3673  -0.9630   1.6846   2.5010

          k = 0.2000 0.0000 0.2000 (  1592 PWs)   bands (ev):

    -8.7463   0.2901   2.1872   2.7100

          k = 0.0000 0.4000 0.0000 (  1607 PWs)   bands (ev):

    -8.4581  -0.4640   1.9017   1.9017

          k =-0.1000 0.5000-0.1000 (  1612 PWs)   bands (ev):

    -8.0873  -1.3786   1.4900   1.6250

          k =-0.2000 0.6000-0.2000 (  1619 PWs)   bands (ev):

    -7.5928  -2.3836   0.9542   1.4813

          k = 0.7000-0.3000 0.7000 (  1606 PWs)   bands (ev):

    -7.1496  -3.1329   0.5095   1.4983

          k = 0.6000-0.2000 0.6000 (  1596 PWs)   bands (ev):

    -7.0777  -3.2398   0.2832   1.6687

          k = 0.5000-0.1000 0.5000 (  1610 PWs)   bands (ev):

    -7.4484  -2.6461   0.3537   1.9542

          k = 0.4000 0.0000 0.4000 (  1610 PWs)   bands (ev):

    -7.9516  -1.7675   0.8155   2.2768

          k = 0.0000 0.6000 0.0000 (  1620 PWs)   bands (ev):

    -7.7862  -1.8885   1.3130   1.3130

          k =-0.1000 0.7000-0.1000 (  1625 PWs)   bands (ev):

    -7.3527  -2.6106   0.8605   1.1374

          k = 0.8000-0.2000 0.8000 (  1619 PWs)   bands (ev):

    -6.9225  -3.2157   0.2255   1.1319

          k = 0.7000-0.1000 0.7000 (  1621 PWs)   bands (ev):

    -6.7600  -3.4082  -0.2154   1.2957

          k = 0.6000-0.0000 0.6000 (  1608 PWs)   bands (ev):

    -7.0082  -3.1100  -0.2194   1.5973

          k = 0.0000 0.8000 0.0000 (  1624 PWs)   bands (ev):

    -7.0058  -3.1163   0.9199   0.9199

          k = 0.9000-0.1000 0.9000 (  1623 PWs)   bands (ev):

    -6.6789  -3.5303   0.5210   0.8748

          k = 0.8000 0.0000 0.8000 (  1622 PWs)   bands (ev):

    -6.5759  -3.6032  -0.0418   1.0084

          k = 0.0000-1.0000 0.0000 (  1604 PWs)   bands (ev):

    -6.5628  -3.7080   0.7850   0.7850

          k =-0.2000 0.4000 0.0000 (  1613 PWs)   bands (ev):

    -8.3271  -0.9152   1.5205   2.1841

          k =-0.3000 0.5000-0.1000 (  1609 PWs)   bands (ev):

    -7.8584  -1.9610   0.9816   1.9391

          k = 0.6000-0.4000 0.8000 (  1618 PWs)   bands (ev):

    -7.3584  -2.8889   0.6869   1.7017

          k = 0.5000-0.3000 0.7000 (  1608 PWs)   bands (ev):

    -7.1136  -3.2888   0.5965   1.6086

          k =-0.2000 0.6000 0.0000 (  1617 PWs)   bands (ev):

    -7.6820  -2.1113   0.9252   1.4300

          k = 0.7000-0.3000 0.9000 (  1621 PWs)   bands (ev):

    -7.2048  -2.8584   0.4009   1.2062

          k = 0.6000-0.2000 0.8000 (  1613 PWs)   bands (ev):

    -6.8768  -3.3160   0.0369   1.1655

          k = 0.5000-0.1000 0.7000 (  1613 PWs)   bands (ev):

    -6.9718  -3.1835  -0.0527   1.3391

          k = 0.4000 0.0000 0.6000 (  1607 PWs)   bands (ev):

    -7.3950  -2.6078   0.2470   1.6511

          k = 0.8000-0.2000 1.0000 (  1621 PWs)   bands (ev):

    -6.9496  -3.1581   0.5734   0.8351

          k = 0.7000-0.1000 0.9000 (  1625 PWs)   bands (ev):

    -6.6487  -3.4959   0.0643   0.7651

          k = 0.6000 0.0000 0.8000 (  1614 PWs)   bands (ev):

    -6.6656  -3.4567  -0.2566   0.9747

          k =-0.2000-1.0000 0.0000 (  1624 PWs)   bands (ev):

    -6.5495  -3.6607   0.5306   0.5423

          k = 0.6000-0.2000 1.0000 (  1616 PWs)   bands (ev):

    -6.8113  -3.2840   0.0093   0.8060

          k = 0.5000-0.1000 0.9000 (  1608 PWs)   bands (ev):

    -6.6295  -3.4749  -0.1115   0.6181

          k =-0.4000-1.0000 0.0000 (  1626 PWs)   bands (ev):

    -6.5274  -3.5782   0.1684   0.2248

     highest occupied level (ev):     2.8235

!    total energy              =     -18.99708153 Ry
     estimated scf accuracy    <       0.00000061 Ry

     The total energy is the sum of the following terms:
     one-electron contribution =       0.17307342 Ry
     hartree contribution      =       2.92310425 Ry
     xc contribution           =      -5.29740436 Ry
     ewald contribution        =     -16.79585484 Ry

     convergence has been achieved in  21 iterations
     Writing meta-gga kinetic term

     Forces acting on atoms (cartesian axes, Ry/au):

     atom    1 type  1   force =     0.00000000    0.00000000    0.00000000
     atom    2 type  2   force =     0.00000000    0.00000000    0.00000000

     Total force =     0.000000     Total SCF correction =     0.000000


     Computing stress (Cartesian axis) and pressure

          total   stress  (Ry/bohr**3)                   (kbar)     P=     -378.43
  -0.00257251   0.00000000   0.00000000         -378.43        0.00        0.00
   0.00000000  -0.00257251  -0.00000000            0.00     -378.43       -0.00
   0.00000000  -0.00000000  -0.00257251            0.00       -0.00     -378.43


     BFGS Geometry Optimization
     Energy error            =      0.0E+00 Ry
     Gradient error          =      0.0E+00 Ry/Bohr
     Cell gradient error     =      3.8E+02 kbar

     number of scf cycles    =   1
     number of bfgs steps    =   0

     enthalpy           new  =     -18.9970815295 Ry

     new trust radius        =       0.2114534646 bohr
     new conv_thr            =       0.0000010000 Ry

     new unit-cell volume =    221.39502 a.u.^3 (    32.80736 Ang^3 )
     density =      2.02948 g/cm^3

CELL_PARAMETERS (alat= 10.26310000)
  -0.467843634  -0.000000000   0.467843634
   0.000000000   0.467843634   0.467843634
  -0.467843634   0.467843634  -0.000000000

ATOMIC_POSITIONS (alat)
Si            0.0000000000        0.0000000000        0.0000000000
C             0.2339218168        0.2339218168        0.2339218168



     Writing config-only to output data dir ./pwscf.save/
     NEW-OLD atomic charge density approx. for the potential
     extrapolated charge    6.23454, renormalised to    8.00000

     total cpu time spent up to now is       30.4 secs

     Self-consistent Calculation

     iteration #  1     ecut=    50.00 Ry     beta= 0.01
     Davidson diagonalization with overlap
     ethr =  1.00E-06,  avg # of iterations = 12.6

     total cpu time spent up to now is       35.6 secs

     total energy              =     -18.96256112 Ry
     estimated scf accuracy    <       1.25898479 Ry

     iteration #  2     ecut=    50.00 Ry     beta= 0.01
     Davidson diagonalization with overlap
     ethr =  1.00E-02,  avg # of iterations =  2.0

     total cpu time spent up to now is       37.2 secs

     total energy              =     -19.12070708 Ry
     estimated scf accuracy    <       0.15400141 Ry

     iteration #  3     ecut=    50.00 Ry     beta= 0.01
     Davidson diagonalization with overlap
     ethr =  1.93E-03,  avg # of iterations =  1.0

     total cpu time spent up to now is       38.3 secs

     total energy              =     -19.12848031 Ry
     estimated scf accuracy    <       0.09958815 Ry

     iteration #  4     ecut=    50.00 Ry     beta= 0.01
     Davidson diagonalization with overlap
     ethr =  1.24E-03,  avg # of iterations =  1.0

     total cpu time spent up to now is       39.4 secs

     total energy              =     -19.12494578 Ry
     estimated scf accuracy    <       0.10511702 Ry

     iteration #  5     ecut=    50.00 Ry     beta= 0.01
     Davidson diagonalization with overlap
     ethr =  1.24E-03,  avg # of iterations =  1.0

     total cpu time spent up to now is       40.6 secs

     total energy              =     -19.13035989 Ry
     estimated scf accuracy    <       0.00593407 Ry

     iteration #  6     ecut=    50.00 Ry     beta= 0.01
     Davidson diagonalization with overlap
     ethr =  7.42E-05,  avg # of iterations =  3.5

     total cpu time spent up to now is       42.5 secs

     total energy              =     -19.13349148 Ry
     estimated scf accuracy    <       0.01783456 Ry

     iteration #  7     ecut=    50.00 Ry     beta= 0.01
     Davidson diagonalization with overlap
     ethr =  7.42E-05,  avg # of iterations =  1.0

     total cpu time spent up to now is       43.6 secs

     total energy              =     -19.13401237 Ry
     estimated scf accuracy    <       0.01948452 Ry

     iteration #  8     ecut=    50.00 Ry     beta= 0.01
     Davidson diagonalization with overlap
     ethr =  7.42E-05,  avg # of iterations =  1.0

     total cpu time spent up to now is       44.8 secs

     total energy              =     -19.12922131 Ry
     estimated scf accuracy    <       0.02518816 Ry

     iteration #  9     ecut=    50.00 Ry     beta= 0.01
     Davidson diagonalization with overlap
     ethr =  7.42E-05,  avg # of iterations =  2.2

     total cpu time spent up to now is       46.4 secs

     total energy              =     -19.13126143 Ry
     estimated scf accuracy    <       0.00062186 Ry

     iteration # 10     ecut=    50.00 Ry     beta= 0.01
     Davidson diagonalization with overlap
     ethr =  7.77E-06,  avg # of iterations =  2.3

     total cpu time spent up to now is       47.8 secs

     total energy              =     -19.13117484 Ry
     estimated scf accuracy    <       0.00133853 Ry

     iteration # 11     ecut=    50.00 Ry     beta= 0.01
     Davidson diagonalization with overlap
     ethr =  7.77E-06,  avg # of iterations =  2.0

     total cpu time spent up to now is       49.2 secs

     total energy              =     -19.13115442 Ry
     estimated scf accuracy    <       0.00113675 Ry

     iteration # 12     ecut=    50.00 Ry     beta= 0.01
     Davidson diagonalization with overlap
     ethr =  7.77E-06,  avg # of iterations =  1.0

     total cpu time spent up to now is       50.3 secs

     total energy              =     -19.13136776 Ry
     estimated scf accuracy    <       0.00043761 Ry

     iteration # 13     ecut=    50.00 Ry     beta= 0.01
     Davidson diagonalization with overlap
     ethr =  5.47E-06,  avg # of iterations =  3.1

     total cpu time spent up to now is       52.2 secs

     total energy              =     -19.13160277 Ry
     estimated scf accuracy    <       0.00422059 Ry

     iteration # 14     ecut=    50.00 Ry     beta= 0.01
     Davidson diagonalization with overlap
     ethr =  5.47E-06,  avg # of iterations =  1.0

     total cpu time spent up to now is       53.3 secs

     total energy              =     -19.13161945 Ry
     estimated scf accuracy    <       0.00368984 Ry

     iteration # 15     ecut=    50.00 Ry     beta= 0.01
     Davidson diagonalization with overlap
     ethr =  5.47E-06,  avg # of iterations =  1.0

     total cpu time spent up to now is       54.5 secs

     total energy              =     -19.13110333 Ry
     estimated scf accuracy    <       0.00390513 Ry

     iteration # 16     ecut=    50.00 Ry     beta= 0.01
     Davidson diagonalization with overlap
     ethr =  5.47E-06,  avg # of iterations =  2.0

     total cpu time spent up to now is       56.0 secs

     total energy              =     -19.13121881 Ry
     estimated scf accuracy    <       0.00114880 Ry

     iteration # 17     ecut=    50.00 Ry     beta= 0.01
     Davidson diagonalization with overlap
     ethr =  5.47E-06,  avg # of iterations =  1.0

     total cpu time spent up to now is       57.1 secs

     total energy              =     -19.13120986 Ry
     estimated scf accuracy    <       0.00110469 Ry

     iteration # 18     ecut=    50.00 Ry     beta= 0.01
     Davidson diagonalization with overlap
     ethr =  5.47E-06,  avg # of iterations =  1.0

     total cpu time spent up to now is       58.2 secs

     total energy              =     -19.13125248 Ry
     estimated scf accuracy    <       0.00097405 Ry

     iteration # 19     ecut=    50.00 Ry     beta= 0.01
     Davidson diagonalization with overlap
     ethr =  5.47E-06,  avg # of iterations =  1.0

     total cpu time spent up to now is       59.4 secs

     total energy              =     -19.13126564 Ry
     estimated scf accuracy    <       0.00113648 Ry

     iteration # 20     ecut=    50.00 Ry     beta= 0.01
     Davidson diagonalization with overlap
     ethr =  5.47E-06,  avg # of iterations =  1.0

     total cpu time spent up to now is       60.5 secs

     total energy              =     -19.13126262 Ry
     estimated scf accuracy    <       0.00126936 Ry

     iteration # 21     ecut=    50.00 Ry     beta= 0.01
     Davidson diagonalization with overlap
     ethr =  5.47E-06,  avg # of iterations =  1.0

     total cpu time spent up to now is       61.6 secs

     total energy              =     -19.13132790 Ry
     estimated scf accuracy    <       0.00126820 Ry

     iteration # 22     ecut=    50.00 Ry     beta= 0.01
     Davidson diagonalization with overlap
     ethr =  5.47E-06,  avg # of iterations =  1.0

     total cpu time spent up to now is       62.8 secs

     total energy              =     -19.13132371 Ry
     estimated scf accuracy    <       0.00166112 Ry

     iteration # 23     ecut=    50.00 Ry     beta= 0.01
     Davidson diagonalization with overlap
     ethr =  5.47E-06,  avg # of iterations =  1.0

     total cpu time spent up to now is       63.9 secs

     total energy              =     -19.13129241 Ry
     estimated scf accuracy    <       0.00167178 Ry

     iteration # 24     ecut=    50.00 Ry     beta= 0.01
     Davidson diagonalization with overlap
     ethr =  5.47E-06,  avg # of iterations =  1.0

     total cpu time spent up to now is       65.0 secs

     total energy              =     -19.13127946 Ry
     estimated scf accuracy    <       0.00160152 Ry

     iteration # 25     ecut=    50.00 Ry     beta= 0.01
     Davidson diagonalization with overlap
     ethr =  5.47E-06,  avg # of iterations =  1.0

     total cpu time spent up to now is       66.1 secs

     total energy              =     -19.13121451 Ry
     estimated scf accuracy    <       0.00149451 Ry

     iteration # 26     ecut=    50.00 Ry     beta= 0.01
     Davidson diagonalization with overlap
     ethr =  5.47E-06,  avg # of iterations =  1.0

     total cpu time spent up to now is       67.3 secs

     total energy              =     -19.13118946 Ry
     estimated scf accuracy    <       0.00117294 Ry

     iteration # 27     ecut=    50.00 Ry     beta= 0.01
     Davidson diagonalization with overlap
     ethr =  5.47E-06,  avg # of iterations =  1.0

     total cpu time spent up to now is       68.4 secs

     total energy              =     -19.13116118 Ry
     estimated scf accuracy    <       0.00087491 Ry

     iteration # 28     ecut=    50.00 Ry     beta= 0.01
     Davidson diagonalization with overlap
     ethr =  5.47E-06,  avg # of iterations =  1.0

     total cpu time spent up to now is       69.5 secs

     total energy              =     -19.13111552 Ry
     estimated scf accuracy    <       0.00063475 Ry

     iteration # 29     ecut=    50.00 Ry     beta= 0.01
     Davidson diagonalization with overlap
     ethr =  5.47E-06,  avg # of iterations =  1.0

     total cpu time spent up to now is       70.7 secs

     total energy              =     -19.13112653 Ry
     estimated scf accuracy    <       0.00021321 Ry

     iteration # 30     ecut=    50.00 Ry     beta= 0.01
     Davidson diagonalization with overlap
     ethr =  2.67E-06,  avg # of iterations =  1.0

     total cpu time spent up to now is       71.8 secs

     total energy              =     -19.13110568 Ry
     estimated scf accuracy    <       0.00015264 Ry

     iteration # 31     ecut=    50.00 Ry     beta= 0.01
     Davidson diagonalization with overlap
     ethr =  1.91E-06,  avg # of iterations =  1.0

     total cpu time spent up to now is       72.9 secs

     total energy              =     -19.13111770 Ry
     estimated scf accuracy    <       0.00002852 Ry

     iteration # 32     ecut=    50.00 Ry     beta= 0.01
     Davidson diagonalization with overlap
     ethr =  3.56E-07,  avg # of iterations =  2.1

     total cpu time spent up to now is       74.3 secs

     total energy              =     -19.13112588 Ry
     estimated scf accuracy    <       0.00000805 Ry

     iteration # 33     ecut=    50.00 Ry     beta= 0.01
     Davidson diagonalization with overlap
     ethr =  1.01E-07,  avg # of iterations =  2.5

     total cpu time spent up to now is       75.9 secs

     total energy              =     -19.13112789 Ry
     estimated scf accuracy    <       0.00000221 Ry

     iteration # 34     ecut=    50.00 Ry     beta= 0.01
     Davidson diagonalization with overlap
     ethr =  2.76E-08,  avg # of iterations =  2.0

     total cpu time spent up to now is       77.3 secs

     total energy              =     -19.13111745 Ry
     estimated scf accuracy    <       0.00000382 Ry

     iteration # 35     ecut=    50.00 Ry     beta= 0.01
     Davidson diagonalization with overlap
     ethr =  2.76E-08,  avg # of iterations =  3.7

     total cpu time spent up to now is       79.3 secs

     total energy              =     -19.13111791 Ry
     estimated scf accuracy    <       0.00001028 Ry

     iteration # 36     ecut=    50.00 Ry     beta= 0.01
     Davidson diagonalization with overlap
     ethr =  2.76E-08,  avg # of iterations =  2.1

     total cpu time spent up to now is       80.9 secs

     total energy              =     -19.13111882 Ry
     estimated scf accuracy    <       0.00000259 Ry

     iteration # 37     ecut=    50.00 Ry     beta= 0.01
     Davidson diagonalization with overlap
     ethr =  2.76E-08,  avg # of iterations =  1.0

     total cpu time spent up to now is       82.0 secs

     total energy              =     -19.13111817 Ry
     estimated scf accuracy    <       0.00000299 Ry

     iteration # 38     ecut=    50.00 Ry     beta= 0.01
     Davidson diagonalization with overlap
     ethr =  2.76E-08,  avg # of iterations =  1.0

     total cpu time spent up to now is       83.1 secs

     total energy              =     -19.13111841 Ry
     estimated scf accuracy    <       0.00000515 Ry

     iteration # 39     ecut=    50.00 Ry     beta= 0.01
     Davidson diagonalization with overlap
     ethr =  2.76E-08,  avg # of iterations =  3.0

     total cpu time spent up to now is       85.0 secs

     total energy              =     -19.13111464 Ry
     estimated scf accuracy    <       0.00000465 Ry

     iteration # 40     ecut=    50.00 Ry     beta= 0.01
     Davidson diagonalization with overlap
     ethr =  2.76E-08,  avg # of iterations =  3.1

     total cpu time spent up to now is       86.9 secs

     total energy              =     -19.13113220 Ry
     estimated scf accuracy    <       0.00001079 Ry

     iteration # 41     ecut=    50.00 Ry     beta= 0.01
     Davidson diagonalization with overlap
     ethr =  2.76E-08,  avg # of iterations =  5.7

     total cpu time spent up to now is       89.7 secs

     total energy              =     -19.13116084 Ry
     estimated scf accuracy    <       0.00030388 Ry

     iteration # 42     ecut=    50.00 Ry     beta= 0.01
     Davidson diagonalization with overlap
     ethr =  2.76E-08,  avg # of iterations =  2.1

     total cpu time spent up to now is       91.2 secs

     total energy              =     -19.13111545 Ry
     estimated scf accuracy    <       0.00037049 Ry

     iteration # 43     ecut=    50.00 Ry     beta= 0.01
     Davidson diagonalization with overlap
     ethr =  2.76E-08,  avg # of iterations =  4.8

     total cpu time spent up to now is       93.7 secs

     total energy              =     -19.13111594 Ry
     estimated scf accuracy    <       0.00008965 Ry

     iteration # 44     ecut=    50.00 Ry     beta= 0.01
     Davidson diagonalization with overlap
     ethr =  2.76E-08,  avg # of iterations =  3.2

     total cpu time spent up to now is       95.6 secs

     total energy              =     -19.13111738 Ry
     estimated scf accuracy    <       0.00002940 Ry

     iteration # 45     ecut=    50.00 Ry     beta= 0.01
     Davidson diagonalization with overlap
     ethr =  2.76E-08,  avg # of iterations =  1.9

     total cpu time spent up to now is       96.9 secs

     total energy              =     -19.13111265 Ry
     estimated scf accuracy    <       0.00003109 Ry

     iteration # 46     ecut=    50.00 Ry     beta= 0.01
     Davidson diagonalization with overlap
     ethr =  2.76E-08,  avg # of iterations =  3.0

     total cpu time spent up to now is       98.8 secs

     total energy              =     -19.13111437 Ry
     estimated scf accuracy    <       0.00000125 Ry

     iteration # 47     ecut=    50.00 Ry     beta= 0.01
     Davidson diagonalization with overlap
     ethr =  1.56E-08,  avg # of iterations =  1.6

     total cpu time spent up to now is      100.0 secs

     End of self-consistent calculation

          k = 0.0000 0.0000 0.0000 (  1639 PWs)   bands (ev):

    -8.4722   4.4338   4.4338   4.4338

          k =-0.1069 0.1069-0.1069 (  1606 PWs)   bands (ev):

    -8.3365   3.2551   4.3181   4.3181

          k =-0.2137 0.2137-0.2137 (  1606 PWs)   bands (ev):

    -7.9422   1.4656   4.0511   4.0511

          k =-0.3206 0.3206-0.3206 (  1615 PWs)   bands (ev):

    -7.3354  -0.2605   3.7745   3.7745

          k =-0.4275 0.4275-0.4275 (  1616 PWs)   bands (ev):

    -6.6575  -1.6481   3.5815   3.5815

          k = 0.5344-0.5344 0.5344 (  1622 PWs)   bands (ev):

    -6.3040  -2.2442   3.5133   3.5133

          k = 0.0000 0.2137 0.0000 (  1599 PWs)   bands (ev):

    -8.2912   3.2511   4.0779   4.0779

          k =-0.1069 0.3206-0.1069 (  1609 PWs)   bands (ev):

    -7.9822   1.9029   3.7419   3.8328

          k =-0.2137 0.4275-0.2137 (  1607 PWs)   bands (ev):

    -7.4414   0.2618   3.4600   3.4755

          k =-0.3206 0.5344-0.3206 (  1610 PWs)   bands (ev):

    -6.7668  -1.2098   3.1040   3.3114

          k = 0.6412-0.4275 0.6412 (  1609 PWs)   bands (ev):

    -6.2491  -2.1066   2.8367   3.3234

          k = 0.5344-0.3206 0.5344 (  1616 PWs)   bands (ev):

    -6.3741  -1.9031   2.7325   3.4876

          k = 0.4275-0.2137 0.4275 (  1621 PWs)   bands (ev):

    -6.9975  -0.7541   2.8224   3.7667

          k = 0.3206-0.1069 0.3206 (  1605 PWs)   bands (ev):

    -7.6455   0.7906   3.1272   4.0866

          k = 0.2137 0.0000 0.2137 (  1592 PWs)   bands (ev):

    -8.1143   2.3012   3.6828   4.3178

          k = 0.0000 0.4275 0.0000 (  1607 PWs)   bands (ev):

    -7.7613   1.5680   3.3459   3.3459

          k =-0.1069 0.5344-0.1069 (  1612 PWs)   bands (ev):

    -7.3014   0.4504   2.8961   3.0246

          k =-0.2137 0.6412-0.2137 (  1619 PWs)   bands (ev):

    -6.6725  -0.8236   2.3012   2.8638

          k = 0.7481-0.3206 0.7481 (  1606 PWs)   bands (ev):

    -6.0807  -1.8059   1.7881   2.8928

          k = 0.6412-0.2137 0.6412 (  1596 PWs)   bands (ev):

    -5.9775  -1.9537   1.5011   3.1026

          k = 0.5344-0.1069 0.5344 (  1610 PWs)   bands (ev):

    -6.4773  -1.1700   1.5372   3.4471

          k = 0.4275 0.0000 0.4275 (  1610 PWs)   bands (ev):

    -7.1251  -0.0860   2.0557   3.8300

          k = 0.0000 0.6412 0.0000 (  1620 PWs)   bands (ev):

    -6.9285  -0.0934   2.6553   2.6553

          k =-0.1069 0.7481-0.1069 (  1625 PWs)   bands (ev):

    -6.3774  -0.9733   2.1106   2.4516

          k = 0.8550-0.2137 0.8550 (  1619 PWs)   bands (ev):

    -5.8051  -1.7397   1.3237   2.4512

          k = 0.7481-0.1069 0.7481 (  1621 PWs)   bands (ev):

    -5.5708  -1.9965   0.7634   2.6524

          k = 0.6412 0.0000 0.6412 (  1608 PWs)   bands (ev):

    -5.9018  -1.6337   0.7578   3.0165

          k = 0.0000 0.8550 0.0000 (  1624 PWs)   bands (ev):

    -5.9328  -1.5891   2.1946   2.1946

          k = 0.9619-0.1069 0.9619 (  1623 PWs)   bands (ev):

    -5.4911  -2.1136   1.6859   2.1435

          k = 0.8550 0.0000 0.8550 (  1622 PWs)   bands (ev):

    -5.3365  -2.1970   0.9518   2.3057

          k = 0.0000-1.0687 0.0000 (  1604 PWs)   bands (ev):

    -5.3328  -2.3576   2.0354   2.0354

          k =-0.2137 0.4275 0.0000 (  1613 PWs)   bands (ev):

    -7.5975   0.9456   2.8972   3.7276

          k =-0.3206 0.5344-0.1069 (  1609 PWs)   bands (ev):

    -7.0081  -0.3384   2.2983   3.4342

          k = 0.6412-0.4275 0.8550 (  1618 PWs)   bands (ev):

    -6.3552  -1.5307   2.0096   3.1401

          k = 0.5344-0.3206 0.7481 (  1608 PWs)   bands (ev):

    -6.0183  -2.0642   1.9276   3.0215

          k =-0.2137 0.6412-0.0000 (  1617 PWs)   bands (ev):

    -6.7924  -0.3989   2.1882   2.8054

          k = 0.7481-0.3206 0.9619 (  1621 PWs)   bands (ev):

    -6.1736  -1.3238   1.5699   2.5215

          k = 0.6412-0.2137 0.8550 (  1613 PWs)   bands (ev):

    -5.7249  -1.9290   1.1363   2.4703

          k = 0.5344-0.1069 0.7481 (  1613 PWs)   bands (ev):

    -5.8525  -1.7539   1.0057   2.6887

          k = 0.4275 0.0000 0.6412 (  1607 PWs)   bands (ev):

    -6.4151  -1.0377   1.3573   3.0764

          k = 0.8550-0.2137 1.0687 (  1621 PWs)   bands (ev):

    -5.8515  -1.6353   1.7593   2.0638

          k = 0.7481-0.1069 0.9619 (  1625 PWs)   bands (ev):

    -5.4370  -2.0523   1.0948   1.9807

          k = 0.6412 0.0000 0.8550 (  1614 PWs)   bands (ev):

    -5.4484  -2.0060   0.6795   2.2401

          k =-0.2137-1.0687 0.0000 (  1624 PWs)   bands (ev):

    -5.3089  -2.2755   1.6956   1.7114

          k = 0.6412-0.2137 1.0687 (  1616 PWs)   bands (ev):

    -5.6519  -1.7885   1.0388   2.0107

          k = 0.5344-0.1069 0.9619 (  1608 PWs)   bands (ev):

    -5.4018  -2.0158   0.8729   1.7733

          k =-0.4275-1.0687 0.0000 (  1626 PWs)   bands (ev):

    -5.2688  -2.1245   1.1985   1.2932

     highest occupied level (ev):     4.4338

!    total energy              =     -19.13111427 Ry
     estimated scf accuracy    <       0.00000014 Ry

     The total energy is the sum of the following terms:
     one-electron contribution =       1.59185079 Ry
     hartree contribution      =       2.73280666 Ry
     xc contribution           =      -5.50548492 Ry
     ewald contribution        =     -17.95028680 Ry

     convergence has been achieved in  47 iterations
     Writing meta-gga kinetic term

     Forces acting on atoms (cartesian axes, Ry/au):

     atom    1 type  1   force =     0.00000000    0.00000000    0.00000000
     atom    2 type  2   force =     0.00000000    0.00000000    0.00000000

     Total force =     0.000000     Total SCF correction =     0.000000


     Computing stress (Cartesian axis) and pressure

          total   stress  (Ry/bohr**3)                   (kbar)     P=     -419.78
  -0.00285360   0.00000000   0.00000000         -419.78        0.00        0.00
  -0.00000000  -0.00285360  -0.00000000           -0.00     -419.78       -0.00
   0.00000000  -0.00000000  -0.00285360            0.00       -0.00     -419.78

     Energy error            =      1.3E-01 Ry
     Gradient error          =      0.0E+00 Ry/Bohr
     Cell gradient error     =      4.2E+02 kbar

     number of scf cycles    =   2
     number of bfgs steps    =   1

     enthalpy           old  =     -18.9970815295 Ry
     enthalpy           new  =     -19.1311142711 Ry

     CASE: enthalpy          _new < enthalpy          _old


     WARNING: bfgs curvature condition failed, Theta= 0.824
     new trust radius        =       0.3068113518 bohr
     new conv_thr            =       0.0000000100 Ry

     new unit-cell volume =    159.73509 a.u.^3 (    23.67030 Ang^3 )
     density =      2.81288 g/cm^3

CELL_PARAMETERS (alat= 10.26310000)
  -0.419609084  -0.000000000   0.419609084
   0.000000000   0.419609084   0.419609084
  -0.419609084   0.419609084  -0.000000000

ATOMIC_POSITIONS (alat)
Si            0.0000000000        0.0000000000        0.0000000000
C             0.2098045420        0.2098045420        0.2098045420



     Writing config-only to output data dir ./pwscf.save/
     NEW-OLD atomic charge density approx. for the potential

     negative rho (up,down):  1.133E-03 0.000E+00
     extrapolated charge    4.91209, renormalised to    8.00000

     total cpu time spent up to now is      101.1 secs

     Self-consistent Calculation

     iteration #  1     ecut=    50.00 Ry     beta= 0.01
     Davidson diagonalization with overlap
     ethr =  1.00E-06,  avg # of iterations = 16.1

     negative rho (up,down):  1.796E-03 0.000E+00

     total cpu time spent up to now is      107.8 secs

     total energy              =     -18.77435372 Ry
     estimated scf accuracy    <       3.24344454 Ry

     iteration #  2     ecut=    50.00 Ry     beta= 0.01
     Davidson diagonalization with overlap
     ethr =  1.00E-02,  avg # of iterations =  2.4

     negative rho (up,down):  1.708E-03 0.000E+00

     total cpu time spent up to now is      109.4 secs

     total energy              =     -19.09230748 Ry
     estimated scf accuracy    <       0.60172627 Ry

     iteration #  3     ecut=    50.00 Ry     beta= 0.01
     Davidson diagonalization with overlap
     ethr =  7.52E-03,  avg # of iterations =  1.6

     negative rho (up,down):  1.838E-03 0.000E+00

     total cpu time spent up to now is      110.6 secs

     total energy              =     -19.12249470 Ry
     estimated scf accuracy    <       0.40952876 Ry

     iteration #  4     ecut=    50.00 Ry     beta= 0.01
     Davidson diagonalization with overlap
     ethr =  5.12E-03,  avg # of iterations =  1.3

     negative rho (up,down):  1.892E-03 0.000E+00

     total cpu time spent up to now is      111.7 secs

     total energy              =     -19.14231052 Ry
     estimated scf accuracy    <       0.36332985 Ry

     iteration #  5     ecut=    50.00 Ry     beta= 0.01
     Davidson diagonalization with overlap
     ethr =  4.54E-03,  avg # of iterations =  1.0

     negative rho (up,down):  1.497E-03 0.000E+00

     total cpu time spent up to now is      112.9 secs

     total energy              =     -19.14945494 Ry
     estimated scf accuracy    <       0.35213598 Ry

     iteration #  6     ecut=    50.00 Ry     beta= 0.01
     Davidson diagonalization with overlap
     ethr =  4.40E-03,  avg # of iterations =  1.4

     negative rho (up,down):  1.468E-04 0.000E+00

     total cpu time spent up to now is      114.0 secs

     total energy              =     -19.19871393 Ry
     estimated scf accuracy    <       0.26845805 Ry

     iteration #  7     ecut=    50.00 Ry     beta= 0.01
     Davidson diagonalization with overlap
     ethr =  3.36E-03,  avg # of iterations =  2.0

     negative rho (up,down):  1.009E-04 0.000E+00

     total cpu time spent up to now is      115.3 secs

     total energy              =     -19.23874548 Ry
     estimated scf accuracy    <       0.01892345 Ry

     iteration #  8     ecut=    50.00 Ry     beta= 0.01
     Davidson diagonalization with overlap
     ethr =  2.37E-04,  avg # of iterations =  2.8

     negative rho (up,down):  1.044E-04 0.000E+00

     total cpu time spent up to now is      116.9 secs

     total energy              =     -19.24746180 Ry
     estimated scf accuracy    <       0.07552845 Ry

     iteration #  9     ecut=    50.00 Ry     beta= 0.01
     Davidson diagonalization with overlap
     ethr =  2.37E-04,  avg # of iterations =  1.0

     negative rho (up,down):  2.028E-05 0.000E+00

     total cpu time spent up to now is      118.0 secs

     total energy              =     -19.24191106 Ry
     estimated scf accuracy    <       0.08487636 Ry

     iteration # 10     ecut=    50.00 Ry     beta= 0.01
     Davidson diagonalization with overlap
     ethr =  2.37E-04,  avg # of iterations =  1.9

     negative rho (up,down):  3.630E-05 0.000E+00

     total cpu time spent up to now is      119.3 secs

     total energy              =     -19.26610788 Ry
     estimated scf accuracy    <       0.04500676 Ry

     iteration # 11     ecut=    50.00 Ry     beta= 0.01
     Davidson diagonalization with overlap
     ethr =  2.37E-04,  avg # of iterations =  2.0

     negative rho (up,down):  3.575E-05 0.000E+00

     total cpu time spent up to now is      120.8 secs

     total energy              =     -19.27643294 Ry
     estimated scf accuracy    <       0.01967627 Ry

     iteration # 12     ecut=    50.00 Ry     beta= 0.01
     Davidson diagonalization with overlap
     ethr =  2.37E-04,  avg # of iterations =  1.0

     negative rho (up,down):  3.349E-05 0.000E+00

     total cpu time spent up to now is      122.0 secs

     total energy              =     -19.27630190 Ry
     estimated scf accuracy    <       0.01933565 Ry

     iteration # 13     ecut=    50.00 Ry     beta= 0.01
     Davidson diagonalization with overlap
     ethr =  2.37E-04,  avg # of iterations =  1.0

     negative rho (up,down):  2.314E-05 0.000E+00

     total cpu time spent up to now is      123.1 secs

     total energy              =     -19.27974613 Ry
     estimated scf accuracy    <       0.01814689 Ry

     iteration # 14     ecut=    50.00 Ry     beta= 0.01
     Davidson diagonalization with overlap
     ethr =  2.27E-04,  avg # of iterations =  1.4

     negative rho (up,down):  2.149E-06 0.000E+00

     total cpu time spent up to now is      124.3 secs

     total energy              =     -19.28117778 Ry
     estimated scf accuracy    <       0.01089831 Ry

     iteration # 15     ecut=    50.00 Ry     beta= 0.01
     Davidson diagonalization with overlap
     ethr =  1.36E-04,  avg # of iterations =  2.0

     negative rho (up,down):  1.983E-06 0.000E+00

     total cpu time spent up to now is      125.7 secs

     total energy              =     -19.28362997 Ry
     estimated scf accuracy    <       0.00485784 Ry

     iteration # 16     ecut=    50.00 Ry     beta= 0.01
     Davidson diagonalization with overlap
     ethr =  6.07E-05,  avg # of iterations =  1.4

     negative rho (up,down):  1.968E-06 0.000E+00

     total cpu time spent up to now is      126.9 secs

     total energy              =     -19.28389035 Ry
     estimated scf accuracy    <       0.00916872 Ry

     iteration # 17     ecut=    50.00 Ry     beta= 0.01
     Davidson diagonalization with overlap
     ethr =  6.07E-05,  avg # of iterations =  1.0

     negative rho (up,down):  1.723E-06 0.000E+00

     total cpu time spent up to now is      128.0 secs

     total energy              =     -19.28427314 Ry
     estimated scf accuracy    <       0.00999426 Ry

     iteration # 18     ecut=    50.00 Ry     beta= 0.01
     Davidson diagonalization with overlap
     ethr =  6.07E-05,  avg # of iterations =  1.0

     total cpu time spent up to now is      129.1 secs

     total energy              =     -19.28961703 Ry
     estimated scf accuracy    <       0.00966544 Ry

     iteration # 19     ecut=    50.00 Ry     beta= 0.01
     Davidson diagonalization with overlap
     ethr =  6.07E-05,  avg # of iterations =  2.3

     total cpu time spent up to now is      130.7 secs

     total energy              =     -19.29237036 Ry
     estimated scf accuracy    <       0.02344751 Ry

     iteration # 20     ecut=    50.00 Ry     beta= 0.01
     Davidson diagonalization with overlap
     ethr =  6.07E-05,  avg # of iterations =  1.0

     total cpu time spent up to now is      131.9 secs

     total energy              =     -19.29423918 Ry
     estimated scf accuracy    <       0.04085115 Ry

     iteration # 21     ecut=    50.00 Ry     beta= 0.01
     Davidson diagonalization with overlap
     ethr =  6.07E-05,  avg # of iterations =  1.0

     total cpu time spent up to now is      133.0 secs

     total energy              =     -19.29441734 Ry
     estimated scf accuracy    <       0.05546522 Ry

     iteration # 22     ecut=    50.00 Ry     beta= 0.01
     Davidson diagonalization with overlap
     ethr =  6.07E-05,  avg # of iterations =  1.0

     total cpu time spent up to now is      134.1 secs

     total energy              =     -19.29262839 Ry
     estimated scf accuracy    <       0.05808397 Ry

     iteration # 23     ecut=    50.00 Ry     beta= 0.01
     Davidson diagonalization with overlap
     ethr =  6.07E-05,  avg # of iterations =  1.0

     total cpu time spent up to now is      135.3 secs

     total energy              =     -19.29097663 Ry
     estimated scf accuracy    <       0.05093240 Ry

     iteration # 24     ecut=    50.00 Ry     beta= 0.01
     Davidson diagonalization with overlap
     ethr =  6.07E-05,  avg # of iterations =  1.0

     negative rho (up,down):  2.110E-06 0.000E+00

     total cpu time spent up to now is      136.4 secs

     total energy              =     -19.28916524 Ry
     estimated scf accuracy    <       0.03521234 Ry

     iteration # 25     ecut=    50.00 Ry     beta= 0.01
     Davidson diagonalization with overlap
     ethr =  6.07E-05,  avg # of iterations =  1.0

     total cpu time spent up to now is      137.5 secs

     total energy              =     -19.28968874 Ry
     estimated scf accuracy    <       0.02659005 Ry

     iteration # 26     ecut=    50.00 Ry     beta= 0.01
     Davidson diagonalization with overlap
     ethr =  6.07E-05,  avg # of iterations =  1.0

     total cpu time spent up to now is      138.7 secs

     total energy              =     -19.28882127 Ry
     estimated scf accuracy    <       0.02525455 Ry

     iteration # 27     ecut=    50.00 Ry     beta= 0.01
     Davidson diagonalization with overlap
     ethr =  6.07E-05,  avg # of iterations =  1.0

     negative rho (up,down):  2.793E-06 0.000E+00

     total cpu time spent up to now is      139.9 secs

     total energy              =     -19.27962881 Ry
     estimated scf accuracy    <       0.01468768 Ry

     iteration # 28     ecut=    50.00 Ry     beta= 0.01
     Davidson diagonalization with overlap
     ethr =  6.07E-05,  avg # of iterations =  3.0

     negative rho (up,down):  5.685E-05 0.000E+00

     total cpu time spent up to now is      141.7 secs

     total energy              =     -19.27667091 Ry
     estimated scf accuracy    <       0.00427312 Ry

     iteration # 29     ecut=    50.00 Ry     beta= 0.01
     Davidson diagonalization with overlap
     ethr =  5.34E-05,  avg # of iterations =  2.0

     negative rho (up,down):  1.262E-05 0.000E+00

     total cpu time spent up to now is      143.1 secs

     total energy              =     -19.28025400 Ry
     estimated scf accuracy    <       0.00278494 Ry

     iteration # 30     ecut=    50.00 Ry     beta= 0.01
     Davidson diagonalization with overlap
     ethr =  3.48E-05,  avg # of iterations =  1.0

     negative rho (up,down):  2.764E-06 0.000E+00

     total cpu time spent up to now is      144.3 secs

     total energy              =     -19.28337253 Ry
     estimated scf accuracy    <       0.00067704 Ry

     iteration # 31     ecut=    50.00 Ry     beta= 0.01
     Davidson diagonalization with overlap
     ethr =  8.46E-06,  avg # of iterations =  2.3

     total cpu time spent up to now is      145.9 secs

     total energy              =     -19.28591370 Ry
     estimated scf accuracy    <       0.00012761 Ry

     iteration # 32     ecut=    50.00 Ry     beta= 0.01
     Davidson diagonalization with overlap
     ethr =  1.60E-06,  avg # of iterations =  4.1

     total cpu time spent up to now is      148.0 secs

     total energy              =     -19.28705737 Ry
     estimated scf accuracy    <       0.00006424 Ry

     iteration # 33     ecut=    50.00 Ry     beta= 0.01
     Davidson diagonalization with overlap
     ethr =  8.03E-07,  avg # of iterations =  1.0

     total cpu time spent up to now is      149.1 secs

     total energy              =     -19.28704615 Ry
     estimated scf accuracy    <       0.00007981 Ry

     iteration # 34     ecut=    50.00 Ry     beta= 0.01
     Davidson diagonalization with overlap
     ethr =  8.03E-07,  avg # of iterations =  1.0

     total cpu time spent up to now is      150.3 secs

     total energy              =     -19.28702500 Ry
     estimated scf accuracy    <       0.00014355 Ry

     iteration # 35     ecut=    50.00 Ry     beta= 0.01
     Davidson diagonalization with overlap
     ethr =  8.03E-07,  avg # of iterations =  1.1

     total cpu time spent up to now is      151.4 secs

     total energy              =     -19.28707783 Ry
     estimated scf accuracy    <       0.00020274 Ry

     iteration # 36     ecut=    50.00 Ry     beta= 0.01
     Davidson diagonalization with overlap
     ethr =  8.03E-07,  avg # of iterations =  4.0

     total cpu time spent up to now is      153.7 secs

     total energy              =     -19.28732473 Ry
     estimated scf accuracy    <       0.00231921 Ry

     iteration # 37     ecut=    50.00 Ry     beta= 0.01
     Davidson diagonalization with overlap
     ethr =  8.03E-07,  avg # of iterations =  2.0

     total cpu time spent up to now is      155.1 secs

     total energy              =     -19.28717407 Ry
     estimated scf accuracy    <       0.00294249 Ry

     iteration # 38     ecut=    50.00 Ry     beta= 0.01
     Davidson diagonalization with overlap
     ethr =  8.03E-07,  avg # of iterations =  2.0

     negative rho (up,down):  1.305E-04 0.000E+00

     total cpu time spent up to now is      156.7 secs

     total energy              =     -19.24597832 Ry
     estimated scf accuracy    <       0.00153285 Ry

     iteration # 39     ecut=    50.00 Ry     beta= 0.01
     Davidson diagonalization with overlap
     ethr =  8.03E-07,  avg # of iterations =  5.1

     negative rho (up,down):  4.898E-05 0.000E+00

     total cpu time spent up to now is      159.2 secs

     total energy              =     -19.27096160 Ry
     estimated scf accuracy    <       0.00004304 Ry

     iteration # 40     ecut=    50.00 Ry     beta= 0.01
     Davidson diagonalization with overlap
     ethr =  5.38E-07,  avg # of iterations =  3.0

     negative rho (up,down):  2.312E-05 0.000E+00

     total cpu time spent up to now is      161.1 secs

     total energy              =     -19.28099030 Ry
     estimated scf accuracy    <       0.00002451 Ry

     iteration # 41     ecut=    50.00 Ry     beta= 0.01
     Davidson diagonalization with overlap
     ethr =  3.06E-07,  avg # of iterations =  4.3

     negative rho (up,down):  2.281E-05 0.000E+00

     total cpu time spent up to now is      163.4 secs

     total energy              =     -19.28276344 Ry
     estimated scf accuracy    <       0.00006394 Ry

     iteration # 42     ecut=    50.00 Ry     beta= 0.01
     Davidson diagonalization with overlap
     ethr =  3.06E-07,  avg # of iterations =  1.0

     negative rho (up,down):  1.589E-06 0.000E+00

     total cpu time spent up to now is      164.5 secs

     total energy              =     -19.28443983 Ry
     estimated scf accuracy    <       0.00006371 Ry

     iteration # 43     ecut=    50.00 Ry     beta= 0.01
     Davidson diagonalization with overlap
     ethr =  3.06E-07,  avg # of iterations =  3.2

     negative rho (up,down):  2.279E-06 0.000E+00

     total cpu time spent up to now is      166.4 secs

     total energy              =     -19.28248072 Ry
     estimated scf accuracy    <       0.00006394 Ry

     iteration # 44     ecut=    50.00 Ry     beta= 0.01
     Davidson diagonalization with overlap
     ethr =  3.06E-07,  avg # of iterations =  3.6

     negative rho (up,down):  1.186E-05 0.000E+00

     total cpu time spent up to now is      168.2 secs

     total energy              =     -19.28182257 Ry
     estimated scf accuracy    <       0.00003181 Ry

     iteration # 45     ecut=    50.00 Ry     beta= 0.01
     Davidson diagonalization with overlap
     ethr =  3.06E-07,  avg # of iterations =  2.1

     negative rho (up,down):  2.229E-06 0.000E+00

     total cpu time spent up to now is      169.8 secs

     total energy              =     -19.28295406 Ry
     estimated scf accuracy    <       0.00003944 Ry

     iteration # 46     ecut=    50.00 Ry     beta= 0.01
     Davidson diagonalization with overlap
     ethr =  3.06E-07,  avg # of iterations =  2.4

     negative rho (up,down):  1.634E-06 0.000E+00

     total cpu time spent up to now is      171.4 secs

     total energy              =     -19.28427317 Ry
     estimated scf accuracy    <       0.00003506 Ry

     iteration # 47     ecut=    50.00 Ry     beta= 0.01
     Davidson diagonalization with overlap
     ethr =  3.06E-07,  avg # of iterations =  3.8

     negative rho (up,down):  1.486E-06 0.000E+00

     total cpu time spent up to now is      173.2 secs

     total energy              =     -19.28471289 Ry
     estimated scf accuracy    <       0.00005733 Ry

     iteration # 48     ecut=    50.00 Ry     beta= 0.01
     Davidson diagonalization with overlap
     ethr =  3.06E-07,  avg # of iterations =  2.0

     negative rho (up,down):  1.292E-06 0.000E+00

     total cpu time spent up to now is      174.6 secs

     total energy              =     -19.28632856 Ry
     estimated scf accuracy    <       0.00006064 Ry

     iteration # 49     ecut=    50.00 Ry     beta= 0.01
     Davidson diagonalization with overlap
     ethr =  3.06E-07,  avg # of iterations =  4.9

     total cpu time spent up to now is      176.8 secs

     total energy              =     -19.28699505 Ry
     estimated scf accuracy    <       0.00016165 Ry

     iteration # 50     ecut=    50.00 Ry     beta= 0.01
     Davidson diagonalization with overlap
     ethr =  3.06E-07,  avg # of iterations =  1.0

     negative rho (up,down):  6.299E-08 0.000E+00

     total cpu time spent up to now is      177.9 secs

     total energy              =     -19.28698993 Ry
     estimated scf accuracy    <       0.00016905 Ry

     iteration # 51     ecut=    50.00 Ry     beta= 0.01
     Davidson diagonalization with overlap
     ethr =  3.06E-07,  avg # of iterations =  1.0

     total cpu time spent up to now is      179.0 secs

     total energy              =     -19.28699108 Ry
     estimated scf accuracy    <       0.00017965 Ry

     iteration # 52     ecut=    50.00 Ry     beta= 0.01
     Davidson diagonalization with overlap
     ethr =  3.06E-07,  avg # of iterations =  1.0

     negative rho (up,down):  2.331E-06 0.000E+00

     total cpu time spent up to now is      180.2 secs

     total energy              =     -19.27753511 Ry
     estimated scf accuracy    <       0.00016042 Ry

     iteration # 53     ecut=    50.00 Ry     beta= 0.01
     Davidson diagonalization with overlap
     ethr =  3.06E-07,  avg # of iterations =  4.8

     total cpu time spent up to now is      182.4 secs

     total energy              =     -19.28500444 Ry
     estimated scf accuracy    <       0.00002748 Ry

     iteration # 54     ecut=    50.00 Ry     beta= 0.01
     Davidson diagonalization with overlap
     ethr =  3.06E-07,  avg # of iterations =  5.3

     negative rho (up,down):  2.424E-06 0.000E+00

     total cpu time spent up to now is      184.9 secs

     total energy              =     -19.27698469 Ry
     estimated scf accuracy    <       0.00013642 Ry

     iteration # 55     ecut=    50.00 Ry     beta= 0.01
     Davidson diagonalization with overlap
     ethr =  3.06E-07,  avg # of iterations =  4.8

     negative rho (up,down):  4.439E-06 0.000E+00

     total cpu time spent up to now is      187.1 secs

     total energy              =     -19.27222556 Ry
     estimated scf accuracy    <       0.00002239 Ry

     iteration # 56     ecut=    50.00 Ry     beta= 0.01
     Davidson diagonalization with overlap
     ethr =  2.80E-07,  avg # of iterations =  3.8

     negative rho (up,down):  1.654E-06 0.000E+00

     total cpu time spent up to now is      189.1 secs

     total energy              =     -19.28213713 Ry
     estimated scf accuracy    <       0.00000613 Ry

     iteration # 57     ecut=    50.00 Ry     beta= 0.01
     Davidson diagonalization with overlap
     ethr =  7.66E-08,  avg # of iterations =  5.3

     negative rho (up,down):  2.146E-06 0.000E+00

     total cpu time spent up to now is      191.7 secs

     total energy              =     -19.28299998 Ry
     estimated scf accuracy    <       0.00005876 Ry

     iteration # 58     ecut=    50.00 Ry     beta= 0.01
     Davidson diagonalization with overlap
     ethr =  7.66E-08,  avg # of iterations =  4.0

     negative rho (up,down):  2.668E-06 0.000E+00

     total cpu time spent up to now is      193.6 secs

     total energy              =     -19.27768809 Ry
     estimated scf accuracy    <       0.00004617 Ry

     iteration # 59     ecut=    50.00 Ry     beta= 0.01
     Davidson diagonalization with overlap
     ethr =  7.66E-08,  avg # of iterations =  4.7

     negative rho (up,down):  9.314E-06 0.000E+00

     total cpu time spent up to now is      195.8 secs

     total energy              =     -19.28080249 Ry
     estimated scf accuracy    <       0.00001064 Ry

     iteration # 60     ecut=    50.00 Ry     beta= 0.01
     Davidson diagonalization with overlap
     ethr =  7.66E-08,  avg # of iterations =  3.9

     negative rho (up,down):  2.368E-06 0.000E+00

     total cpu time spent up to now is      197.8 secs

     total energy              =     -19.28219467 Ry
     estimated scf accuracy    <       0.00003451 Ry

     iteration # 61     ecut=    50.00 Ry     beta= 0.01
     Davidson diagonalization with overlap
     ethr =  7.66E-08,  avg # of iterations =  3.0

     negative rho (up,down):  2.371E-06 0.000E+00

     total cpu time spent up to now is      199.7 secs

     total energy              =     -19.28218901 Ry
     estimated scf accuracy    <       0.00002784 Ry

     iteration # 62     ecut=    50.00 Ry     beta= 0.01
     Davidson diagonalization with overlap
     ethr =  7.66E-08,  avg # of iterations =  1.0

     negative rho (up,down):  2.407E-06 0.000E+00

     total cpu time spent up to now is      200.8 secs

     total energy              =     -19.28209390 Ry
     estimated scf accuracy    <       0.00002872 Ry

     iteration # 63     ecut=    50.00 Ry     beta= 0.01
     Davidson diagonalization with overlap
     ethr =  7.66E-08,  avg # of iterations =  2.0

     negative rho (up,down):  2.610E-06 0.000E+00

     total cpu time spent up to now is      202.1 secs

     total energy              =     -19.27997983 Ry
     estimated scf accuracy    <       0.00002797 Ry

     iteration # 64     ecut=    50.00 Ry     beta= 0.01
     Davidson diagonalization with overlap
     ethr =  7.66E-08,  avg # of iterations =  3.9

     negative rho (up,down):  2.532E-06 0.000E+00

     total cpu time spent up to now is      204.1 secs

     total energy              =     -19.28102818 Ry
     estimated scf accuracy    <       0.00001213 Ry

     iteration # 65     ecut=    50.00 Ry     beta= 0.01
     Davidson diagonalization with overlap
     ethr =  7.66E-08,  avg # of iterations =  3.0

     negative rho (up,down):  1.040E-06 0.000E+00

     total cpu time spent up to now is      205.8 secs

     total energy              =     -19.28443121 Ry
     estimated scf accuracy    <       0.00001662 Ry

     iteration # 66     ecut=    50.00 Ry     beta= 0.01
     Davidson diagonalization with overlap
     ethr =  7.66E-08,  avg # of iterations =  6.2

     negative rho (up,down):  1.115E-06 0.000E+00

     total cpu time spent up to now is      208.6 secs

     total energy              =     -19.28695909 Ry
     estimated scf accuracy    <       0.00015908 Ry

     iteration # 67     ecut=    50.00 Ry     beta= 0.01
     Davidson diagonalization with overlap
     ethr =  7.66E-08,  avg # of iterations =  1.0

     total cpu time spent up to now is      209.7 secs

     total energy              =     -19.28704186 Ry
     estimated scf accuracy    <       0.00015844 Ry

     iteration # 68     ecut=    50.00 Ry     beta= 0.01
     Davidson diagonalization with overlap
     ethr =  7.66E-08,  avg # of iterations =  2.0

     total cpu time spent up to now is      211.3 secs

     total energy              =     -19.28702995 Ry
     estimated scf accuracy    <       0.00013590 Ry

     iteration # 69     ecut=    50.00 Ry     beta= 0.01
     Davidson diagonalization with overlap
     ethr =  7.66E-08,  avg # of iterations =  1.0

     total cpu time spent up to now is      212.4 secs

     total energy              =     -19.28708298 Ry
     estimated scf accuracy    <       0.00015026 Ry

     iteration # 70     ecut=    50.00 Ry     beta= 0.01
     Davidson diagonalization with overlap
     ethr =  7.66E-08,  avg # of iterations =  2.0

     total cpu time spent up to now is      214.0 secs

     total energy              =     -19.28709114 Ry
     estimated scf accuracy    <       0.00009852 Ry

     iteration # 71     ecut=    50.00 Ry     beta= 0.01
     Davidson diagonalization with overlap
     ethr =  7.66E-08,  avg # of iterations =  1.0

     total cpu time spent up to now is      215.1 secs

     total energy              =     -19.28708808 Ry
     estimated scf accuracy    <       0.00009422 Ry

     iteration # 72     ecut=    50.00 Ry     beta= 0.01
     Davidson diagonalization with overlap
     ethr =  7.66E-08,  avg # of iterations =  1.0

     total cpu time spent up to now is      216.2 secs

     total energy              =     -19.28707610 Ry
     estimated scf accuracy    <       0.00009445 Ry

     iteration # 73     ecut=    50.00 Ry     beta= 0.01
     Davidson diagonalization with overlap
     ethr =  7.66E-08,  avg # of iterations =  1.0

     total cpu time spent up to now is      217.4 secs

     total energy              =     -19.28708667 Ry
     estimated scf accuracy    <       0.00010717 Ry

     iteration # 74     ecut=    50.00 Ry     beta= 0.01
     Davidson diagonalization with overlap
     ethr =  7.66E-08,  avg # of iterations =  1.0

     total cpu time spent up to now is      218.5 secs

     total energy              =     -19.28715566 Ry
     estimated scf accuracy    <       0.00009287 Ry

     iteration # 75     ecut=    50.00 Ry     beta= 0.01
     Davidson diagonalization with overlap
     ethr =  7.66E-08,  avg # of iterations =  3.3

     total cpu time spent up to now is      220.5 secs

     total energy              =     -19.28718312 Ry
     estimated scf accuracy    <       0.00002389 Ry

     iteration # 76     ecut=    50.00 Ry     beta= 0.01
     Davidson diagonalization with overlap
     ethr =  7.66E-08,  avg # of iterations =  4.0

     total cpu time spent up to now is      222.8 secs

     total energy              =     -19.28719157 Ry
     estimated scf accuracy    <       0.00016265 Ry

     iteration # 77     ecut=    50.00 Ry     beta= 0.01
     Davidson diagonalization with overlap
     ethr =  7.66E-08,  avg # of iterations =  1.0

     total cpu time spent up to now is      224.0 secs

     total energy              =     -19.28716153 Ry
     estimated scf accuracy    <       0.00015684 Ry

     iteration # 78     ecut=    50.00 Ry     beta= 0.01
     Davidson diagonalization with overlap
     ethr =  7.66E-08,  avg # of iterations =  3.0

     total cpu time spent up to now is      225.8 secs

     total energy              =     -19.28716212 Ry
     estimated scf accuracy    <       0.00004676 Ry

     iteration # 79     ecut=    50.00 Ry     beta= 0.01
     Davidson diagonalization with overlap
     ethr =  7.66E-08,  avg # of iterations =  2.0

     total cpu time spent up to now is      227.3 secs

     total energy              =     -19.28716145 Ry
     estimated scf accuracy    <       0.00001091 Ry

     iteration # 80     ecut=    50.00 Ry     beta= 0.01
     Davidson diagonalization with overlap
     ethr =  7.66E-08,  avg # of iterations =  1.0

     total cpu time spent up to now is      228.5 secs

     total energy              =     -19.28715802 Ry
     estimated scf accuracy    <       0.00001039 Ry

     iteration # 81     ecut=    50.00 Ry     beta= 0.01
     Davidson diagonalization with overlap
     ethr =  7.66E-08,  avg # of iterations =  1.0

     total cpu time spent up to now is      229.6 secs

     total energy              =     -19.28715795 Ry
     estimated scf accuracy    <       0.00000933 Ry

     iteration # 82     ecut=    50.00 Ry     beta= 0.01
     Davidson diagonalization with overlap
     ethr =  7.66E-08,  avg # of iterations =  1.0

     total cpu time spent up to now is      230.8 secs

     total energy              =     -19.28715214 Ry
     estimated scf accuracy    <       0.00000906 Ry

     iteration # 83     ecut=    50.00 Ry     beta= 0.01
     Davidson diagonalization with overlap
     ethr =  7.66E-08,  avg # of iterations =  2.8

     total cpu time spent up to now is      232.5 secs

     total energy              =     -19.28715373 Ry
     estimated scf accuracy    <       0.00002711 Ry

     iteration # 84     ecut=    50.00 Ry     beta= 0.01
     Davidson diagonalization with overlap
     ethr =  7.66E-08,  avg # of iterations =  1.6

     total cpu time spent up to now is      233.7 secs

     total energy              =     -19.28715356 Ry
     estimated scf accuracy    <       0.00001344 Ry

     iteration # 85     ecut=    50.00 Ry     beta= 0.01
     Davidson diagonalization with overlap
     ethr =  7.66E-08,  avg # of iterations =  1.0

     total cpu time spent up to now is      234.9 secs

     total energy              =     -19.28715266 Ry
     estimated scf accuracy    <       0.00000928 Ry

     iteration # 86     ecut=    50.00 Ry     beta= 0.01
     Davidson diagonalization with overlap
     ethr =  7.66E-08,  avg # of iterations =  1.0

     total cpu time spent up to now is      236.0 secs

     total energy              =     -19.28715223 Ry
     estimated scf accuracy    <       0.00000480 Ry

     iteration # 87     ecut=    50.00 Ry     beta= 0.01
     Davidson diagonalization with overlap
     ethr =  6.00E-08,  avg # of iterations =  1.0

     total cpu time spent up to now is      237.2 secs

     total energy              =     -19.28715247 Ry
     estimated scf accuracy    <       0.00000152 Ry

     iteration # 88     ecut=    50.00 Ry     beta= 0.01
     Davidson diagonalization with overlap
     ethr =  1.90E-08,  avg # of iterations =  1.0

     total cpu time spent up to now is      238.3 secs

     total energy              =     -19.28715271 Ry
     estimated scf accuracy    <       0.00000141 Ry

     iteration # 89     ecut=    50.00 Ry     beta= 0.01
     Davidson diagonalization with overlap
     ethr =  1.76E-08,  avg # of iterations =  1.2

     total cpu time spent up to now is      239.5 secs

     total energy              =     -19.28715419 Ry
     estimated scf accuracy    <       0.00000155 Ry

     iteration # 90     ecut=    50.00 Ry     beta= 0.01
     Davidson diagonalization with overlap
     ethr =  1.76E-08,  avg # of iterations =  2.0

     total cpu time spent up to now is      241.1 secs

     total energy              =     -19.28715364 Ry
     estimated scf accuracy    <       0.00000433 Ry

     iteration # 91     ecut=    50.00 Ry     beta= 0.01
     Davidson diagonalization with overlap
     ethr =  1.76E-08,  avg # of iterations =  2.0

     total cpu time spent up to now is      242.7 secs

     total energy              =     -19.28715394 Ry
     estimated scf accuracy    <       0.00000088 Ry

     iteration # 92     ecut=    50.00 Ry     beta= 0.01
     Davidson diagonalization with overlap
     ethr =  1.10E-08,  avg # of iterations =  1.0

     total cpu time spent up to now is      243.8 secs

     total energy              =     -19.28715398 Ry
     estimated scf accuracy    <       0.00000037 Ry

     iteration # 93     ecut=    50.00 Ry     beta= 0.01
     Davidson diagonalization with overlap
     ethr =  4.60E-09,  avg # of iterations =  1.0

     total cpu time spent up to now is      245.0 secs

     total energy              =     -19.28715397 Ry
     estimated scf accuracy    <       0.00000034 Ry

     iteration # 94     ecut=    50.00 Ry     beta= 0.01
     Davidson diagonalization with overlap
     ethr =  4.19E-09,  avg # of iterations =  1.0

     total cpu time spent up to now is      246.1 secs

     total energy              =     -19.28715407 Ry
     estimated scf accuracy    <       0.00000071 Ry

     iteration # 95     ecut=    50.00 Ry     beta= 0.01
     Davidson diagonalization with overlap
     ethr =  4.19E-09,  avg # of iterations =  1.0

     total cpu time spent up to now is      247.3 secs

     total energy              =     -19.28715400 Ry
     estimated scf accuracy    <       0.00000058 Ry

     iteration # 96     ecut=    50.00 Ry     beta= 0.01
     Davidson diagonalization with overlap
     ethr =  4.19E-09,  avg # of iterations =  2.2

     total cpu time spent up to now is      248.9 secs

     total energy              =     -19.28715396 Ry
     estimated scf accuracy    <       0.00000105 Ry

     iteration # 97     ecut=    50.00 Ry     beta= 0.01
     Davidson diagonalization with overlap
     ethr =  4.19E-09,  avg # of iterations =  2.0

     total cpu time spent up to now is      250.4 secs

     total energy              =     -19.28715408 Ry
     estimated scf accuracy    <       0.00000027 Ry

     iteration # 98     ecut=    50.00 Ry     beta= 0.01
     Davidson diagonalization with overlap
     ethr =  3.38E-09,  avg # of iterations =  1.0

     total cpu time spent up to now is      251.6 secs

     total energy              =     -19.28715406 Ry
     estimated scf accuracy    <       0.00000028 Ry

     iteration # 99     ecut=    50.00 Ry     beta= 0.01
     Davidson diagonalization with overlap
     ethr =  3.38E-09,  avg # of iterations =  1.0

     total cpu time spent up to now is      252.8 secs

     total energy              =     -19.28715399 Ry
     estimated scf accuracy    <       0.00000024 Ry

     iteration #100     ecut=    50.00 Ry     beta= 0.01
     Davidson diagonalization with overlap
     ethr =  3.02E-09,  avg # of iterations =  2.0

     total cpu time spent up to now is      254.1 secs

     total energy              =     -19.28715394 Ry
     estimated scf accuracy    <       0.00000019 Ry

     iteration #101     ecut=    50.00 Ry     beta= 0.01
     Davidson diagonalization with overlap
     ethr =  2.33E-09,  avg # of iterations =  1.0

     total cpu time spent up to now is      255.3 secs

     total energy              =     -19.28715393 Ry
     estimated scf accuracy    <       0.00000015 Ry

     iteration #102     ecut=    50.00 Ry     beta= 0.01
     Davidson diagonalization with overlap
     ethr =  1.88E-09,  avg # of iterations =  1.0

     total cpu time spent up to now is      256.4 secs

     total energy              =     -19.28715399 Ry
     estimated scf accuracy    <       0.00000013 Ry

     iteration #103     ecut=    50.00 Ry     beta= 0.01
     Davidson diagonalization with overlap
     ethr =  1.67E-09,  avg # of iterations =  1.0

     total cpu time spent up to now is      257.6 secs

     total energy              =     -19.28715400 Ry
     estimated scf accuracy    <       0.00000013 Ry

     iteration #104     ecut=    50.00 Ry     beta= 0.01
     Davidson diagonalization with overlap
     ethr =  1.64E-09,  avg # of iterations =  1.0

     total cpu time spent up to now is      258.7 secs

     total energy              =     -19.28715402 Ry
     estimated scf accuracy    <       0.00000014 Ry

     iteration #105     ecut=    50.00 Ry     beta= 0.01
     Davidson diagonalization with overlap
     ethr =  1.64E-09,  avg # of iterations =  1.0

     total cpu time spent up to now is      259.9 secs

     total energy              =     -19.28715401 Ry
[...]

     total cpu time spent up to now is      995.0 secs

     total energy              =     -19.20464461 Ry
     estimated scf accuracy    <       0.00206233 Ry

     iteration #258     ecut=    50.00 Ry     beta= 0.01
     Davidson diagonalization with overlap
     ethr =  9.75E-07,  avg # of iterations =  3.3

     negative rho (up,down):  9.194E-05 0.000E+00

     total cpu time spent up to now is      996.8 secs

     total energy              =     -19.19547649 Ry
     estimated scf accuracy    <       0.00200031 Ry

     iteration #259     ecut=    50.00 Ry     beta= 0.01
     Davidson diagonalization with overlap
     ethr =  9.75E-07,  avg # of iterations =  3.0

     negative rho (up,down):  9.608E-05 0.000E+00

     total cpu time spent up to now is      998.8 secs

     total energy              =     -19.18771518 Ry
     estimated scf accuracy    <       0.00171607 Ry

     iteration #260     ecut=    50.00 Ry     beta= 0.01
     Davidson diagonalization with overlap
     ethr =  9.75E-07,  avg # of iterations =  5.2

     negative rho (up,down):  5.334E-06 0.000E+00

     total cpu time spent up to now is     1001.3 secs

     total energy              =     -19.23333499 Ry
     estimated scf accuracy    <       0.00200081 Ry

     iteration #261     ecut=    50.00 Ry     beta= 0.01
     Davidson diagonalization with overlap
     ethr =  9.75E-07,  avg # of iterations =  5.3

     negative rho (up,down):  1.704E-05 0.000E+00

     total cpu time spent up to now is     1004.1 secs

     total energy              =     -19.22741752 Ry
     estimated scf accuracy    <       0.00624281 Ry

     iteration #262     ecut=    50.00 Ry     beta= 0.01
     Davidson diagonalization with overlap
     ethr =  9.75E-07,  avg # of iterations =  4.0

     negative rho (up,down):  4.213E-05 0.000E+00

     total cpu time spent up to now is     1006.4 secs

     total energy              =     -19.19001655 Ry
     estimated scf accuracy    <       0.00465255 Ry

     iteration #263     ecut=    50.00 Ry     beta= 0.01
     Davidson diagonalization with overlap
     ethr =  9.75E-07,  avg # of iterations =  4.5

     negative rho (up,down):  1.111E-04 0.000E+00

     total cpu time spent up to now is     1008.8 secs

     total energy              =     -18.98871339 Ry
     estimated scf accuracy    <       0.00237719 Ry

     iteration #264     ecut=    50.00 Ry     beta= 0.01
     Davidson diagonalization with overlap
     ethr =  9.75E-07,  avg # of iterations =  8.6

     negative rho (up,down):  7.239E-05 0.000E+00

     total cpu time spent up to now is     1012.7 secs

     total energy              =     -19.17956048 Ry
     estimated scf accuracy    <       0.00137729 Ry

     iteration #265     ecut=    50.00 Ry     beta= 0.01
     Davidson diagonalization with overlap
     ethr =  9.75E-07,  avg # of iterations =  5.4

     negative rho (up,down):  1.517E-04 0.000E+00

     total cpu time spent up to now is     1015.5 secs

     total energy              =     -19.10900465 Ry
     estimated scf accuracy    <       0.00497415 Ry

     iteration #266     ecut=    50.00 Ry     beta= 0.01
     Davidson diagonalization with overlap
     ethr =  9.75E-07,  avg # of iterations =  5.9

     negative rho (up,down):  1.603E-04 0.000E+00

     total cpu time spent up to now is     1018.3 secs

     total energy              =     -19.18818541 Ry
     estimated scf accuracy    <       0.00227679 Ry

     iteration #267     ecut=    50.00 Ry     beta= 0.01
     Davidson diagonalization with overlap
     ethr =  9.75E-07,  avg # of iterations =  4.3

     negative rho (up,down):  1.729E-04 0.000E+00

     total cpu time spent up to now is     1020.7 secs

     total energy              =     -18.66360402 Ry
     estimated scf accuracy    <       0.00247742 Ry

     iteration #268     ecut=    50.00 Ry     beta= 0.01
     Davidson diagonalization with overlap
     c_bands:  3 eigenvalues not converged
     c_bands:  3 eigenvalues not converged
     c_bands:  1 eigenvalues not converged
     c_bands:  2 eigenvalues not converged
     c_bands:  2 eigenvalues not converged
     c_bands:  1 eigenvalues not converged
     c_bands:  3 eigenvalues not converged
     c_bands:  3 eigenvalues not converged
     c_bands:  1 eigenvalues not converged
     c_bands:  2 eigenvalues not converged
     c_bands:  3 eigenvalues not converged
     c_bands:  3 eigenvalues not converged
     c_bands:  1 eigenvalues not converged
     c_bands:  3 eigenvalues not converged
     c_bands:  1 eigenvalues not converged
     c_bands:  2 eigenvalues not converged
     c_bands:  2 eigenvalues not converged
     c_bands:  2 eigenvalues not converged
     c_bands:  2 eigenvalues not converged
     c_bands:  3 eigenvalues not converged
     c_bands:  1 eigenvalues not converged
     c_bands:  1 eigenvalues not converged
     c_bands:  1 eigenvalues not converged
     c_bands:  2 eigenvalues not converged
     c_bands:  2 eigenvalues not converged
     c_bands:  2 eigenvalues not converged
     c_bands:  2 eigenvalues not converged
     c_bands:  2 eigenvalues not converged
     c_bands:  3 eigenvalues not converged
     c_bands:  4 eigenvalues not converged
     c_bands:  3 eigenvalues not converged
     c_bands:  2 eigenvalues not converged
     c_bands:  2 eigenvalues not converged
     c_bands:  2 eigenvalues not converged
     c_bands:  2 eigenvalues not converged
     c_bands:  2 eigenvalues not converged
     c_bands:  2 eigenvalues not converged
     c_bands:  2 eigenvalues not converged
     c_bands:  2 eigenvalues not converged
     c_bands:  2 eigenvalues not converged
     c_bands:  2 eigenvalues not converged
     c_bands:  1 eigenvalues not converged
     ethr =  9.75E-07,  avg # of iterations = 20.0

     negative rho (up,down):  1.076E-04 0.000E+00

     total cpu time spent up to now is     1056.0 secs

     total energy              =     -19.08707524 Ry
     estimated scf accuracy    <       0.01765534 Ry

     iteration #269     ecut=    50.00 Ry     beta= 0.01
     Davidson diagonalization with overlap
     ethr =  9.75E-07,  avg # of iterations =  9.8

     negative rho (up,down):  1.916E-04 0.000E+00

     total cpu time spent up to now is     1060.4 secs

     total energy              =     -19.18784241 Ry
     estimated scf accuracy    <       0.00127959 Ry

     iteration #270     ecut=    50.00 Ry     beta= 0.01
     Davidson diagonalization with overlap
     ethr =  9.75E-07,  avg # of iterations =  4.5

     negative rho (up,down):  4.541E-05 0.000E+00

     total cpu time spent up to now is     1062.9 secs

     total energy              =     -19.19475211 Ry
     estimated scf accuracy    <       0.00250032 Ry

     iteration #271     ecut=    50.00 Ry     beta= 0.01
     Davidson diagonalization with overlap
     ethr =  9.75E-07,  avg # of iterations =  4.1

     negative rho (up,down):  8.170E-06 0.000E+00

     total cpu time spent up to now is     1065.1 secs

     total energy              =     -19.22768817 Ry
     estimated scf accuracy    <       0.00189910 Ry

     iteration #272     ecut=    50.00 Ry     beta= 0.01
     Davidson diagonalization with overlap
     ethr =  9.75E-07,  avg # of iterations =  4.9

     negative rho (up,down):  1.591E-05 0.000E+00

     total cpu time spent up to now is     1067.7 secs

     total energy              =     -19.23448663 Ry
     estimated scf accuracy    <       0.00431468 Ry

     iteration #273     ecut=    50.00 Ry     beta= 0.01
     Davidson diagonalization with overlap
     ethr =  9.75E-07,  avg # of iterations =  4.2

     negative rho (up,down):  6.164E-05 0.000E+00

     total cpu time spent up to now is     1069.9 secs

     total energy              =     -19.23008282 Ry
     estimated scf accuracy    <       0.00410112 Ry

     iteration #274     ecut=    50.00 Ry     beta= 0.01
     Davidson diagonalization with overlap
     ethr =  9.75E-07,  avg # of iterations =  3.3

     negative rho (up,down):  6.959E-05 0.000E+00

     total cpu time spent up to now is     1071.8 secs

     total energy              =     -19.22449884 Ry
     estimated scf accuracy    <       0.00480960 Ry

     iteration #275     ecut=    50.00 Ry     beta= 0.01
     Davidson diagonalization with overlap
     ethr =  9.75E-07,  avg # of iterations =  2.9

     negative rho (up,down):  8.731E-05 0.000E+00

     total cpu time spent up to now is     1073.6 secs

     total energy              =     -19.21017413 Ry
     estimated scf accuracy    <       0.00441978 Ry

     iteration #276     ecut=    50.00 Ry     beta= 0.01
     Davidson diagonalization with overlap
     ethr =  9.75E-07,  avg # of iterations =  3.1

     negative rho (up,down):  1.160E-04 0.000E+00

     total cpu time spent up to now is     1075.6 secs

     total energy              =     -19.08979067 Ry
     estimated scf accuracy    <       0.00354473 Ry

     iteration #277     ecut=    50.00 Ry     beta= 0.01
     Davidson diagonalization with overlap
     ethr =  9.75E-07,  avg # of iterations =  5.5

     negative rho (up,down):  1.074E-04 0.000E+00

     total cpu time spent up to now is     1078.4 secs

     total energy              =     -19.15458130 Ry
     estimated scf accuracy    <       0.00140001 Ry

     iteration #278     ecut=    50.00 Ry     beta= 0.01
     Davidson diagonalization with overlap
     ethr =  9.75E-07,  avg # of iterations =  4.5

     negative rho (up,down):  2.937E-04 0.000E+00

     total cpu time spent up to now is     1080.8 secs

     total energy              =     -19.18435040 Ry
     estimated scf accuracy    <       0.00133023 Ry

     iteration #279     ecut=    50.00 Ry     beta= 0.01
     Davidson diagonalization with overlap
     ethr =  9.75E-07,  avg # of iterations =  4.4

     negative rho (up,down):  5.421E-05 0.000E+00

     total cpu time spent up to now is     1083.2 secs

     total energy              =     -19.22431048 Ry
     estimated scf accuracy    <       0.00354166 Ry

     iteration #280     ecut=    50.00 Ry     beta= 0.01
     Davidson diagonalization with overlap
     ethr =  9.75E-07,  avg # of iterations =  4.6

     total cpu time spent up to now is     1085.7 secs

     total energy              =     -19.25027070 Ry
     estimated scf accuracy    <       0.00389635 Ry

     iteration #281     ecut=    50.00 Ry     beta= 0.01
     Davidson diagonalization with overlap
     ethr =  9.75E-07,  avg # of iterations =  5.7

     total cpu time spent up to now is     1088.5 secs

     total energy              =     -19.26378874 Ry
     estimated scf accuracy    <       0.00688293 Ry

     iteration #282     ecut=    50.00 Ry     beta= 0.01
     Davidson diagonalization with overlap
     ethr =  9.75E-07,  avg # of iterations =  1.2

     total cpu time spent up to now is     1089.6 secs

     total energy              =     -19.26339285 Ry
     estimated scf accuracy    <       0.00627925 Ry

     iteration #283     ecut=    50.00 Ry     beta= 0.01
     Davidson diagonalization with overlap
     ethr =  9.75E-07,  avg # of iterations =  2.0

     total cpu time spent up to now is     1091.1 secs

     total energy              =     -19.26372963 Ry
     estimated scf accuracy    <       0.00766505 Ry

     iteration #284     ecut=    50.00 Ry     beta= 0.01
     Davidson diagonalization with overlap
     ethr =  9.75E-07,  avg # of iterations =  1.0

     total cpu time spent up to now is     1092.3 secs

     total energy              =     -19.26366610 Ry
     estimated scf accuracy    <       0.00693612 Ry

     iteration #285     ecut=    50.00 Ry     beta= 0.01
     Davidson diagonalization with overlap
     ethr =  9.75E-07,  avg # of iterations =  1.0

     total cpu time spent up to now is     1093.4 secs

     total energy              =     -19.26365489 Ry
     estimated scf accuracy    <       0.00698899 Ry

     iteration #286     ecut=    50.00 Ry     beta= 0.01
     Davidson diagonalization with overlap
     ethr =  9.75E-07,  avg # of iterations =  1.0

     total cpu time spent up to now is     1094.5 secs

     total energy              =     -19.26391026 Ry
     estimated scf accuracy    <       0.00703399 Ry

     iteration #287     ecut=    50.00 Ry     beta= 0.01
     Davidson diagonalization with overlap
     ethr =  9.75E-07,  avg # of iterations =  1.0

     negative rho (up,down):  9.208E-05 0.000E+00

     total cpu time spent up to now is     1095.6 secs

     total energy              =     -19.20942108 Ry
     estimated scf accuracy    <       0.00672902 Ry

     iteration #288     ecut=    50.00 Ry     beta= 0.01
     Davidson diagonalization with overlap
     ethr =  9.75E-07,  avg # of iterations =  5.0

     negative rho (up,down):  2.263E-04 0.000E+00

     total cpu time spent up to now is     1098.3 secs

     total energy              =     -19.22425320 Ry
     estimated scf accuracy    <       0.00321204 Ry

     iteration #289     ecut=    50.00 Ry     beta= 0.01
     Davidson diagonalization with overlap
     ethr =  9.75E-07,  avg # of iterations =  5.0

     negative rho (up,down):  3.554E-04 0.000E+00

     total cpu time spent up to now is     1100.9 secs

     total energy              =     -19.21554838 Ry
     estimated scf accuracy    <       0.00210212 Ry

     iteration #290     ecut=    50.00 Ry     beta= 0.01
     Davidson diagonalization with overlap
     ethr =  9.75E-07,  avg # of iterations =  5.5

     negative rho (up,down):  3.807E-04 0.000E+00

     total cpu time spent up to now is     1103.7 secs

     total energy              =     -19.22452193 Ry
     estimated scf accuracy    <       0.00143012 Ry

     iteration #291     ecut=    50.00 Ry     beta= 0.01
     Davidson diagonalization with overlap
     ethr =  9.75E-07,  avg # of iterations =  3.0

     negative rho (up,down):  2.917E-04 0.000E+00

     total cpu time spent up to now is     1105.6 secs

     total energy              =     -19.23788503 Ry
     estimated scf accuracy    <       0.00156447 Ry

     iteration #292     ecut=    50.00 Ry     beta= 0.01
     Davidson diagonalization with overlap
     ethr =  9.75E-07,  avg # of iterations =  3.6

     negative rho (up,down):  2.315E-04 0.000E+00

     total cpu time spent up to now is     1107.7 secs

     total energy              =     -19.21818520 Ry
     estimated scf accuracy    <       0.00223470 Ry

     iteration #293     ecut=    50.00 Ry     beta= 0.01
     Davidson diagonalization with overlap
     ethr =  9.75E-07,  avg # of iterations =  5.1

     negative rho (up,down):  4.695E-04 0.000E+00

     total cpu time spent up to now is     1110.4 secs

     total energy              =     -19.20635207 Ry
     estimated scf accuracy    <       0.00092195 Ry

     iteration #294     ecut=    50.00 Ry     beta= 0.01
     Davidson diagonalization with overlap
     ethr =  9.75E-07,  avg # of iterations =  3.9

     negative rho (up,down):  2.431E-04 0.000E+00

     total cpu time spent up to now is     1112.6 secs

     total energy              =     -19.22492912 Ry
     estimated scf accuracy    <       0.00126439 Ry

     iteration #295     ecut=    50.00 Ry     beta= 0.01
     Davidson diagonalization with overlap
     ethr =  9.75E-07,  avg # of iterations =  4.0

     negative rho (up,down):  4.375E-04 0.000E+00

     total cpu time spent up to now is     1114.9 secs

     total energy              =     -19.22321150 Ry
     estimated scf accuracy    <       0.00096585 Ry

     iteration #296     ecut=    50.00 Ry     beta= 0.01
     Davidson diagonalization with overlap
     ethr =  9.75E-07,  avg # of iterations =  3.0

     negative rho (up,down):  4.158E-04 0.000E+00

     total cpu time spent up to now is     1116.8 secs

     total energy              =     -19.15083700 Ry
     estimated scf accuracy    <       0.00100360 Ry

     iteration #297     ecut=    50.00 Ry     beta= 0.01
     Davidson diagonalization with overlap
     ethr =  9.75E-07,  avg # of iterations =  5.6

     negative rho (up,down):  4.278E-04 0.000E+00

     total cpu time spent up to now is     1119.7 secs

     total energy              =     -19.21419235 Ry
     estimated scf accuracy    <       0.00023255 Ry

     iteration #298     ecut=    50.00 Ry     beta= 0.01
     Davidson diagonalization with overlap
     ethr =  9.75E-07,  avg # of iterations =  4.3

     negative rho (up,down):  3.389E-04 0.000E+00

     total cpu time spent up to now is     1122.0 secs

     total energy              =     -19.23057480 Ry
     estimated scf accuracy    <       0.00114220 Ry

     iteration #299     ecut=    50.00 Ry     beta= 0.01
     Davidson diagonalization with overlap
     ethr =  9.75E-07,  avg # of iterations =  3.0

     negative rho (up,down):  3.908E-04 0.000E+00

     total cpu time spent up to now is     1123.8 secs

     total energy              =     -19.10995179 Ry
     estimated scf accuracy    <       0.00144499 Ry

     iteration #300     ecut=    50.00 Ry     beta= 0.01
     Davidson diagonalization with overlap
     ethr =  9.75E-07,  avg # of iterations =  6.4

     negative rho (up,down):  2.679E-04 0.000E+00

     total cpu time spent up to now is     1126.9 secs

     total energy              =     -19.21364391 Ry
     estimated scf accuracy    <       0.00023750 Ry

     End of self-consistent calculation

     convergence NOT achieved after 300 iterations: stopping
     Writing meta-gga kinetic term

     Writing config to output data dir ./pwscf.save/
     Writing meta-gga kinetic term
 
     init_run     :      1.82s CPU      1.88s WALL (       1 calls)
     electrons    :   1102.76s CPU   1121.60s WALL (       4 calls)
     update_pot   :      1.23s CPU      1.23s WALL (       3 calls)
     forces       :      0.46s CPU      0.46s WALL (       3 calls)
     stress       :      1.63s CPU      1.64s WALL (       3 calls)

     Called by init_run:
     wfcinit      :      1.42s CPU      1.42s WALL (       1 calls)
     potinit      :      0.16s CPU      0.17s WALL (       1 calls)
     hinit0       :      0.22s CPU      0.28s WALL (       1 calls)

     Called by electrons:
     c_bands      :    957.05s CPU    962.68s WALL (     499 calls)
     sum_band     :    129.57s CPU    142.57s WALL (     499 calls)
     v_of_rho     :      9.06s CPU      9.11s WALL (     503 calls)
     mix_rho      :      6.88s CPU      7.04s WALL (     499 calls)

     Called by c_bands:
     init_us_2    :      5.26s CPU      5.29s WALL (   47235 calls)
     init_us_2:cp :      5.16s CPU      5.20s WALL (   47235 calls)
     cegterg      :    952.02s CPU    957.61s WALL (   23453 calls)

     Called by *egterg:
     cdiaghg      :      2.95s CPU      2.98s WALL (  113364 calls)
     h_psi        :    935.79s CPU    941.28s WALL (  113552 calls)
     g_psi        :      1.06s CPU      1.07s WALL (   90052 calls)

     Called by h_psi:
     h_psi:calbec :      2.09s CPU      2.10s WALL (  113552 calls)
     vloc_psi     :    231.85s CPU    233.43s WALL (  113552 calls)
     add_vuspsi   :      2.22s CPU      2.25s WALL (  113552 calls)
     h_psi_meta   :    698.33s CPU    702.21s WALL (  113552 calls)

     General routines
     calbec       :      1.87s CPU      1.90s WALL (  114257 calls)
     fft          :      1.51s CPU      1.59s WALL (    6050 calls)
     ffts         :      3.14s CPU      3.17s WALL (   12414 calls)
     fftw         :    932.82s CPU    938.32s WALL ( 3717988 calls)
     interpolate  :      0.02s CPU      0.02s WALL (     503 calls)
     davcio       :      0.00s CPU      0.01s WALL (      65 calls)
 
     Parallel routines
 
     PWSCF        :  18m27.96s CPU  18m46.91s WALL

 
   This run was terminated on:  15: 1:44  18Feb2023            

=------------------------------------------------------------------------------=
   JOB DONE.
=------------------------------------------------------------------------------=
255
