
     Program PWSCF v.7.0 starts on 21Feb2023 at 13:38:25 

     This program is part of the open-source Quantum ESPRESSO suite
     for quantum simulation of materials; please cite
         "P. Giannozzi et al., J. Phys.:Condens. Matter 21 395502 (2009);
         "P. Giannozzi et al., J. Phys.:Condens. Matter 29 465901 (2017);
         "P. Giannozzi et al., J. Chem. Phys. 152 154105 (2020);
          URL http://www.quantum-espresso.org", 
     in publications or presentations arising from this work. More details at
     http://www.quantum-espresso.org/quote

     Parallel version (MPI), running on     8 processors

     MPI processes distributed on     1 nodes
     R & G space division:  proc/nbgrp/npool/nimage =       8
     1933 MiB available memory on the printing compute node when the environment starts
 
     Waiting for input...
     Reading input from standard input

     Current dimensions of program PWSCF are:
     Max number of different atomic species (ntypx) = 10
     Max number of k-points (npk) =  40000
     Max angular momentum in pseudopotentials (lmaxx) =  4

     File ./pwscf.update deleted, as requested

     File ./pwscf.bfgs deleted, as requested
     file Si.SCAN.UPF2: wavefunction(s)  0D renormalized

     WARNING: the MGGA functional with ID    5 has been 
     read together with other dft terms, but it should 
     stand alone in order to work properly. The other 
     terms will be ignored.

     WARNING: the MGGA functional with ID    5 has been 
     read together with other dft terms, but it should 
     stand alone in order to work properly. The other 
     terms will be ignored.

     Subspace diagonalization in iterative solution of the eigenvalue problem:
     a serial algorithm will be used

 
     Parallelization info
     --------------------
     sticks:   dense  smooth     PW     G-vecs:    dense   smooth      PW
     Min          91      91     27                 1617     1617     278
     Max          92      92     28                 1618     1618     280
     Sum         733     733    223                12939    12939    2229
 
     Using Slab Decomposition
 


     bravais-lattice index     =            2
     lattice parameter (alat)  =      10.2631  a.u.
     unit-cell volume          =     270.2562 (a.u.)^3
     number of atoms/cell      =            2
     number of atomic types    =            2
     number of electrons       =         8.00
     number of Kohn-Sham states=            4
     kinetic-energy cutoff     =      50.0000  Ry
     charge density cutoff     =     200.0000  Ry
     scf convergence threshold =      1.0E-08
     mixing beta               =       0.0010
     number of iterations used =            8  TF        mixing
     energy convergence thresh.=      1.0E-04
     force convergence thresh. =      1.0E-03
     press convergence thresh. =      5.0E-01
     Exchange-correlation= SLA  PW   SCAN SCAN
                           (   0   0   0   0   0 263 267)
     nstep                     =           50


     celldm(1)=  10.263100  celldm(2)=   0.000000  celldm(3)=   0.000000
     celldm(4)=   0.000000  celldm(5)=   0.000000  celldm(6)=   0.000000

     crystal axes: (cart. coord. in units of alat)
               a(1) = (  -0.500000   0.000000   0.500000 )  
               a(2) = (   0.000000   0.500000   0.500000 )  
               a(3) = (  -0.500000   0.500000   0.000000 )  

     reciprocal axes: (cart. coord. in units 2 pi/alat)
               b(1) = ( -1.000000 -1.000000  1.000000 )  
               b(2) = (  1.000000  1.000000  1.000000 )  
               b(3) = ( -1.000000  1.000000 -1.000000 )  


     PseudoPot. # 1 for Si read from file:
     ~/Documents/TA/PWDFT.jl/pseudopotentials/scan_upf/Si.SCAN.UPF2
     MD5 check sum: Not computed, couldn't open file
     Pseudo is Norm-conserving, Zval =  4.0
     Generated by new atomic code, or converted to UPF format
     Using radial grid of 1475 points,  2 beta functions with: 
                l(1) =   0
                l(2) =   1

     PseudoPot. # 2 for C  read from file:
     ~/Documents/TA/PWDFT.jl/pseudopotentials/scan_upf/C.SCAN.UPF2
     MD5 check sum: Not computed, couldn't open file
     Pseudo is Norm-conserving, Zval =  4.0
     Generated by new atomic code, or converted to UPF format
     Using radial grid of 1389 points,  1 beta functions with: 
                l(1) =   0

     atomic species   valence    mass     pseudopotential
        Si             4.00    28.08550     Si( 1.00)
        C              4.00    12.01100     C ( 1.00)

     24 Sym. Ops. (no inversion) found



   Cartesian axes

     site n.     atom                  positions (alat units)
         1           Si  tau(   1) = (   0.0000000   0.0000000   0.0000000  )
         2           C   tau(   2) = (   0.2500000   0.2500000   0.2500000  )

     number of k points=    47
                       cart. coord. in units 2pi/alat
        k(    1) = (   0.0000000   0.0000000   0.0000000), wk =   0.0020000
        k(    2) = (  -0.1000000   0.1000000  -0.1000000), wk =   0.0160000
        k(    3) = (  -0.2000000   0.2000000  -0.2000000), wk =   0.0160000
        k(    4) = (  -0.3000000   0.3000000  -0.3000000), wk =   0.0160000
        k(    5) = (  -0.4000000   0.4000000  -0.4000000), wk =   0.0160000
        k(    6) = (   0.5000000  -0.5000000   0.5000000), wk =   0.0080000
        k(    7) = (   0.0000000   0.2000000   0.0000000), wk =   0.0120000
        k(    8) = (  -0.1000000   0.3000000  -0.1000000), wk =   0.0480000
        k(    9) = (  -0.2000000   0.4000000  -0.2000000), wk =   0.0480000
        k(   10) = (  -0.3000000   0.5000000  -0.3000000), wk =   0.0480000
        k(   11) = (   0.6000000  -0.4000000   0.6000000), wk =   0.0480000
        k(   12) = (   0.5000000  -0.3000000   0.5000000), wk =   0.0480000
        k(   13) = (   0.4000000  -0.2000000   0.4000000), wk =   0.0480000
        k(   14) = (   0.3000000  -0.1000000   0.3000000), wk =   0.0480000
        k(   15) = (   0.2000000   0.0000000   0.2000000), wk =   0.0240000
        k(   16) = (   0.0000000   0.4000000   0.0000000), wk =   0.0120000
        k(   17) = (  -0.1000000   0.5000000  -0.1000000), wk =   0.0480000
        k(   18) = (  -0.2000000   0.6000000  -0.2000000), wk =   0.0480000
        k(   19) = (   0.7000000  -0.3000000   0.7000000), wk =   0.0480000
        k(   20) = (   0.6000000  -0.2000000   0.6000000), wk =   0.0480000
        k(   21) = (   0.5000000  -0.1000000   0.5000000), wk =   0.0480000
        k(   22) = (   0.4000000   0.0000000   0.4000000), wk =   0.0240000
        k(   23) = (   0.0000000   0.6000000   0.0000000), wk =   0.0120000
        k(   24) = (  -0.1000000   0.7000000  -0.1000000), wk =   0.0480000
        k(   25) = (   0.8000000  -0.2000000   0.8000000), wk =   0.0480000
        k(   26) = (   0.7000000  -0.1000000   0.7000000), wk =   0.0480000
        k(   27) = (   0.6000000  -0.0000000   0.6000000), wk =   0.0240000
        k(   28) = (   0.0000000   0.8000000   0.0000000), wk =   0.0120000
        k(   29) = (   0.9000000  -0.1000000   0.9000000), wk =   0.0480000
        k(   30) = (   0.8000000   0.0000000   0.8000000), wk =   0.0240000
        k(   31) = (   0.0000000  -1.0000000   0.0000000), wk =   0.0060000
        k(   32) = (  -0.2000000   0.4000000   0.0000000), wk =   0.0480000
        k(   33) = (  -0.3000000   0.5000000  -0.1000000), wk =   0.0960000
        k(   34) = (   0.6000000  -0.4000000   0.8000000), wk =   0.0960000
        k(   35) = (   0.5000000  -0.3000000   0.7000000), wk =   0.0480000
        k(   36) = (  -0.2000000   0.6000000   0.0000000), wk =   0.0480000
        k(   37) = (   0.7000000  -0.3000000   0.9000000), wk =   0.0960000
        k(   38) = (   0.6000000  -0.2000000   0.8000000), wk =   0.0960000
        k(   39) = (   0.5000000  -0.1000000   0.7000000), wk =   0.0960000
        k(   40) = (   0.4000000   0.0000000   0.6000000), wk =   0.0480000
        k(   41) = (   0.8000000  -0.2000000   1.0000000), wk =   0.0480000
        k(   42) = (   0.7000000  -0.1000000   0.9000000), wk =   0.0960000
        k(   43) = (   0.6000000   0.0000000   0.8000000), wk =   0.0480000
        k(   44) = (  -0.2000000  -1.0000000   0.0000000), wk =   0.0240000
        k(   45) = (   0.6000000  -0.2000000   1.0000000), wk =   0.0480000
        k(   46) = (   0.5000000  -0.1000000   0.9000000), wk =   0.0480000
        k(   47) = (  -0.4000000  -1.0000000   0.0000000), wk =   0.0240000

     Dense  grid:    12939 G-vectors     FFT dimensions: (  36,  36,  36)

     Estimated max dynamical RAM per process >       2.98 MB

     Estimated total dynamical RAM >      23.88 MB

     WARNING: libxc functional with ID  263 depends
      on external parameters: check the user_guide of
      QE if you need to modify them or to check their
      default values.

     Initial potential from superposition of free atoms

     starting charge       7.9995, renormalised to       8.0000
     Starting wfcs are   13 randomized atomic wfcs

     total cpu time spent up to now is        0.6 secs

     Self-consistent Calculation

     iteration #  1     ecut=    50.00 Ry     beta= 0.00
     PPCG style diagonalization
     ethr =  1.00E-02,  avg # of iterations =  3.7

     total cpu time spent up to now is        1.4 secs

     total energy              =     -19.00898402 Ry
     estimated scf accuracy    <       1.03504655 Ry

     iteration #  2     ecut=    50.00 Ry     beta= 0.00
     PPCG style diagonalization
     ethr =  1.00E-02,  avg # of iterations =  2.0

     total cpu time spent up to now is        1.7 secs

     total energy              =     -18.92874277 Ry
     estimated scf accuracy    <       1.03317227 Ry

     iteration #  3     ecut=    50.00 Ry     beta= 0.00
     PPCG style diagonalization
     ethr =  1.00E-02,  avg # of iterations =  5.0

     total cpu time spent up to now is        2.5 secs

     total energy              =     -18.99429179 Ry
     estimated scf accuracy    <       0.28593669 Ry

     iteration #  4     ecut=    50.00 Ry     beta= 0.00
     PPCG style diagonalization
     ethr =  3.57E-03,  avg # of iterations =  4.0

     total cpu time spent up to now is        3.2 secs

     total energy              =     -18.99825760 Ry
     estimated scf accuracy    <       0.08097197 Ry

     iteration #  5     ecut=    50.00 Ry     beta= 0.00
     PPCG style diagonalization
     ethr =  1.01E-03,  avg # of iterations =  2.4

     total cpu time spent up to now is        3.6 secs

     total energy              =     -19.00822971 Ry
     estimated scf accuracy    <       0.08505967 Ry

     iteration #  6     ecut=    50.00 Ry     beta= 0.00
     PPCG style diagonalization
     ethr =  1.01E-03,  avg # of iterations =  5.0

     total cpu time spent up to now is        4.3 secs

     total energy              =     -18.97315150 Ry
     estimated scf accuracy    <       0.25636361 Ry

     iteration #  7     ecut=    50.00 Ry     beta= 0.00
     PPCG style diagonalization
     ethr =  1.01E-03,  avg # of iterations =  6.0

     total cpu time spent up to now is        5.2 secs

     total energy              =     -18.99709230 Ry
     estimated scf accuracy    <       0.04762318 Ry

     iteration #  8     ecut=    50.00 Ry     beta= 0.00
     PPCG style diagonalization
     ethr =  5.95E-04,  avg # of iterations =  4.0

     total cpu time spent up to now is        5.8 secs

     total energy              =     -18.99748716 Ry
     estimated scf accuracy    <       0.01075378 Ry

     iteration #  9     ecut=    50.00 Ry     beta= 0.00
     PPCG style diagonalization
     ethr =  1.34E-04,  avg # of iterations =  2.8

     total cpu time spent up to now is        6.3 secs

     total energy              =     -18.99691321 Ry
     estimated scf accuracy    <       0.00886213 Ry

     iteration # 10     ecut=    50.00 Ry     beta= 0.00
     PPCG style diagonalization
     ethr =  1.11E-04,  avg # of iterations =  5.0

     total cpu time spent up to now is        7.0 secs

     total energy              =     -18.99676135 Ry
     estimated scf accuracy    <       0.00184072 Ry

     iteration # 11     ecut=    50.00 Ry     beta= 0.00
     PPCG style diagonalization
     ethr =  2.30E-05,  avg # of iterations =  5.6

     total cpu time spent up to now is        7.9 secs

     total energy              =     -18.99711149 Ry
     estimated scf accuracy    <       0.00073859 Ry

     iteration # 12     ecut=    50.00 Ry     beta= 0.00
     PPCG style diagonalization
     ethr =  9.23E-06,  avg # of iterations =  2.1

     total cpu time spent up to now is        8.2 secs

     total energy              =     -18.99711710 Ry
     estimated scf accuracy    <       0.00072928 Ry

     iteration # 13     ecut=    50.00 Ry     beta= 0.00
     PPCG style diagonalization
     ethr =  9.12E-06,  avg # of iterations =  2.9

     total cpu time spent up to now is        8.7 secs

     total energy              =     -18.99703448 Ry
     estimated scf accuracy    <       0.00066364 Ry

     iteration # 14     ecut=    50.00 Ry     beta= 0.00
     PPCG style diagonalization
     ethr =  8.30E-06,  avg # of iterations =  5.0

     total cpu time spent up to now is        9.4 secs

     total energy              =     -18.99708290 Ry
     estimated scf accuracy    <       0.00000515 Ry

     iteration # 15     ecut=    50.00 Ry     beta= 0.00
     PPCG style diagonalization
     ethr =  6.43E-08,  avg # of iterations =  5.1

     total cpu time spent up to now is       10.2 secs

     total energy              =     -18.99708783 Ry
     estimated scf accuracy    <       0.00000863 Ry

     iteration # 16     ecut=    50.00 Ry     beta= 0.00
     PPCG style diagonalization
     ethr =  6.43E-08,  avg # of iterations =  5.8

     total cpu time spent up to now is       11.1 secs

     total energy              =     -18.99708542 Ry
     estimated scf accuracy    <       0.00007574 Ry

     iteration # 17     ecut=    50.00 Ry     beta= 0.00
     PPCG style diagonalization
     ethr =  6.43E-08,  avg # of iterations =  5.0

     total cpu time spent up to now is       11.8 secs

     total energy              =     -18.99707804 Ry
     estimated scf accuracy    <       0.00004143 Ry

     iteration # 18     ecut=    50.00 Ry     beta= 0.00
     PPCG style diagonalization
     ethr =  6.43E-08,  avg # of iterations =  6.0

     total cpu time spent up to now is       12.7 secs

     total energy              =     -18.99708177 Ry
     estimated scf accuracy    <       0.00000162 Ry

     iteration # 19     ecut=    50.00 Ry     beta= 0.00
     PPCG style diagonalization
     ethr =  2.03E-08,  avg # of iterations =  5.0

     total cpu time spent up to now is       13.5 secs

     total energy              =     -18.99708176 Ry
     estimated scf accuracy    <       0.00000012 Ry

     iteration # 20     ecut=    50.00 Ry     beta= 0.00
     PPCG style diagonalization
     ethr =  1.48E-09,  avg # of iterations =  5.1

     total cpu time spent up to now is       14.2 secs

     total energy              =     -18.99708171 Ry
     estimated scf accuracy    <       0.00000013 Ry

     iteration # 21     ecut=    50.00 Ry     beta= 0.00
     PPCG style diagonalization
     ethr =  1.48E-09,  avg # of iterations =  5.9

     total cpu time spent up to now is       15.1 secs

     total energy              =     -18.99708175 Ry
     estimated scf accuracy    <       0.00000003 Ry

     iteration # 22     ecut=    50.00 Ry     beta= 0.00
     PPCG style diagonalization
     ethr =  3.48E-10,  avg # of iterations =  4.0

     total cpu time spent up to now is       15.7 secs

     total energy              =     -18.99708175 Ry
     estimated scf accuracy    <       0.00000001 Ry

     iteration # 23     ecut=    50.00 Ry     beta= 0.00
     PPCG style diagonalization
     ethr =  1.66E-10,  avg # of iterations =  5.0

     total cpu time spent up to now is       16.5 secs

     total energy              =     -18.99708175 Ry
     estimated scf accuracy    <       0.00000002 Ry

     iteration # 24     ecut=    50.00 Ry     beta= 0.00
     PPCG style diagonalization
     ethr =  1.66E-10,  avg # of iterations =  2.7

     total cpu time spent up to now is       17.0 secs

     total energy              =     -18.99708176 Ry
     estimated scf accuracy    <       0.00000002 Ry

     iteration # 25     ecut=    50.00 Ry     beta= 0.00
     PPCG style diagonalization
     ethr =  1.66E-10,  avg # of iterations =  6.0

     total cpu time spent up to now is       17.9 secs

     total energy              =     -18.99708173 Ry
     estimated scf accuracy    <       0.00000024 Ry

     iteration # 26     ecut=    50.00 Ry     beta= 0.00
     PPCG style diagonalization
     ethr =  1.66E-10,  avg # of iterations =  6.1

     total cpu time spent up to now is       18.8 secs

     End of self-consistent calculation

          k = 0.0000 0.0000 0.0000 (  1639 PWs)   bands (ev):

    -9.0402   2.3835   2.8221   2.8221

          k =-0.1000 0.1000-0.1000 (  1606 PWs)   bands (ev):

    -8.9293   1.1571   2.7204   2.7204

          k =-0.2000 0.2000-0.2000 (  1606 PWs)   bands (ev):

    -8.6086  -0.3480   2.4831   2.4831

          k =-0.3000 0.3000-0.3000 (  1615 PWs)   bands (ev):

    -8.1240  -1.7638   2.2360   2.2360

          k =-0.4000 0.4000-0.4000 (  1616 PWs)   bands (ev):

    -7.6035  -2.8739   2.0633   2.0633

          k = 0.5000-0.5000 0.5000 (  1622 PWs)   bands (ev):

    -7.3466  -3.3325   2.0018   2.0018

          k = 0.0000 0.2000 0.0000 (  1599 PWs)   bands (ev):

    -8.8921   1.0406   2.5220   2.5220

          k =-0.1000 0.3000-0.1000 (  1609 PWs)   bands (ev):

    -8.6401  -0.0676   2.2323   2.2637

          k =-0.2000 0.4000-0.2000 (  1607 PWs)   bands (ev):

    -8.2055  -1.3917   1.9156   1.9843

          k =-0.3000 0.5000-0.3000 (  1610 PWs)   bands (ev):

    -7.6796  -2.5659   1.5754   1.8476

          k = 0.6000-0.4000 0.6000 (  1609 PWs)   bands (ev):

    -7.2975  -3.2577   1.3448   1.8489

          k = 0.5000-0.3000 0.5000 (  1616 PWs)   bands (ev):

    -7.3877  -3.1032   1.2717   1.9830

          k = 0.4000-0.2000 0.4000 (  1621 PWs)   bands (ev):

    -7.8573  -2.2050   1.3801   2.2199

          k = 0.3000-0.1000 0.3000 (  1605 PWs)   bands (ev):

    -8.3689  -0.9634   1.6835   2.4997

          k = 0.2000 0.0000 0.2000 (  1592 PWs)   bands (ev):

    -8.7479   0.2896   2.1860   2.7086

          k = 0.0000 0.4000 0.0000 (  1607 PWs)   bands (ev):

    -8.4597  -0.4643   1.9005   1.9005

          k =-0.1000 0.5000-0.1000 (  1612 PWs)   bands (ev):

    -8.0890  -1.3789   1.4890   1.6238

          k =-0.2000 0.6000-0.2000 (  1619 PWs)   bands (ev):

    -7.5946  -2.3838   0.9532   1.4802

          k = 0.7000-0.3000 0.7000 (  1606 PWs)   bands (ev):

    -7.1515  -3.1330   0.5085   1.4971

          k = 0.6000-0.2000 0.6000 (  1596 PWs)   bands (ev):

    -7.0797  -3.2398   0.2822   1.6676

          k = 0.5000-0.1000 0.5000 (  1610 PWs)   bands (ev):

    -7.4502  -2.6463   0.3527   1.9530

          k = 0.4000 0.0000 0.4000 (  1610 PWs)   bands (ev):

    -7.9533  -1.7678   0.8145   2.2755

          k = 0.0000 0.6000 0.0000 (  1620 PWs)   bands (ev):

    -7.7880  -1.8887   1.3118   1.3118

          k =-0.1000 0.7000-0.1000 (  1625 PWs)   bands (ev):

    -7.3545  -2.6106   0.8595   1.1363

          k = 0.8000-0.2000 0.8000 (  1619 PWs)   bands (ev):

    -6.9245  -3.2156   0.2244   1.1307

          k = 0.7000-0.1000 0.7000 (  1621 PWs)   bands (ev):

    -6.7622  -3.4079  -0.2165   1.2946

          k = 0.6000-0.0000 0.6000 (  1608 PWs)   bands (ev):

    -7.0102  -3.1099  -0.2204   1.5962

          k = 0.0000 0.8000 0.0000 (  1624 PWs)   bands (ev):

    -7.0078  -3.1162   0.9188   0.9188

          k = 0.9000-0.1000 0.9000 (  1623 PWs)   bands (ev):

    -6.6811  -3.5300   0.5199   0.8737

          k = 0.8000 0.0000 0.8000 (  1622 PWs)   bands (ev):

    -6.5782  -3.6027  -0.0429   1.0073

          k = 0.0000-1.0000 0.0000 (  1604 PWs)   bands (ev):

    -6.5651  -3.7075   0.7839   0.7839

          k =-0.2000 0.4000 0.0000 (  1613 PWs)   bands (ev):

    -8.3288  -0.9155   1.5194   2.1829

          k =-0.3000 0.5000-0.1000 (  1609 PWs)   bands (ev):

    -7.8601  -1.9613   0.9805   1.9379

          k = 0.6000-0.4000 0.8000 (  1618 PWs)   bands (ev):

    -7.3603  -2.8891   0.6860   1.7005

          k = 0.5000-0.3000 0.7000 (  1608 PWs)   bands (ev):

    -7.1156  -3.2889   0.5955   1.6075

          k =-0.2000 0.6000 0.0000 (  1617 PWs)   bands (ev):

    -7.6838  -2.1115   0.9241   1.4289

          k = 0.7000-0.3000 0.9000 (  1621 PWs)   bands (ev):

    -7.2067  -2.8584   0.3998   1.2051

          k = 0.6000-0.2000 0.8000 (  1613 PWs)   bands (ev):

    -6.8789  -3.3158   0.0358   1.1644

          k = 0.5000-0.1000 0.7000 (  1613 PWs)   bands (ev):

    -6.9738  -3.1833  -0.0537   1.3380

          k = 0.4000 0.0000 0.6000 (  1607 PWs)   bands (ev):

    -7.3969  -2.6079   0.2459   1.6500

          k = 0.8000-0.2000 1.0000 (  1621 PWs)   bands (ev):

    -6.9516  -3.1579   0.5723   0.8340

          k = 0.7000-0.1000 0.9000 (  1625 PWs)   bands (ev):

    -6.6509  -3.4955   0.0632   0.7640

          k = 0.6000 0.0000 0.8000 (  1614 PWs)   bands (ev):

    -6.6679  -3.4562  -0.2577   0.9736

          k =-0.2000-1.0000 0.0000 (  1624 PWs)   bands (ev):

    -6.5518  -3.6602   0.5294   0.5413

          k = 0.6000-0.2000 1.0000 (  1616 PWs)   bands (ev):

    -6.8134  -3.2837   0.0082   0.8049

          k = 0.5000-0.1000 0.9000 (  1608 PWs)   bands (ev):

    -6.6317  -3.4744  -0.1126   0.6170

          k =-0.4000-1.0000 0.0000 (  1626 PWs)   bands (ev):

    -6.5298  -3.5777   0.1671   0.2239

     highest occupied level (ev):     2.8221

!    total energy              =     -18.99708174 Ry
     estimated scf accuracy    <          6.5E-10 Ry

     The total energy is the sum of the following terms:
     one-electron contribution =       0.17321104 Ry
     hartree contribution      =       2.92288900 Ry
     xc contribution           =      -5.29732694 Ry
     ewald contribution        =     -16.79585484 Ry

     convergence has been achieved in  26 iterations
     Writing meta-gga kinetic term

     Forces acting on atoms (cartesian axes, Ry/au):

     atom    1 type  1   force =     0.00000000    0.00000000    0.00000000
     atom    2 type  2   force =     0.00000000    0.00000000    0.00000000

     Total force =     0.000000     Total SCF correction =     0.000000


     Computing stress (Cartesian axis) and pressure

          total   stress  (Ry/bohr**3)                   (kbar)     P=     -378.55
  -0.00257331  -0.00000000  -0.00000000         -378.55       -0.00       -0.00
  -0.00000000  -0.00257331   0.00000000           -0.00     -378.55        0.00
  -0.00000000   0.00000000  -0.00257331           -0.00        0.00     -378.55


     BFGS Geometry Optimization
     Energy error            =      0.0E+00 Ry
     Gradient error          =      0.0E+00 Ry/Bohr
     Cell gradient error     =      3.8E+02 kbar

     number of scf cycles    =   1
     number of bfgs steps    =   0

     enthalpy           new  =     -18.9970817447 Ry

     new trust radius        =       0.2115188822 bohr
     new conv_thr            =       0.0000000100 Ry

     new unit-cell volume =    221.38090 a.u.^3 (    32.80526 Ang^3 )
     density =      2.02961 g/cm^3

CELL_PARAMETERS (alat= 10.26310000)
  -0.467833685   0.000000000   0.467833685
  -0.000000000   0.467833685   0.467833685
  -0.467833685   0.467833685  -0.000000000

ATOMIC_POSITIONS (alat)
Si            0.0000000000        0.0000000000        0.0000000000
C             0.2339168427        0.2339168427        0.2339168427



     Writing config-only to output data dir ./pwscf.save/
     NEW-OLD atomic charge density approx. for the potential
     extrapolated charge    6.23391, renormalised to    8.00000

     total cpu time spent up to now is       19.1 secs

     Self-consistent Calculation

     iteration #  1     ecut=    50.00 Ry     beta= 0.00
     PPCG style diagonalization
     ethr =  1.00E-06,  avg # of iterations =  8.1

     total cpu time spent up to now is       20.4 secs

     total energy              =     -18.96496355 Ry
     estimated scf accuracy    <       1.26082603 Ry

     iteration #  2     ecut=    50.00 Ry     beta= 0.00
     PPCG style diagonalization
     ethr =  1.00E-02,  avg # of iterations =  5.0

     total cpu time spent up to now is       21.1 secs

     total energy              =     -19.13009828 Ry
     estimated scf accuracy    <       0.06341520 Ry

     iteration #  3     ecut=    50.00 Ry     beta= 0.00
     PPCG style diagonalization
     ethr =  7.93E-04,  avg # of iterations =  2.8

     total cpu time spent up to now is       21.6 secs

     total energy              =     -19.13061450 Ry
     estimated scf accuracy    <       0.06510952 Ry

     iteration #  4     ecut=    50.00 Ry     beta= 0.00
     PPCG style diagonalization
     ethr =  7.93E-04,  avg # of iterations =  2.1

     total cpu time spent up to now is       22.0 secs

     total energy              =     -19.12949290 Ry
     estimated scf accuracy    <       0.06754033 Ry

     iteration #  5     ecut=    50.00 Ry     beta= 0.00
     PPCG style diagonalization
     ethr =  7.93E-04,  avg # of iterations =  4.8

     total cpu time spent up to now is       22.7 secs

     total energy              =     -19.13164188 Ry
     estimated scf accuracy    <       0.00489320 Ry

     iteration #  6     ecut=    50.00 Ry     beta= 0.00
     PPCG style diagonalization
     ethr =  6.12E-05,  avg # of iterations =  4.0

     total cpu time spent up to now is       23.3 secs

     total energy              =     -19.13153422 Ry
     estimated scf accuracy    <       0.00323191 Ry

     iteration #  7     ecut=    50.00 Ry     beta= 0.00
     PPCG style diagonalization
     ethr =  4.04E-05,  avg # of iterations =  3.0

     total cpu time spent up to now is       23.8 secs

     total energy              =     -19.13033045 Ry
     estimated scf accuracy    <       0.00267085 Ry

     iteration #  8     ecut=    50.00 Ry     beta= 0.00
     PPCG style diagonalization
     ethr =  3.34E-05,  avg # of iterations =  6.0

     total cpu time spent up to now is       24.7 secs

     total energy              =     -19.13104076 Ry
     estimated scf accuracy    <       0.00239563 Ry

     iteration #  9     ecut=    50.00 Ry     beta= 0.00
     PPCG style diagonalization
     ethr =  2.99E-05,  avg # of iterations =  2.0

     total cpu time spent up to now is       25.1 secs

     total energy              =     -19.13102341 Ry
     estimated scf accuracy    <       0.00211717 Ry

     iteration # 10     ecut=    50.00 Ry     beta= 0.00
     PPCG style diagonalization
     ethr =  2.65E-05,  avg # of iterations =  2.0

     total cpu time spent up to now is       25.4 secs

     total energy              =     -19.13088691 Ry
     estimated scf accuracy    <       0.00202235 Ry

     iteration # 11     ecut=    50.00 Ry     beta= 0.00
     PPCG style diagonalization
     ethr =  2.53E-05,  avg # of iterations =  4.1

     total cpu time spent up to now is       26.1 secs

     total energy              =     -19.13089695 Ry
     estimated scf accuracy    <       0.00037453 Ry

     iteration # 12     ecut=    50.00 Ry     beta= 0.00
     PPCG style diagonalization
     ethr =  4.68E-06,  avg # of iterations =  5.0

     total cpu time spent up to now is       26.8 secs

     total energy              =     -19.13093431 Ry
     estimated scf accuracy    <       0.00004168 Ry

     iteration # 13     ecut=    50.00 Ry     beta= 0.00
     PPCG style diagonalization
     ethr =  5.21E-07,  avg # of iterations =  3.3

     total cpu time spent up to now is       27.4 secs

     total energy              =     -19.13093575 Ry
     estimated scf accuracy    <       0.00002526 Ry

     iteration # 14     ecut=    50.00 Ry     beta= 0.00
     PPCG style diagonalization
     ethr =  3.16E-07,  avg # of iterations =  3.0

     total cpu time spent up to now is       27.8 secs

     total energy              =     -19.13092032 Ry
     estimated scf accuracy    <       0.00003455 Ry

     iteration # 15     ecut=    50.00 Ry     beta= 0.00
     PPCG style diagonalization
     ethr =  3.16E-07,  avg # of iterations =  6.0

     total cpu time spent up to now is       28.7 secs

     total energy              =     -19.13092638 Ry
     estimated scf accuracy    <       0.00003502 Ry

     iteration # 16     ecut=    50.00 Ry     beta= 0.00
     PPCG style diagonalization
     ethr =  3.16E-07,  avg # of iterations =  4.9

     total cpu time spent up to now is       29.5 secs

     total energy              =     -19.13092681 Ry
     estimated scf accuracy    <       0.00000549 Ry

     iteration # 17     ecut=    50.00 Ry     beta= 0.00
     PPCG style diagonalization
     ethr =  6.86E-08,  avg # of iterations =  2.6

     total cpu time spent up to now is       29.9 secs

     total energy              =     -19.13092629 Ry
     estimated scf accuracy    <       0.00000491 Ry

     iteration # 18     ecut=    50.00 Ry     beta= 0.00
     PPCG style diagonalization
     ethr =  6.14E-08,  avg # of iterations =  4.1

     total cpu time spent up to now is       30.5 secs

     total energy              =     -19.13092565 Ry
     estimated scf accuracy    <       0.00000179 Ry

     iteration # 19     ecut=    50.00 Ry     beta= 0.00
     PPCG style diagonalization
     ethr =  2.24E-08,  avg # of iterations =  5.0

     total cpu time spent up to now is       31.3 secs

     total energy              =     -19.13092585 Ry
     estimated scf accuracy    <       0.00000013 Ry

     iteration # 20     ecut=    50.00 Ry     beta= 0.00
     PPCG style diagonalization
     ethr =  1.57E-09,  avg # of iterations =  5.1

     total cpu time spent up to now is       32.0 secs

     total energy              =     -19.13115470 Ry
     estimated scf accuracy    <       0.00000077 Ry

     iteration # 21     ecut=    50.00 Ry     beta= 0.00
     PPCG style diagonalization
     ethr =  1.57E-09,  avg # of iterations =  3.7

     total cpu time spent up to now is       32.6 secs

     total energy              =     -19.13115475 Ry
     estimated scf accuracy    <       0.00000096 Ry

     iteration # 22     ecut=    50.00 Ry     beta= 0.00
     PPCG style diagonalization
     ethr =  1.57E-09,  avg # of iterations =  5.6

     total cpu time spent up to now is       33.5 secs

     total energy              =     -19.13115467 Ry
     estimated scf accuracy    <       0.00000021 Ry

     iteration # 23     ecut=    50.00 Ry     beta= 0.00
     PPCG style diagonalization
     ethr =  1.57E-09,  avg # of iterations =  5.5

     total cpu time spent up to now is       34.3 secs

     total energy              =     -19.13115463 Ry
     estimated scf accuracy    <       0.00000077 Ry

     iteration # 24     ecut=    50.00 Ry     beta= 0.00
     PPCG style diagonalization
     ethr =  1.57E-09,  avg # of iterations =  6.0

     total cpu time spent up to now is       35.2 secs

     total energy              =     -19.13115463 Ry
     estimated scf accuracy    <       0.00000010 Ry

     iteration # 25     ecut=    50.00 Ry     beta= 0.00
     PPCG style diagonalization
     ethr =  1.21E-09,  avg # of iterations =  5.1

     total cpu time spent up to now is       35.9 secs

     total energy              =     -19.13115464 Ry
     estimated scf accuracy    <       0.00000033 Ry

     iteration # 26     ecut=    50.00 Ry     beta= 0.00
     PPCG style diagonalization
     ethr =  1.21E-09,  avg # of iterations =  5.0

     total cpu time spent up to now is       36.7 secs

     total energy              =     -19.13115467 Ry
     estimated scf accuracy    <       0.00000010 Ry

     iteration # 27     ecut=    50.00 Ry     beta= 0.00
     PPCG style diagonalization
     ethr =  1.21E-09,  avg # of iterations =  5.0

     total cpu time spent up to now is       37.4 secs

     total energy              =     -19.13115466 Ry
     estimated scf accuracy    <       0.00000013 Ry

     iteration # 28     ecut=    50.00 Ry     beta= 0.00
     PPCG style diagonalization
     ethr =  1.21E-09,  avg # of iterations =  4.4

     total cpu time spent up to now is       38.1 secs

     total energy              =     -19.13115466 Ry
     estimated scf accuracy    <       0.00000015 Ry

     iteration # 29     ecut=    50.00 Ry     beta= 0.00
     PPCG style diagonalization
     ethr =  1.21E-09,  avg # of iterations =  4.6

     total cpu time spent up to now is       38.8 secs

     total energy              =     -19.13115466 Ry
     estimated scf accuracy    <       0.00000006 Ry

     iteration # 30     ecut=    50.00 Ry     beta= 0.00
     PPCG style diagonalization
     ethr =  6.99E-10,  avg # of iterations =  5.0

     total cpu time spent up to now is       39.5 secs

     total energy              =     -19.13115467 Ry
     estimated scf accuracy    <       0.00000001 Ry

     iteration # 31     ecut=    50.00 Ry     beta= 0.00
     PPCG style diagonalization
     ethr =  1.84E-10,  avg # of iterations =  5.0

     total cpu time spent up to now is       40.3 secs

     total energy              =     -19.13115467 Ry
     estimated scf accuracy    <       0.00000005 Ry

     iteration # 32     ecut=    50.00 Ry     beta= 0.00
     PPCG style diagonalization
     ethr =  1.84E-10,  avg # of iterations =  5.9

     total cpu time spent up to now is       41.2 secs

     End of self-consistent calculation

          k = 0.0000 0.0000 0.0000 (  1639 PWs)   bands (ev):

    -8.4713   4.4345   4.4345   4.4345

          k =-0.1069 0.1069-0.1069 (  1606 PWs)   bands (ev):

    -8.3357   3.2561   4.3188   4.3188

          k =-0.2138 0.2138-0.2138 (  1606 PWs)   bands (ev):

    -7.9413   1.4666   4.0518   4.0518

          k =-0.3206 0.3206-0.3206 (  1615 PWs)   bands (ev):

    -7.3346  -0.2595   3.7752   3.7752

          k =-0.4275 0.4275-0.4275 (  1616 PWs)   bands (ev):

    -6.6566  -1.6471   3.5822   3.5822

          k = 0.5344-0.5344 0.5344 (  1622 PWs)   bands (ev):

    -6.3031  -2.2431   3.5140   3.5140

          k = 0.0000 0.2138 0.0000 (  1599 PWs)   bands (ev):

    -8.2903   3.2521   4.0786   4.0786

          k =-0.1069 0.3206-0.1069 (  1609 PWs)   bands (ev):

    -7.9813   1.9039   3.7427   3.8336

          k =-0.2138 0.4275-0.2138 (  1607 PWs)   bands (ev):

    -7.4406   0.2628   3.4608   3.4763

          k =-0.3206 0.5344-0.3206 (  1610 PWs)   bands (ev):

    -6.7659  -1.2088   3.1048   3.3121

          k = 0.6413-0.4275 0.6413 (  1609 PWs)   bands (ev):

    -6.2483  -2.1056   2.8375   3.3241

          k = 0.5344-0.3206 0.5344 (  1616 PWs)   bands (ev):

    -6.3733  -1.9021   2.7333   3.4884

          k = 0.4275-0.2138 0.4275 (  1621 PWs)   bands (ev):

    -6.9967  -0.7531   2.8232   3.7674

          k = 0.3206-0.1069 0.3206 (  1605 PWs)   bands (ev):

    -7.6446   0.7916   3.1280   4.0873

          k = 0.2138 0.0000 0.2138 (  1592 PWs)   bands (ev):

    -8.1134   2.3022   3.6835   4.3185

          k = 0.0000 0.4275 0.0000 (  1607 PWs)   bands (ev):

    -7.7605   1.5690   3.3467   3.3467

          k =-0.1069 0.5344-0.1069 (  1612 PWs)   bands (ev):

    -7.3006   0.4515   2.8969   3.0254

          k =-0.2138 0.6413-0.2138 (  1619 PWs)   bands (ev):

    -6.6717  -0.8225   2.3020   2.8645

          k = 0.7481-0.3206 0.7481 (  1606 PWs)   bands (ev):

    -6.0799  -1.8048   1.7890   2.8936

          k = 0.6413-0.2138 0.6413 (  1596 PWs)   bands (ev):

    -5.9767  -1.9526   1.5019   3.1034

          k = 0.5344-0.1069 0.5344 (  1610 PWs)   bands (ev):

    -6.4765  -1.1689   1.5380   3.4479

          k = 0.4275 0.0000 0.4275 (  1610 PWs)   bands (ev):

    -7.1242  -0.0850   2.0565   3.8307

          k = 0.0000 0.6413 0.0000 (  1620 PWs)   bands (ev):

    -6.9276  -0.0923   2.6561   2.6561

          k =-0.1069 0.7481-0.1069 (  1625 PWs)   bands (ev):

    -6.3766  -0.9722   2.1114   2.4524

          k = 0.8550-0.2138 0.8550 (  1619 PWs)   bands (ev):

    -5.8043  -1.7385   1.3245   2.4519

          k = 0.7481-0.1069 0.7481 (  1621 PWs)   bands (ev):

    -5.5700  -1.9953   0.7641   2.6532

          k = 0.6413 0.0000 0.6413 (  1608 PWs)   bands (ev):

    -5.9010  -1.6326   0.7586   3.0173

          k = 0.0000 0.8550 0.0000 (  1624 PWs)   bands (ev):

    -5.9320  -1.5879   2.1954   2.1954

          k = 0.9619-0.1069 0.9619 (  1623 PWs)   bands (ev):

    -5.4904  -2.1124   1.6867   2.1443

          k = 0.8550 0.0000 0.8550 (  1622 PWs)   bands (ev):

    -5.3358  -2.1958   0.9526   2.3065

          k = 0.0000-1.0688 0.0000 (  1604 PWs)   bands (ev):

    -5.3321  -2.3564   2.0362   2.0362

          k =-0.2138 0.4275 0.0000 (  1613 PWs)   bands (ev):

    -7.5967   0.9467   2.8980   3.7283

          k =-0.3206 0.5344-0.1069 (  1609 PWs)   bands (ev):

    -7.0073  -0.3374   2.2991   3.4350

          k = 0.6413-0.4275 0.8550 (  1618 PWs)   bands (ev):

    -6.3544  -1.5296   2.0104   3.1409

          k = 0.5344-0.3206 0.7481 (  1608 PWs)   bands (ev):

    -6.0175  -2.0631   1.9284   3.0222

          k =-0.2138 0.6413 0.0000 (  1617 PWs)   bands (ev):

    -6.7916  -0.3978   2.1890   2.8062

          k = 0.7481-0.3206 0.9619 (  1621 PWs)   bands (ev):

    -6.1728  -1.3227   1.5706   2.5222

          k = 0.6413-0.2138 0.8550 (  1613 PWs)   bands (ev):

    -5.7241  -1.9278   1.1371   2.4710

          k = 0.5344-0.1069 0.7481 (  1613 PWs)   bands (ev):

    -5.8518  -1.7527   1.0064   2.6895

          k = 0.4275 0.0000 0.6413 (  1607 PWs)   bands (ev):

    -6.4143  -1.0365   1.3581   3.0772

          k = 0.8550-0.2138 1.0688 (  1621 PWs)   bands (ev):

    -5.8507  -1.6342   1.7601   2.0646

          k = 0.7481-0.1069 0.9619 (  1625 PWs)   bands (ev):

    -5.4362  -2.0511   1.0955   1.9815

          k = 0.6413 0.0000 0.8550 (  1614 PWs)   bands (ev):

    -5.4477  -2.0048   0.6803   2.2409

          k =-0.2138-1.0688 0.0000 (  1624 PWs)   bands (ev):

    -5.3082  -2.2743   1.6963   1.7122

          k = 0.6413-0.2138 1.0688 (  1616 PWs)   bands (ev):

    -5.6512  -1.7873   1.0396   2.0115

          k = 0.5344-0.1069 0.9619 (  1608 PWs)   bands (ev):

    -5.4011  -2.0146   0.8736   1.7740

          k =-0.4275-1.0688 0.0000 (  1626 PWs)   bands (ev):

    -5.2681  -2.1233   1.1991   1.2941

     highest occupied level (ev):     4.4345

!    total energy              =     -19.13115467 Ry
     estimated scf accuracy    <          1.8E-09 Ry

     The total energy is the sum of the following terms:
     one-electron contribution =       1.59260683 Ry
     hartree contribution      =       2.73237012 Ry
     xc contribution           =      -5.50546311 Ry
     ewald contribution        =     -17.95066851 Ry

     convergence has been achieved in  32 iterations
     Writing meta-gga kinetic term

     Forces acting on atoms (cartesian axes, Ry/au):

     atom    1 type  1   force =     0.00000000    0.00000000    0.00000000
     atom    2 type  2   force =    -0.00000000   -0.00000000   -0.00000000

     Total force =     0.000000     Total SCF correction =     0.000000


     Computing stress (Cartesian axis) and pressure

          total   stress  (Ry/bohr**3)                   (kbar)     P=     -419.83
  -0.00285393  -0.00000000  -0.00000000         -419.83       -0.00       -0.00
  -0.00000000  -0.00285393   0.00000000           -0.00     -419.83        0.00
  -0.00000000   0.00000000  -0.00285393           -0.00        0.00     -419.83

     Energy error            =      1.3E-01 Ry
     Gradient error          =      3.9E-30 Ry/Bohr
     Cell gradient error     =      4.2E+02 kbar

     number of scf cycles    =   2
     number of bfgs steps    =   1

     enthalpy           old  =     -18.9970817447 Ry
     enthalpy           new  =     -19.1311546685 Ry

     CASE: enthalpy          _new < enthalpy          _old


     WARNING: bfgs curvature condition failed, Theta= 0.824
     new trust radius        =       0.3069030073 bohr
     new conv_thr            =            1.0E-10 Ry

     new unit-cell volume =    159.70669 a.u.^3 (    23.66609 Ang^3 )
     density =      2.81338 g/cm^3

CELL_PARAMETERS (alat= 10.26310000)
  -0.419584213   0.000000000   0.419584213
  -0.000000000   0.419584213   0.419584213
  -0.419584213   0.419584213   0.000000000

ATOMIC_POSITIONS (alat)
Si            0.0000000000        0.0000000000        0.0000000000
C             0.2097921067        0.2097921067        0.2097921067



     Writing config-only to output data dir ./pwscf.save/
     NEW-OLD atomic charge density approx. for the potential

     negative rho (up,down):  1.141E-03 0.000E+00
     extrapolated charge    4.91082, renormalised to    8.00000

     total cpu time spent up to now is       41.6 secs

     Self-consistent Calculation

     iteration #  1     ecut=    50.00 Ry     beta= 0.00
     PPCG style diagonalization
     ethr =  1.00E-06,  avg # of iterations =  9.9

     negative rho (up,down):  1.853E-03 0.000E+00

     total cpu time spent up to now is       43.0 secs

     total energy              =     -18.77444982 Ry
     estimated scf accuracy    <       3.25107040 Ry

     iteration #  2     ecut=    50.00 Ry     beta= 0.00
     PPCG style diagonalization
     ethr =  1.00E-02,  avg # of iterations =  6.0

     negative rho (up,down):  1.850E-03 0.000E+00

     total cpu time spent up to now is       43.9 secs

     total energy              =     -19.15489985 Ry
     estimated scf accuracy    <       0.29493815 Ry

     iteration #  3     ecut=    50.00 Ry     beta= 0.00
     PPCG style diagonalization
     ethr =  3.69E-03,  avg # of iterations =  2.1

     negative rho (up,down):  1.651E-03 0.000E+00

     total cpu time spent up to now is       44.3 secs

     total energy              =     -18.96177584 Ry
     estimated scf accuracy    <       0.29440230 Ry

     iteration #  4     ecut=    50.00 Ry     beta= 0.00
     PPCG style diagonalization
     ethr =  3.68E-03,  avg # of iterations =  6.9

     negative rho (up,down):  1.872E-03 0.000E+00

     total cpu time spent up to now is       45.3 secs

     total energy              =     -18.98679333 Ry
     estimated scf accuracy    <       0.09276406 Ry

     iteration #  5     ecut=    50.00 Ry     beta= 0.00
     PPCG style diagonalization
     ethr =  1.16E-03,  avg # of iterations =  6.5

     negative rho (up,down):  2.076E-03 0.000E+00

     total cpu time spent up to now is       46.3 secs

     total energy              =     -18.66184006 Ry
     estimated scf accuracy    <       0.01242458 Ry

     iteration #  6     ecut=    50.00 Ry     beta= 0.00
     PPCG style diagonalization
     ethr =  1.55E-04,  avg # of iterations =  9.7

     negative rho (up,down):  2.097E-03 0.000E+00

     total cpu time spent up to now is       47.6 secs

     total energy              =     -18.67815049 Ry
     estimated scf accuracy    <       0.15689119 Ry

     iteration #  7     ecut=    50.00 Ry     beta= 0.00
     PPCG style diagonalization
     ethr =  1.55E-04,  avg # of iterations =  8.0

     negative rho (up,down):  2.041E-03 0.000E+00

     total cpu time spent up to now is       48.8 secs

     total energy              =     -19.10377604 Ry
     estimated scf accuracy    <       0.02049711 Ry

     iteration #  8     ecut=    50.00 Ry     beta= 0.00
     PPCG style diagonalization
     ethr =  1.55E-04,  avg # of iterations =  5.0

     negative rho (up,down):  2.010E-03 0.000E+00

     total cpu time spent up to now is       49.6 secs

     total energy              =     -19.03882549 Ry
     estimated scf accuracy    <       0.01744590 Ry

     iteration #  9     ecut=    50.00 Ry     beta= 0.00
     PPCG style diagonalization
     ethr =  1.55E-04,  avg # of iterations =  7.4

     negative rho (up,down):  2.009E-03 0.000E+00

     total cpu time spent up to now is       50.7 secs

     total energy              =     -19.07109874 Ry
     estimated scf accuracy    <       0.03231607 Ry

     iteration # 10     ecut=    50.00 Ry     beta= 0.00
     PPCG style diagonalization
     ethr =  1.55E-04,  avg # of iterations =  5.9

     negative rho (up,down):  2.149E-03 0.000E+00

     total cpu time spent up to now is       51.5 secs

     total energy              =     -18.89396254 Ry
     estimated scf accuracy    <       0.02528530 Ry

     iteration # 11     ecut=    50.00 Ry     beta= 0.00
     PPCG style diagonalization
     ethr =  1.55E-04,  avg # of iterations =  7.9

     negative rho (up,down):  2.124E-03 0.000E+00

     total cpu time spent up to now is       52.7 secs

     total energy              =     -19.02818489 Ry
     estimated scf accuracy    <       0.04749978 Ry

     iteration # 12     ecut=    50.00 Ry     beta= 0.00
     PPCG style diagonalization
     ethr =  1.55E-04,  avg # of iterations =  7.0

     negative rho (up,down):  1.600E-03 0.000E+00

     total cpu time spent up to now is       53.8 secs

     total energy              =     -19.12229784 Ry
     estimated scf accuracy    <       0.02005121 Ry

     iteration # 13     ecut=    50.00 Ry     beta= 0.00
     PPCG style diagonalization
     ethr =  1.55E-04,  avg # of iterations =  6.0

     negative rho (up,down):  1.484E-03 0.000E+00

     total cpu time spent up to now is       54.7 secs

     total energy              =     -19.16549414 Ry
     estimated scf accuracy    <       0.02203092 Ry

     iteration # 14     ecut=    50.00 Ry     beta= 0.00
     PPCG style diagonalization
     ethr =  1.55E-04,  avg # of iterations =  6.0

     negative rho (up,down):  7.281E-04 0.000E+00

     total cpu time spent up to now is       55.6 secs

     total energy              =     -19.13954489 Ry
     estimated scf accuracy    <       0.01597560 Ry

     iteration # 15     ecut=    50.00 Ry     beta= 0.00
     PPCG style diagonalization
     ethr =  1.55E-04,  avg # of iterations =  9.2

     negative rho (up,down):  7.236E-04 0.000E+00

     total cpu time spent up to now is       56.9 secs

     total energy              =     -19.28979136 Ry
     estimated scf accuracy    <       0.14808266 Ry

     iteration # 16     ecut=    50.00 Ry     beta= 0.00
     PPCG style diagonalization
     ethr =  1.55E-04,  avg # of iterations =  6.3

     negative rho (up,down):  6.739E-04 0.000E+00

     total cpu time spent up to now is       57.8 secs

     total energy              =    -110.30886499 Ry
     estimated scf accuracy    <       0.09926494 Ry

     iteration # 17     ecut=    50.00 Ry     beta= 0.00
     PPCG style diagonalization
     ethr =  1.55E-04,  avg # of iterations = 22.0

     negative rho (up,down):  4.832E-04 0.000E+00

     total cpu time spent up to now is       60.9 secs

     total energy              =     304.23424247 Ry
     estimated scf accuracy    <    6379.60452511 Ry

     iteration # 18     ecut=    50.00 Ry     beta= 0.00
     PPCG style diagonalization
     ethr =  1.55E-04,  avg # of iterations = 10.8

     negative rho (up,down):  5.860E-04 0.000E+00

     total cpu time spent up to now is       62.5 secs

     total energy              =     -19.13549213 Ry
     estimated scf accuracy    <       0.00300917 Ry

     iteration # 19     ecut=    50.00 Ry     beta= 0.00
     PPCG style diagonalization
     ethr =  3.76E-05,  avg # of iterations =  8.0

     negative rho (up,down):  6.304E-04 0.000E+00

     total cpu time spent up to now is       63.7 secs

     total energy              =     -19.20569459 Ry
     estimated scf accuracy    <       0.01273662 Ry

     iteration # 20     ecut=    50.00 Ry     beta= 0.00
     PPCG style diagonalization
     ethr =  3.76E-05,  avg # of iterations =  7.0

     negative rho (up,down):  6.414E-04 0.000E+00

     total cpu time spent up to now is       64.8 secs

     total energy              =     -19.21477995 Ry
     estimated scf accuracy    <       0.00707974 Ry

     iteration # 21     ecut=    50.00 Ry     beta= 0.00
     PPCG style diagonalization
     ethr =  3.76E-05,  avg # of iterations =  7.0

     negative rho (up,down):  8.150E-04 0.000E+00

     total cpu time spent up to now is       65.9 secs

     total energy              =     -19.20566633 Ry
     estimated scf accuracy    <       0.01360959 Ry

     iteration # 22     ecut=    50.00 Ry     beta= 0.00
     PPCG style diagonalization
     ethr =  3.76E-05,  avg # of iterations =  7.0

     negative rho (up,down):  2.437E-04 0.000E+00

     total cpu time spent up to now is       67.0 secs

     total energy              =     -19.24996453 Ry
     estimated scf accuracy    <       0.00693013 Ry

     iteration # 23     ecut=    50.00 Ry     beta= 0.00
     PPCG style diagonalization
     ethr =  3.76E-05,  avg # of iterations =  6.0

     negative rho (up,down):  2.239E-04 0.000E+00

     total cpu time spent up to now is       67.9 secs

     total energy              =     -19.14154894 Ry
     estimated scf accuracy    <       0.00627308 Ry

     iteration # 24     ecut=    50.00 Ry     beta= 0.00
     PPCG style diagonalization
     ethr =  3.76E-05,  avg # of iterations =  9.7

     negative rho (up,down):  4.198E-04 0.000E+00

     total cpu time spent up to now is       69.4 secs

     total energy              =     -18.70314852 Ry
     estimated scf accuracy    <       0.21133377 Ry

     iteration # 25     ecut=    50.00 Ry     beta= 0.00
     PPCG style diagonalization
     ethr =  3.76E-05,  avg # of iterations =  8.0

     negative rho (up,down):  2.400E-04 0.000E+00

     total cpu time spent up to now is       70.5 secs

     total energy              =     -19.26954987 Ry
     estimated scf accuracy    <       0.00527861 Ry

     iteration # 26     ecut=    50.00 Ry     beta= 0.00
     PPCG style diagonalization
     ethr =  3.76E-05,  avg # of iterations =  6.0

     negative rho (up,down):  2.729E-04 0.000E+00

     total cpu time spent up to now is       71.4 secs

     total energy              =     -19.26219445 Ry
     estimated scf accuracy    <       0.00758759 Ry

     iteration # 27     ecut=    50.00 Ry     beta= 0.00
     PPCG style diagonalization
     ethr =  3.76E-05,  avg # of iterations =  5.0

     negative rho (up,down):  2.569E-04 0.000E+00

     total cpu time spent up to now is       72.1 secs

     total energy              =     -19.26947734 Ry
     estimated scf accuracy    <       0.00710483 Ry

     iteration # 28     ecut=    50.00 Ry     beta= 0.00
     PPCG style diagonalization
     ethr =  3.76E-05,  avg # of iterations =  5.0

     negative rho (up,down):  2.087E-04 0.000E+00

     total cpu time spent up to now is       72.9 secs

     total energy              =     -19.27434969 Ry
     estimated scf accuracy    <       0.00725854 Ry

     iteration # 29     ecut=    50.00 Ry     beta= 0.00
     PPCG style diagonalization
     ethr =  3.76E-05,  avg # of iterations =  5.0

     negative rho (up,down):  2.136E-04 0.000E+00

     total cpu time spent up to now is       73.7 secs

     total energy              =     -19.26078318 Ry
     estimated scf accuracy    <       0.00577783 Ry

     iteration # 30     ecut=    50.00 Ry     beta= 0.00
     PPCG style diagonalization
     ethr =  3.76E-05,  avg # of iterations =  5.0

     negative rho (up,down):  2.568E-04 0.000E+00

     total cpu time spent up to now is       74.5 secs

     total energy              =     -19.27171781 Ry
     estimated scf accuracy    <       0.00635784 Ry

     iteration # 31     ecut=    50.00 Ry     beta= 0.00
     PPCG style diagonalization
     ethr =  3.76E-05,  avg # of iterations =  6.0

     negative rho (up,down):  2.411E-04 0.000E+00

     total cpu time spent up to now is       75.4 secs

     total energy              =     -19.28032173 Ry
     estimated scf accuracy    <       0.00495736 Ry

     iteration # 32     ecut=    50.00 Ry     beta= 0.00
     PPCG style diagonalization
     ethr =  3.76E-05,  avg # of iterations =  3.0

     negative rho (up,down):  2.939E-04 0.000E+00

     total cpu time spent up to now is       75.9 secs

     total energy              =     -19.27529634 Ry
     estimated scf accuracy    <       0.00486189 Ry

     iteration # 33     ecut=    50.00 Ry     beta= 0.00
     PPCG style diagonalization
     ethr =  3.76E-05,  avg # of iterations =  5.0

     negative rho (up,down):  2.718E-04 0.000E+00

     total cpu time spent up to now is       76.6 secs

     total energy              =     -19.27051800 Ry
     estimated scf accuracy    <       0.00573522 Ry

     iteration # 34     ecut=    50.00 Ry     beta= 0.00
     PPCG style diagonalization
     ethr =  3.76E-05,  avg # of iterations =  6.1

     negative rho (up,down):  3.401E-04 0.000E+00

     total cpu time spent up to now is       77.5 secs

     total energy              =     -19.26954123 Ry
     estimated scf accuracy    <       0.01252676 Ry

     iteration # 35     ecut=    50.00 Ry     beta= 0.00
     PPCG style diagonalization
     ethr =  3.76E-05,  avg # of iterations =  6.0

     negative rho (up,down):  3.285E-04 0.000E+00

     total cpu time spent up to now is       78.4 secs

     total energy              =     -19.27979864 Ry
     estimated scf accuracy    <       0.00499199 Ry

     iteration # 36     ecut=    50.00 Ry     beta= 0.00
     PPCG style diagonalization
     ethr =  3.76E-05,  avg # of iterations =  4.0

     negative rho (up,down):  3.386E-04 0.000E+00

     total cpu time spent up to now is       79.0 secs

     total energy              =     -19.26905227 Ry
     estimated scf accuracy    <       0.00444979 Ry

     iteration # 37     ecut=    50.00 Ry     beta= 0.00
     PPCG style diagonalization
     ethr =  3.76E-05,  avg # of iterations =  5.0

     negative rho (up,down):  2.326E-04 0.000E+00

     total cpu time spent up to now is       79.8 secs

     total energy              =     -19.27821121 Ry
     estimated scf accuracy    <       0.00757687 Ry

     iteration # 38     ecut=    50.00 Ry     beta= 0.00
     PPCG style diagonalization
     ethr =  3.76E-05,  avg # of iterations =  5.0

     negative rho (up,down):  7.686E-05 0.000E+00

     total cpu time spent up to now is       80.5 secs

     total energy              =     -19.27661619 Ry
     estimated scf accuracy    <       0.00646690 Ry

     iteration # 39     ecut=    50.00 Ry     beta= 0.00
     PPCG style diagonalization
     ethr =  3.76E-05,  avg # of iterations =  4.0

     negative rho (up,down):  2.686E-04 0.000E+00

     total cpu time spent up to now is       81.1 secs

     total energy              =     -19.25904141 Ry
     estimated scf accuracy    <       0.00651146 Ry

     iteration # 40     ecut=    50.00 Ry     beta= 0.00
     PPCG style diagonalization
     ethr =  3.76E-05,  avg # of iterations =  7.0

     negative rho (up,down):  1.192E-03 0.000E+00

     total cpu time spent up to now is       82.2 secs

     total energy              =     -19.18669270 Ry
     estimated scf accuracy    <       0.02955766 Ry

     iteration # 41     ecut=    50.00 Ry     beta= 0.00
     PPCG style diagonalization
     ethr =  3.76E-05,  avg # of iterations =  6.6

     negative rho (up,down):  4.112E-04 0.000E+00

     total cpu time spent up to now is       83.1 secs

     total energy              =     -19.27542744 Ry
     estimated scf accuracy    <       0.00549029 Ry

     iteration # 42     ecut=    50.00 Ry     beta= 0.00
     PPCG style diagonalization
     ethr =  3.76E-05,  avg # of iterations =  5.0

     negative rho (up,down):  4.401E-04 0.000E+00

     total cpu time spent up to now is       83.9 secs

     total energy              =     -19.24036744 Ry
     estimated scf accuracy    <       0.00723212 Ry

     iteration # 43     ecut=    50.00 Ry     beta= 0.00
     PPCG style diagonalization
     ethr =  3.76E-05,  avg # of iterations =  6.0

     negative rho (up,down):  5.180E-04 0.000E+00

     total cpu time spent up to now is       84.8 secs

     total energy              =     -19.26302569 Ry
     estimated scf accuracy    <       0.00968858 Ry

     iteration # 44     ecut=    50.00 Ry     beta= 0.00
     PPCG style diagonalization
     ethr =  3.76E-05,  avg # of iterations =  6.0

     negative rho (up,down):  4.123E-04 0.000E+00

     total cpu time spent up to now is       85.7 secs

     total energy              =     -19.33842935 Ry
     estimated scf accuracy    <       0.00856140 Ry

     iteration # 45     ecut=    50.00 Ry     beta= 0.00
     PPCG style diagonalization
     ethr =  3.76E-05,  avg # of iterations = 22.0

     negative rho (up,down):  2.618E-04 0.000E+00

     total cpu time spent up to now is       88.9 secs

     total energy              =     203.11543179 Ry
     estimated scf accuracy    <    7069.17606041 Ry

     iteration # 46     ecut=    50.00 Ry     beta= 0.00
     PPCG style diagonalization
     ethr =  3.76E-05,  avg # of iterations = 21.3

     negative rho (up,down):  1.742E-04 0.000E+00

     total cpu time spent up to now is       91.9 secs

     total energy              =     165.31298393 Ry
     estimated scf accuracy    <    6409.54989850 Ry

     iteration # 47     ecut=    50.00 Ry     beta= 0.00
     PPCG style diagonalization
     ethr =  3.76E-05,  avg # of iterations = 11.6

     negative rho (up,down):  1.815E-04 0.000E+00

     total cpu time spent up to now is       93.6 secs

     total energy              =     -19.32129948 Ry
     estimated scf accuracy    <       0.00629106 Ry

     iteration # 48     ecut=    50.00 Ry     beta= 0.00
     PPCG style diagonalization
     ethr =  3.76E-05,  avg # of iterations = 15.0

     negative rho (up,down):  2.581E-04 0.000E+00

     total cpu time spent up to now is       95.7 secs

     total energy              =     145.61965623 Ry
     estimated scf accuracy    <    5156.77999793 Ry

     iteration # 49     ecut=    50.00 Ry     beta= 0.00
     PPCG style diagonalization
     ethr =  3.76E-05,  avg # of iterations = 11.1

     negative rho (up,down):  2.211E-03 0.000E+00

     total cpu time spent up to now is       97.4 secs

     total energy              =     -18.84254639 Ry
     estimated scf accuracy    <       0.00598093 Ry

     iteration # 50     ecut=    50.00 Ry     beta= 0.00
     PPCG style diagonalization
     ethr =  3.76E-05,  avg # of iterations = 17.0

     negative rho (up,down):  1.714E-04 0.000E+00

     total cpu time spent up to now is       99.8 secs

     total energy              =     124.71887416 Ry
     estimated scf accuracy    <    1790.46256589 Ry

     iteration # 51     ecut=    50.00 Ry     beta= 0.00
     PPCG style diagonalization
     ethr =  3.76E-05,  avg # of iterations = 10.5

     negative rho (up,down):  9.253E-05 0.000E+00

     total cpu time spent up to now is      101.3 secs

     total energy              =     -19.27100269 Ry
     estimated scf accuracy    <       0.00540810 Ry

     iteration # 52     ecut=    50.00 Ry     beta= 0.00
     PPCG style diagonalization
     ethr =  3.76E-05,  avg # of iterations =  5.0

     total cpu time spent up to now is      102.0 secs

     total energy              =     -19.27452691 Ry
     estimated scf accuracy    <       0.00604432 Ry

     iteration # 53     ecut=    50.00 Ry     beta= 0.00
     PPCG style diagonalization
     ethr =  3.76E-05,  avg # of iterations =  5.0

     negative rho (up,down):  2.053E-04 0.000E+00

     total cpu time spent up to now is      102.8 secs

     total energy              =     -19.27757034 Ry
     estimated scf accuracy    <       0.00647451 Ry

     iteration # 54     ecut=    50.00 Ry     beta= 0.00
     PPCG style diagonalization
     ethr =  3.76E-05,  avg # of iterations =  5.0

     negative rho (up,down):  1.430E-04 0.000E+00

     total cpu time spent up to now is      103.6 secs

     total energy              =     -19.27991207 Ry
     estimated scf accuracy    <       0.00518436 Ry

     iteration # 55     ecut=    50.00 Ry     beta= 0.00
     PPCG style diagonalization
     ethr =  3.76E-05,  avg # of iterations =  5.0

     negative rho (up,down):  3.250E-04 0.000E+00

     total cpu time spent up to now is      104.3 secs

     total energy              =     -19.27181014 Ry
     estimated scf accuracy    <       0.00491071 Ry

     iteration # 56     ecut=    50.00 Ry     beta= 0.00
     PPCG style diagonalization
     ethr =  3.76E-05,  avg # of iterations =  6.0

     negative rho (up,down):  2.928E-05 0.000E+00

     total cpu time spent up to now is      105.2 secs

     total energy              =     -19.27764483 Ry
     estimated scf accuracy    <       0.00788086 Ry

     iteration # 57     ecut=    50.00 Ry     beta= 0.00
     PPCG style diagonalization
     ethr =  3.76E-05,  avg # of iterations =  6.0

     negative rho (up,down):  3.033E-04 0.000E+00

     total cpu time spent up to now is      106.3 secs

     total energy              =     -19.27194688 Ry
     estimated scf accuracy    <       0.01103370 Ry

     iteration # 58     ecut=    50.00 Ry     beta= 0.00
     PPCG style diagonalization
     ethr =  3.76E-05,  avg # of iterations =  6.0

     negative rho (up,down):  1.290E-04 0.000E+00

     total cpu time spent up to now is      107.1 secs

     total energy              =     -19.27450669 Ry
     estimated scf accuracy    <       0.00372930 Ry

     iteration # 59     ecut=    50.00 Ry     beta= 0.00
     PPCG style diagonalization
     ethr =  3.76E-05,  avg # of iterations =  5.0

     negative rho (up,down):  2.481E-04 0.000E+00

     total cpu time spent up to now is      107.9 secs

     total energy              =     -19.27535072 Ry
     estimated scf accuracy    <       0.00169214 Ry

     iteration # 60     ecut=    50.00 Ry     beta= 0.00
     PPCG style diagonalization
     ethr =  2.12E-05,  avg # of iterations =  6.0

     negative rho (up,down):  3.661E-04 0.000E+00

     total cpu time spent up to now is      108.8 secs

     total energy              =     -19.27220546 Ry
     estimated scf accuracy    <       0.00506715 Ry

     iteration # 61     ecut=    50.00 Ry     beta= 0.00
     PPCG style diagonalization
     ethr =  2.12E-05,  avg # of iterations =  5.0

     negative rho (up,down):  3.339E-04 0.000E+00

     total cpu time spent up to now is      109.6 secs

     total energy              =     -19.27219670 Ry
     estimated scf accuracy    <       0.00571940 Ry

     iteration # 62     ecut=    50.00 Ry     beta= 0.00
     PPCG style diagonalization
     ethr =  2.12E-05,  avg # of iterations =  4.0

     negative rho (up,down):  4.012E-04 0.000E+00

     total cpu time spent up to now is      110.2 secs

     total energy              =     -19.27329200 Ry
     estimated scf accuracy    <       0.00552571 Ry

     iteration # 63     ecut=    50.00 Ry     beta= 0.00
     PPCG style diagonalization
     ethr =  2.12E-05,  avg # of iterations =  4.0

     negative rho (up,down):  3.948E-04 0.000E+00

     total cpu time spent up to now is      110.8 secs

     total energy              =     -19.27390699 Ry
     estimated scf accuracy    <       0.00640738 Ry

     iteration # 64     ecut=    50.00 Ry     beta= 0.00
     PPCG style diagonalization
     ethr =  2.12E-05,  avg # of iterations =  4.0

     negative rho (up,down):  3.491E-04 0.000E+00

     total cpu time spent up to now is      111.4 secs

     total energy              =     -19.27272844 Ry
     estimated scf accuracy    <       0.00608489 Ry

     iteration # 65     ecut=    50.00 Ry     beta= 0.00
     PPCG style diagonalization
     ethr =  2.12E-05,  avg # of iterations =  5.0

     negative rho (up,down):  2.930E-04 0.000E+00

     total cpu time spent up to now is      112.2 secs

     total energy              =     -19.27196590 Ry
     estimated scf accuracy    <       0.00441548 Ry

     iteration # 66     ecut=    50.00 Ry     beta= 0.00
     PPCG style diagonalization
     ethr =  2.12E-05,  avg # of iterations =  6.1

     negative rho (up,down):  2.850E-04 0.000E+00

     total cpu time spent up to now is      113.1 secs

     total energy              =     -19.27287456 Ry
     estimated scf accuracy    <       0.00841547 Ry

     iteration # 67     ecut=    50.00 Ry     beta= 0.00
     PPCG style diagonalization
     ethr =  2.12E-05,  avg # of iterations =  6.0

     negative rho (up,down):  2.635E-04 0.000E+00

     total cpu time spent up to now is      114.0 secs

     total energy              =     -19.27856600 Ry
     estimated scf accuracy    <       0.00305863 Ry

     iteration # 68     ecut=    50.00 Ry     beta= 0.00
     PPCG style diagonalization
     ethr =  2.12E-05,  avg # of iterations =  4.0

     negative rho (up,down):  2.567E-04 0.000E+00

     total cpu time spent up to now is      114.6 secs

     total energy              =     -19.27761936 Ry
     estimated scf accuracy    <       0.00302477 Ry

     iteration # 69     ecut=    50.00 Ry     beta= 0.00
     PPCG style diagonalization
     ethr =  2.12E-05,  avg # of iterations =  4.0

     negative rho (up,down):  1.431E-04 0.000E+00

     total cpu time spent up to now is      115.2 secs

     total energy              =     -19.26960829 Ry
     estimated scf accuracy    <       0.00290952 Ry

     iteration # 70     ecut=    50.00 Ry     beta= 0.00
     PPCG style diagonalization
     ethr =  2.12E-05,  avg # of iterations =  5.9

     negative rho (up,down):  2.401E-04 0.000E+00

     total cpu time spent up to now is      116.1 secs

     total energy              =     -19.27489700 Ry
     estimated scf accuracy    <       0.00361272 Ry

     iteration # 71     ecut=    50.00 Ry     beta= 0.00
     PPCG style diagonalization
     ethr =  2.12E-05,  avg # of iterations =  5.0

     negative rho (up,down):  1.507E-04 0.000E+00

     total cpu time spent up to now is      116.8 secs

     total energy              =     -19.27335682 Ry
     estimated scf accuracy    <       0.00290684 Ry

     iteration # 72     ecut=    50.00 Ry     beta= 0.00
     PPCG style diagonalization
     ethr =  2.12E-05,  avg # of iterations =  5.0

     negative rho (up,down):  1.679E-04 0.000E+00

     total cpu time spent up to now is      117.6 secs

     total energy              =     -19.24979018 Ry
     estimated scf accuracy    <       0.00296863 Ry

     iteration # 73     ecut=    50.00 Ry     beta= 0.00
     PPCG style diagonalization
     ethr =  2.12E-05,  avg # of iterations =  6.4

     negative rho (up,down):  2.033E-04 0.000E+00

     total cpu time spent up to now is      118.6 secs

     total energy              =     -19.26746105 Ry
     estimated scf accuracy    <       0.00762751 Ry

     iteration # 74     ecut=    50.00 Ry     beta= 0.00
     PPCG style diagonalization
     ethr =  2.12E-05,  avg # of iterations =  6.0

     negative rho (up,down):  2.098E-04 0.000E+00

     total cpu time spent up to now is      119.4 secs

     total energy              =     -19.28185880 Ry
     estimated scf accuracy    <       0.00458857 Ry

     iteration # 75     ecut=    50.00 Ry     beta= 0.00
     PPCG style diagonalization
     ethr =  2.12E-05,  avg # of iterations =  6.6

     negative rho (up,down):  2.838E-04 0.000E+00

     total cpu time spent up to now is      120.4 secs

     total energy              =     -19.25529180 Ry
     estimated scf accuracy    <       0.01445526 Ry

     iteration # 76     ecut=    50.00 Ry     beta= 0.00
     PPCG style diagonalization
     ethr =  2.12E-05,  avg # of iterations =  6.6

     negative rho (up,down):  2.672E-04 0.000E+00

     total cpu time spent up to now is      121.4 secs

     total energy              =     -19.27583004 Ry
     estimated scf accuracy    <       0.00529203 Ry

     iteration # 77     ecut=    50.00 Ry     beta= 0.00
     PPCG style diagonalization
     ethr =  2.12E-05,  avg # of iterations =  5.3

     negative rho (up,down):  2.335E-04 0.000E+00

     total cpu time spent up to now is      122.1 secs

     total energy              =     -19.27783145 Ry
     estimated scf accuracy    <       0.00290393 Ry

     iteration # 78     ecut=    50.00 Ry     beta= 0.00
     PPCG style diagonalization
     ethr =  2.12E-05,  avg # of iterations =  4.0

     negative rho (up,down):  2.971E-04 0.000E+00

     total cpu time spent up to now is      122.7 secs

     total energy              =     -19.27212519 Ry
     estimated scf accuracy    <       0.00286234 Ry

     iteration # 79     ecut=    50.00 Ry     beta= 0.00
     PPCG style diagonalization
     ethr =  2.12E-05,  avg # of iterations =  5.0

     negative rho (up,down):  1.433E-04 0.000E+00

     total cpu time spent up to now is      123.5 secs

     total energy              =     -19.27669478 Ry
     estimated scf accuracy    <       0.00369900 Ry

     iteration # 80     ecut=    50.00 Ry     beta= 0.00
     PPCG style diagonalization
     ethr =  2.12E-05,  avg # of iterations =  5.0

     negative rho (up,down):  1.602E-04 0.000E+00

     total cpu time spent up to now is      124.2 secs

     total energy              =     -19.27448002 Ry
     estimated scf accuracy    <       0.00261372 Ry

     iteration # 81     ecut=    50.00 Ry     beta= 0.00
     PPCG style diagonalization
     ethr =  2.12E-05,  avg # of iterations =  4.0

     negative rho (up,down):  1.673E-04 0.000E+00

     total cpu time spent up to now is      124.9 secs

     total energy              =     -19.13508858 Ry
     estimated scf accuracy    <       0.00360467 Ry

     iteration # 82     ecut=    50.00 Ry     beta= 0.00
     PPCG style diagonalization
     ethr =  2.12E-05,  avg # of iterations = 17.1

     negative rho (up,down):  1.546E-04 0.000E+00

     total cpu time spent up to now is      127.3 secs

     total energy              =     124.75501942 Ry
     estimated scf accuracy    <    3751.75650767 Ry

     iteration # 83     ecut=    50.00 Ry     beta= 0.00
     PPCG style diagonalization
     ethr =  2.12E-05,  avg # of iterations = 12.1

     negative rho (up,down):  1.326E-04 0.000E+00

     total cpu time spent up to now is      129.1 secs

     total energy              =     -19.27707388 Ry
     estimated scf accuracy    <       0.00235368 Ry

     iteration # 84     ecut=    50.00 Ry     beta= 0.00
     PPCG style diagonalization
     ethr =  2.12E-05,  avg # of iterations =  5.0

     negative rho (up,down):  1.362E-04 0.000E+00

     total cpu time spent up to now is      129.8 secs

     total energy              =     -19.27801776 Ry
     estimated scf accuracy    <       0.00237676 Ry

     iteration # 85     ecut=    50.00 Ry     beta= 0.00
     PPCG style diagonalization
     ethr =  2.12E-05,  avg # of iterations =  4.0

     negative rho (up,down):  1.062E-04 0.000E+00

     total cpu time spent up to now is      130.4 secs

     total energy              =     -19.24440888 Ry
     estimated scf accuracy    <       0.00280998 Ry

     iteration # 86     ecut=    50.00 Ry     beta= 0.00
     PPCG style diagonalization
     ethr =  2.12E-05,  avg # of iterations =  7.0

     negative rho (up,down):  1.364E-04 0.000E+00

     total cpu time spent up to now is      131.5 secs

     total energy              =     -19.24749798 Ry
     estimated scf accuracy    <       0.01332226 Ry

     iteration # 87     ecut=    50.00 Ry     beta= 0.00
     PPCG style diagonalization
     ethr =  2.12E-05,  avg # of iterations =  7.0

     negative rho (up,down):  1.854E-04 0.000E+00

     total cpu time spent up to now is      132.5 secs

     total energy              =     -19.26399852 Ry
     estimated scf accuracy    <       0.00278710 Ry

     iteration # 88     ecut=    50.00 Ry     beta= 0.00
     PPCG style diagonalization
     ethr =  2.12E-05,  avg # of iterations =  7.0

     negative rho (up,down):  1.432E-04 0.000E+00

     total cpu time spent up to now is      133.5 secs

     total energy              =     -19.24419470 Ry
     estimated scf accuracy    <       0.01280247 Ry

     iteration # 89     ecut=    50.00 Ry     beta= 0.00
     PPCG style diagonalization
     ethr =  2.12E-05,  avg # of iterations =  6.8

     negative rho (up,down):  1.407E-04 0.000E+00

     total cpu time spent up to now is      134.5 secs

     total energy              =     -19.27430118 Ry
     estimated scf accuracy    <       0.00179536 Ry

     iteration # 90     ecut=    50.00 Ry     beta= 0.00
     PPCG style diagonalization
     ethr =  2.12E-05,  avg # of iterations =  4.0

     negative rho (up,down):  1.449E-04 0.000E+00

     total cpu time spent up to now is      135.1 secs

     total energy              =     -19.27554586 Ry
     estimated scf accuracy    <       0.00211385 Ry

     iteration # 91     ecut=    50.00 Ry     beta= 0.00
     PPCG style diagonalization
     ethr =  2.12E-05,  avg # of iterations =  5.0

     negative rho (up,down):  1.742E-04 0.000E+00

     total cpu time spent up to now is      135.9 secs

     total energy              =     -19.26796942 Ry
     estimated scf accuracy    <       0.00163584 Ry

     iteration # 92     ecut=    50.00 Ry     beta= 0.00
     PPCG style diagonalization
     ethr =  2.04E-05,  avg # of iterations =  5.4

     negative rho (up,down):  1.623E-04 0.000E+00

     total cpu time spent up to now is      136.8 secs

     total energy              =     -19.27086388 Ry
     estimated scf accuracy    <       0.00265689 Ry

     iteration # 93     ecut=    50.00 Ry     beta= 0.00
     PPCG style diagonalization
     ethr =  2.04E-05,  avg # of iterations =  6.0

     negative rho (up,down):  1.438E-04 0.000E+00

     total cpu time spent up to now is      137.6 secs

     total energy              =     -19.27211413 Ry
     estimated scf accuracy    <       0.00480454 Ry

     iteration # 94     ecut=    50.00 Ry     beta= 0.00
     PPCG style diagonalization
     ethr =  2.04E-05,  avg # of iterations =  6.0

     negative rho (up,down):  1.344E-04 0.000E+00

     total cpu time spent up to now is      138.5 secs

     total energy              =     -19.26795235 Ry
     estimated scf accuracy    <       0.00213031 Ry

     iteration # 95     ecut=    50.00 Ry     beta= 0.00
     PPCG style diagonalization
     ethr =  2.04E-05,  avg # of iterations =  5.0

     negative rho (up,down):  1.613E-04 0.000E+00

     total cpu time spent up to now is      139.3 secs

     total energy              =     -19.27450252 Ry
     estimated scf accuracy    <       0.00249333 Ry

     iteration # 96     ecut=    50.00 Ry     beta= 0.00
     PPCG style diagonalization
     ethr =  2.04E-05,  avg # of iterations =  5.0

     negative rho (up,down):  2.103E-04 0.000E+00

     total cpu time spent up to now is      140.0 secs

     total energy              =     -19.27765523 Ry
     estimated scf accuracy    <       0.00209839 Ry

     iteration # 97     ecut=    50.00 Ry     beta= 0.00
     PPCG style diagonalization
     ethr =  2.04E-05,  avg # of iterations =  5.0

     negative rho (up,down):  1.712E-04 0.000E+00

     total cpu time spent up to now is      140.8 secs

     total energy              =     -19.20756037 Ry
     estimated scf accuracy    <       0.00286107 Ry

     iteration # 98     ecut=    50.00 Ry     beta= 0.00
     PPCG style diagonalization
     ethr =  2.04E-05,  avg # of iterations = 13.1

     negative rho (up,down):  1.443E-04 0.000E+00

     total cpu time spent up to now is      142.7 secs

     total energy              =      -7.32891968 Ry
     estimated scf accuracy    <      21.95343981 Ry

     iteration # 99     ecut=    50.00 Ry     beta= 0.00
     PPCG style diagonalization
     ethr =  2.04E-05,  avg # of iterations =  9.9

     negative rho (up,down):  1.321E-04 0.000E+00

     total cpu time spent up to now is      144.1 secs

     total energy              =     -19.08723125 Ry
     estimated scf accuracy    <       0.02841101 Ry

     iteration #100     ecut=    50.00 Ry     beta= 0.00
     PPCG style diagonalization
     ethr =  2.04E-05,  avg # of iterations =  4.0

     negative rho (up,down):  1.699E-04 0.000E+00

     total cpu time spent up to now is      144.7 secs

     total energy              =     -19.09271293 Ry
     estimated scf accuracy    <       0.02733679 Ry

     iteration #101     ecut=    50.00 Ry     beta= 0.00
     PPCG style diagonalization
     ethr =  2.04E-05,  avg # of iterations =  5.0

     negative rho (up,down):  1.574E-04 0.000E+00

     total cpu time spent up to now is      145.5 secs

     total energy              =     -19.09210725 Ry
     estimated scf accuracy    <       0.02949049 Ry

     iteration #102     ecut=    50.00 Ry     beta= 0.00
     PPCG style diagonalization
     ethr =  2.04E-05,  avg # of iterations =  4.9

     negative rho (up,down):  1.436E-04 0.000E+00

     total cpu time spent up to now is      146.3 secs

     total energy              =     -19.09337101 Ry
     estimated scf accuracy    <       0.02774763 Ry

     iteration #103     ecut=    50.00 Ry     beta= 0.00
     PPCG style diagonalization
     ethr =  2.04E-05,  avg # of iterations =  5.2

     negative rho (up,down):  1.597E-04 0.000E+00

     total cpu time spent up to now is      147.0 secs

     total energy              =     -19.09746190 Ry
     estimated scf accuracy    <       0.01693110 Ry

     iteration #104     ecut=    50.00 Ry     beta= 0.00
     PPCG style diagonalization
     ethr =  2.04E-05,  avg # of iterations =  5.0

     negative rho (up,down):  1.113E-04 0.000E+00

     total cpu time spent up to now is      147.8 secs

     total energy              =     -19.09666156 Ry
     estimated scf accuracy    <       0.02169872 Ry

     iteration #105     ecut=    50.00 Ry     beta= 0.00
     PPCG style diagonalization
     ethr =  2.04E-05,  avg # of iterations =  4.3

     negative rho (up,down):  2.491E-04 0.000E+00

     total cpu time spent up to now is      148.5 secs

     total energy              =     -19.11287829 Ry
     estimated scf accuracy    <       0.01763004 Ry

     iteration #106     ecut=    50.00 Ry     beta= 0.00
     PPCG style diagonalization
     ethr =  2.04E-05,  avg # of iterations =  5.4

     negative rho (up,down):  7.992E-05 0.000E+00

     total cpu time spent up to now is      149.3 secs

     total energy              =     -19.14783642 Ry
     estimated scf accuracy    <       0.01021580 Ry

     iteration #107     ecut=    50.00 Ry     beta= 0.00
     PPCG style diagonalization
     ethr =  2.04E-05,  avg # of iterations =  6.3

     negative rho (up,down):  1.176E-04 0.000E+00

     total cpu time spent up to now is      150.2 secs

     total energy              =     -19.20746992 Ry
     estimated scf accuracy    <       0.00273807 Ry

     iteration #108     ecut=    50.00 Ry     beta= 0.00
     PPCG style diagonalization
     ethr =  2.04E-05,  avg # of iterations =  6.1

     negative rho (up,down):  1.900E-04 0.000E+00

     total cpu time spent up to now is      151.1 secs

     total energy              =     -19.19779244 Ry
     estimated scf accuracy    <       0.00295831 Ry

     iteration #109     ecut=    50.00 Ry     beta= 0.00
     PPCG style diagonalization
     ethr =  2.04E-05,  avg # of iterations =  6.9

     negative rho (up,down):  4.291E-04 0.000E+00

     total cpu time spent up to now is      152.1 secs

     total energy              =     -19.20329554 Ry
     estimated scf accuracy    <       0.01032504 Ry

     iteration #110     ecut=    50.00 Ry     beta= 0.00
     PPCG style diagonalization
     ethr =  2.04E-05,  avg # of iterations =  7.3

     negative rho (up,down):  2.196E-04 0.000E+00

     total cpu time spent up to now is      153.2 secs

[...]
     ethr =  5.01E-06,  avg # of iterations =  7.0

     total cpu time spent up to now is      265.7 secs

     total energy              =     -19.27594880 Ry
     estimated scf accuracy    <       0.00097724 Ry

     iteration #248     ecut=    50.00 Ry     beta= 0.00
     PPCG style diagonalization
     ethr =  5.01E-06,  avg # of iterations =  5.0

     negative rho (up,down):  6.397E-06 0.000E+00

     total cpu time spent up to now is      266.5 secs

     total energy              =     -19.27376918 Ry
     estimated scf accuracy    <       0.00084096 Ry

     iteration #249     ecut=    50.00 Ry     beta= 0.00
     PPCG style diagonalization
     ethr =  5.01E-06,  avg # of iterations =  4.0

     negative rho (up,down):  4.020E-05 0.000E+00

     total cpu time spent up to now is      267.1 secs

     total energy              =     -19.25717742 Ry
     estimated scf accuracy    <       0.00077728 Ry

     iteration #250     ecut=    50.00 Ry     beta= 0.00
     PPCG style diagonalization
     ethr =  5.01E-06,  avg # of iterations =  6.0

     negative rho (up,down):  2.790E-05 0.000E+00

     total cpu time spent up to now is      268.0 secs

     total energy              =     -19.25910361 Ry
     estimated scf accuracy    <       0.00052586 Ry

     iteration #251     ecut=    50.00 Ry     beta= 0.00
     PPCG style diagonalization
     ethr =  5.01E-06,  avg # of iterations =  5.0

     negative rho (up,down):  5.134E-06 0.000E+00

     total cpu time spent up to now is      268.8 secs

     total energy              =     -19.27075657 Ry
     estimated scf accuracy    <       0.00047017 Ry

     iteration #252     ecut=    50.00 Ry     beta= 0.00
     PPCG style diagonalization
     ethr =  5.01E-06,  avg # of iterations =  5.2

     negative rho (up,down):  1.217E-05 0.000E+00

     total cpu time spent up to now is      269.5 secs

     total energy              =     -19.24518956 Ry
     estimated scf accuracy    <       0.00071552 Ry

     iteration #253     ecut=    50.00 Ry     beta= 0.00
     PPCG style diagonalization
     ethr =  5.01E-06,  avg # of iterations =  6.0

     negative rho (up,down):  1.531E-05 0.000E+00

     total cpu time spent up to now is      270.4 secs

     total energy              =     -19.23402301 Ry
     estimated scf accuracy    <       0.00039074 Ry

     iteration #254     ecut=    50.00 Ry     beta= 0.00
     PPCG style diagonalization
     ethr =  4.88E-06,  avg # of iterations =  6.0

     negative rho (up,down):  3.937E-07 0.000E+00

     total cpu time spent up to now is      271.3 secs

     total energy              =     -19.26494520 Ry
     estimated scf accuracy    <       0.00045893 Ry

     iteration #255     ecut=    50.00 Ry     beta= 0.00
     PPCG style diagonalization
     ethr =  4.88E-06,  avg # of iterations =  7.0

     negative rho (up,down):  6.947E-06 0.000E+00

     total cpu time spent up to now is      272.4 secs

     total energy              =     -19.25220579 Ry
     estimated scf accuracy    <       0.00110508 Ry

     iteration #256     ecut=    50.00 Ry     beta= 0.00
     PPCG style diagonalization
     ethr =  4.88E-06,  avg # of iterations =  6.0

     total cpu time spent up to now is      273.3 secs

     total energy              =     -19.27556938 Ry
     estimated scf accuracy    <       0.00058885 Ry

     iteration #257     ecut=    50.00 Ry     beta= 0.00
     PPCG style diagonalization
     ethr =  4.88E-06,  avg # of iterations =  6.0

     negative rho (up,down):  5.090E-05 0.000E+00

     total cpu time spent up to now is      274.1 secs

     total energy              =     -19.25926691 Ry
     estimated scf accuracy    <       0.00116677 Ry

     iteration #258     ecut=    50.00 Ry     beta= 0.00
     PPCG style diagonalization
     ethr =  4.88E-06,  avg # of iterations =  6.0

     total cpu time spent up to now is      275.0 secs

     total energy              =     -19.27899913 Ry
     estimated scf accuracy    <       0.00051844 Ry

     iteration #259     ecut=    50.00 Ry     beta= 0.00
     PPCG style diagonalization
     ethr =  4.88E-06,  avg # of iterations =  6.0

     total cpu time spent up to now is      275.9 secs

     total energy              =     -19.28429890 Ry
     estimated scf accuracy    <       0.00108862 Ry

     iteration #260     ecut=    50.00 Ry     beta= 0.00
     PPCG style diagonalization
     ethr =  4.88E-06,  avg # of iterations =  5.0

     total cpu time spent up to now is      276.7 secs

     total energy              =     -19.28509167 Ry
     estimated scf accuracy    <       0.00129036 Ry

     iteration #261     ecut=    50.00 Ry     beta= 0.00
     PPCG style diagonalization
     ethr =  4.88E-06,  avg # of iterations =  4.0

     total cpu time spent up to now is      277.3 secs

     total energy              =     -19.27871771 Ry
     estimated scf accuracy    <       0.00150983 Ry

     iteration #262     ecut=    50.00 Ry     beta= 0.00
     PPCG style diagonalization
     ethr =  4.88E-06,  avg # of iterations =  5.9

     negative rho (up,down):  4.708E-05 0.000E+00

     total cpu time spent up to now is      278.2 secs

     total energy              =     -19.24646028 Ry
     estimated scf accuracy    <       0.00109622 Ry

     iteration #263     ecut=    50.00 Ry     beta= 0.00
     PPCG style diagonalization
     ethr =  4.88E-06,  avg # of iterations =  6.1

     total cpu time spent up to now is      279.1 secs

     total energy              =     -19.27450547 Ry
     estimated scf accuracy    <       0.00044914 Ry

     iteration #264     ecut=    50.00 Ry     beta= 0.00
     PPCG style diagonalization
     ethr =  4.88E-06,  avg # of iterations =  6.1

     negative rho (up,down):  2.228E-04 0.000E+00

     total cpu time spent up to now is      280.0 secs

     total energy              =     -19.22861433 Ry
     estimated scf accuracy    <       0.00100520 Ry

     iteration #265     ecut=    50.00 Ry     beta= 0.00
     PPCG style diagonalization
     ethr =  4.88E-06,  avg # of iterations =  6.1

     total cpu time spent up to now is      280.9 secs

     total energy              =     -19.27299075 Ry
     estimated scf accuracy    <       0.00052797 Ry

     iteration #266     ecut=    50.00 Ry     beta= 0.00
     PPCG style diagonalization
     ethr =  4.88E-06,  avg # of iterations =  7.0

     total cpu time spent up to now is      281.9 secs

     total energy              =     -19.27132825 Ry
     estimated scf accuracy    <       0.00120360 Ry

     iteration #267     ecut=    50.00 Ry     beta= 0.00
     PPCG style diagonalization
     ethr =  4.88E-06,  avg # of iterations =  6.0

     total cpu time spent up to now is      282.8 secs

     total energy              =     -19.23971019 Ry
     estimated scf accuracy    <       0.00059708 Ry

     iteration #268     ecut=    50.00 Ry     beta= 0.00
     PPCG style diagonalization
     ethr =  4.88E-06,  avg # of iterations =  6.6

     negative rho (up,down):  2.911E-06 0.000E+00

     total cpu time spent up to now is      283.8 secs

     total energy              =     -19.26417868 Ry
     estimated scf accuracy    <       0.00064298 Ry

     iteration #269     ecut=    50.00 Ry     beta= 0.00
     PPCG style diagonalization
     ethr =  4.88E-06,  avg # of iterations =  6.5

     total cpu time spent up to now is      284.7 secs

     total energy              =     -19.28208324 Ry
     estimated scf accuracy    <       0.00051913 Ry

     iteration #270     ecut=    50.00 Ry     beta= 0.00
     PPCG style diagonalization
     ethr =  4.88E-06,  avg # of iterations =  6.0

     total cpu time spent up to now is      285.6 secs

     total energy              =     -19.28498634 Ry
     estimated scf accuracy    <       0.00128978 Ry

     iteration #271     ecut=    50.00 Ry     beta= 0.00
     PPCG style diagonalization
     ethr =  4.88E-06,  avg # of iterations =  5.0

     negative rho (up,down):  3.149E-06 0.000E+00

     total cpu time spent up to now is      286.4 secs

     total energy              =     -19.26397748 Ry
     estimated scf accuracy    <       0.00184262 Ry

     iteration #272     ecut=    50.00 Ry     beta= 0.00
     PPCG style diagonalization
     ethr =  4.88E-06,  avg # of iterations =  6.0

     total cpu time spent up to now is      287.3 secs

     total energy              =     -19.27929189 Ry
     estimated scf accuracy    <       0.00070856 Ry

     iteration #273     ecut=    50.00 Ry     beta= 0.00
     PPCG style diagonalization
     ethr =  4.88E-06,  avg # of iterations =  6.0

     total cpu time spent up to now is      288.2 secs

     total energy              =     -19.26882172 Ry
     estimated scf accuracy    <       0.00106820 Ry

     iteration #274     ecut=    50.00 Ry     beta= 0.00
     PPCG style diagonalization
     ethr =  4.88E-06,  avg # of iterations =  6.0

     negative rho (up,down):  6.169E-05 0.000E+00

     total cpu time spent up to now is      289.1 secs

     total energy              =     -19.14900722 Ry
     estimated scf accuracy    <       0.00075342 Ry

     iteration #275     ecut=    50.00 Ry     beta= 0.00
     PPCG style diagonalization
     ethr =  4.88E-06,  avg # of iterations =  7.0

     negative rho (up,down):  5.578E-05 0.000E+00

     total cpu time spent up to now is      290.1 secs

     total energy              =     -19.24260101 Ry
     estimated scf accuracy    <       0.00079259 Ry

     iteration #276     ecut=    50.00 Ry     beta= 0.00
     PPCG style diagonalization
     ethr =  4.88E-06,  avg # of iterations =  6.2

     negative rho (up,down):  2.879E-05 0.000E+00

     total cpu time spent up to now is      291.0 secs

     total energy              =     -19.25677487 Ry
     estimated scf accuracy    <       0.00042998 Ry

     iteration #277     ecut=    50.00 Ry     beta= 0.00
     PPCG style diagonalization
     ethr =  4.88E-06,  avg # of iterations =  5.0

     negative rho (up,down):  8.702E-05 0.000E+00

     total cpu time spent up to now is      291.8 secs

     total energy              =     -19.24197063 Ry
     estimated scf accuracy    <       0.00041902 Ry

     iteration #278     ecut=    50.00 Ry     beta= 0.00
     PPCG style diagonalization
     ethr =  4.88E-06,  avg # of iterations =  6.0

     total cpu time spent up to now is      292.7 secs

     total energy              =     -19.27446021 Ry
     estimated scf accuracy    <       0.00048205 Ry

     iteration #279     ecut=    50.00 Ry     beta= 0.00
     PPCG style diagonalization
     ethr =  4.88E-06,  avg # of iterations =  7.0

     negative rho (up,down):  8.848E-05 0.000E+00

     total cpu time spent up to now is      293.7 secs

     total energy              =     -19.25410271 Ry
     estimated scf accuracy    <       0.00154220 Ry

     iteration #280     ecut=    50.00 Ry     beta= 0.00
     PPCG style diagonalization
     ethr =  4.88E-06,  avg # of iterations =  6.9

     negative rho (up,down):  6.492E-06 0.000E+00

     total cpu time spent up to now is      294.7 secs

     total energy              =     -19.19735517 Ry
     estimated scf accuracy    <       0.00238172 Ry

     iteration #281     ecut=    50.00 Ry     beta= 0.00
     PPCG style diagonalization
     ethr =  4.88E-06,  avg # of iterations =  7.0

     total cpu time spent up to now is      295.7 secs

     total energy              =     -19.26281000 Ry
     estimated scf accuracy    <       0.00063387 Ry

     iteration #282     ecut=    50.00 Ry     beta= 0.00
     PPCG style diagonalization
     ethr =  4.88E-06,  avg # of iterations =  7.0

     total cpu time spent up to now is      296.8 secs

     total energy              =     -19.28556898 Ry
     estimated scf accuracy    <       0.00150566 Ry

     iteration #283     ecut=    50.00 Ry     beta= 0.00
     PPCG style diagonalization
     ethr =  4.88E-06,  avg # of iterations =  4.0

     total cpu time spent up to now is      297.4 secs

     total energy              =     -19.28476334 Ry
     estimated scf accuracy    <       0.00152560 Ry

     iteration #284     ecut=    50.00 Ry     beta= 0.00
     PPCG style diagonalization
     ethr =  4.88E-06,  avg # of iterations =  4.0

     total cpu time spent up to now is      298.0 secs

     total energy              =     -19.26334618 Ry
     estimated scf accuracy    <       0.00141808 Ry

     iteration #285     ecut=    50.00 Ry     beta= 0.00
     PPCG style diagonalization
     ethr =  4.88E-06,  avg # of iterations =  6.0

     total cpu time spent up to now is      298.9 secs

     total energy              =     -19.27781782 Ry
     estimated scf accuracy    <       0.00047189 Ry

     iteration #286     ecut=    50.00 Ry     beta= 0.00
     PPCG style diagonalization
     ethr =  4.88E-06,  avg # of iterations =  6.0

     total cpu time spent up to now is      299.8 secs

     total energy              =     -19.28378776 Ry
     estimated scf accuracy    <       0.00096413 Ry

     iteration #287     ecut=    50.00 Ry     beta= 0.00
     PPCG style diagonalization
     ethr =  4.88E-06,  avg # of iterations =  5.3

     total cpu time spent up to now is      300.6 secs

     total energy              =     -19.28468484 Ry
     estimated scf accuracy    <       0.00096424 Ry

     iteration #288     ecut=    50.00 Ry     beta= 0.00
     PPCG style diagonalization
     ethr =  4.88E-06,  avg # of iterations =  4.0

     total cpu time spent up to now is      301.2 secs

     total energy              =     -19.28314633 Ry
     estimated scf accuracy    <       0.00096285 Ry

     iteration #289     ecut=    50.00 Ry     beta= 0.00
     PPCG style diagonalization
     ethr =  4.88E-06,  avg # of iterations =  4.1

     total cpu time spent up to now is      301.8 secs

     total energy              =     -19.28456663 Ry
     estimated scf accuracy    <       0.00075345 Ry

     iteration #290     ecut=    50.00 Ry     beta= 0.00
     PPCG style diagonalization
     ethr =  4.88E-06,  avg # of iterations =  4.0

     total cpu time spent up to now is      302.5 secs

     total energy              =     -19.28539946 Ry
     estimated scf accuracy    <       0.00083571 Ry

     iteration #291     ecut=    50.00 Ry     beta= 0.00
     PPCG style diagonalization
     ethr =  4.88E-06,  avg # of iterations =  5.0

     total cpu time spent up to now is      303.2 secs

     total energy              =     -19.28419073 Ry
     estimated scf accuracy    <       0.00126687 Ry

     iteration #292     ecut=    50.00 Ry     beta= 0.00
     PPCG style diagonalization
     ethr =  4.88E-06,  avg # of iterations =  5.0

     negative rho (up,down):  9.042E-06 0.000E+00

     total cpu time spent up to now is      304.0 secs

     total energy              =     -19.27113978 Ry
     estimated scf accuracy    <       0.00095490 Ry

     iteration #293     ecut=    50.00 Ry     beta= 0.00
     PPCG style diagonalization
     ethr =  4.88E-06,  avg # of iterations =  6.0

     negative rho (up,down):  4.971E-05 0.000E+00

     total cpu time spent up to now is      304.9 secs

     total energy              =     -19.25128821 Ry
     estimated scf accuracy    <       0.00061716 Ry

     iteration #294     ecut=    50.00 Ry     beta= 0.00
     PPCG style diagonalization
     ethr =  4.88E-06,  avg # of iterations =  6.0

     negative rho (up,down):  1.724E-04 0.000E+00

     total cpu time spent up to now is      305.7 secs

     total energy              =     -19.24438120 Ry
     estimated scf accuracy    <       0.00042644 Ry

     iteration #295     ecut=    50.00 Ry     beta= 0.00
     PPCG style diagonalization
     ethr =  4.88E-06,  avg # of iterations =  5.0

     total cpu time spent up to now is      306.5 secs

     total energy              =     -19.27629618 Ry
     estimated scf accuracy    <       0.00049130 Ry

     iteration #296     ecut=    50.00 Ry     beta= 0.00
     PPCG style diagonalization
     ethr =  4.88E-06,  avg # of iterations =  7.0

     total cpu time spent up to now is      307.5 secs

     total energy              =     -19.28616737 Ry
     estimated scf accuracy    <       0.00267658 Ry

     iteration #297     ecut=    50.00 Ry     beta= 0.00
     PPCG style diagonalization
     ethr =  4.88E-06,  avg # of iterations =  4.0

     total cpu time spent up to now is      308.1 secs

     total energy              =     -19.28675851 Ry
     estimated scf accuracy    <       0.00223810 Ry

     iteration #298     ecut=    50.00 Ry     beta= 0.00
     PPCG style diagonalization
     ethr =  4.88E-06,  avg # of iterations =  5.0

     total cpu time spent up to now is      308.9 secs

     total energy              =     -19.28685443 Ry
     estimated scf accuracy    <       0.00207850 Ry

     iteration #299     ecut=    50.00 Ry     beta= 0.00
     PPCG style diagonalization
     ethr =  4.88E-06,  avg # of iterations =  4.0

     total cpu time spent up to now is      309.6 secs

     total energy              =     -19.28601361 Ry
     estimated scf accuracy    <       0.00249303 Ry

     iteration #300     ecut=    50.00 Ry     beta= 0.00
     PPCG style diagonalization
     ethr =  4.88E-06,  avg # of iterations =  5.0

     total cpu time spent up to now is      310.4 secs

     total energy              =     -19.28658429 Ry
     estimated scf accuracy    <       0.00252188 Ry

     End of self-consistent calculation

     convergence NOT achieved after 300 iterations: stopping
     Writing meta-gga kinetic term

     Writing config to output data dir ./pwscf.save/
     Writing meta-gga kinetic term
 
     init_run     :      0.48s CPU      0.58s WALL (       1 calls)
     electrons    :    288.54s CPU    309.04s WALL (       3 calls)
     update_pot   :      0.20s CPU      0.21s WALL (       2 calls)
     forces       :      0.07s CPU      0.07s WALL (       2 calls)
     stress       :      0.30s CPU      0.31s WALL (       2 calls)

     Called by init_run:
     wfcinit      :      0.39s CPU      0.43s WALL (       1 calls)
     potinit      :      0.03s CPU      0.04s WALL (       1 calls)
     hinit0       :      0.05s CPU      0.08s WALL (       1 calls)

     Called by electrons:
     c_bands      :    263.09s CPU    281.74s WALL (     358 calls)
     sum_band     :     22.99s CPU     24.35s WALL (     358 calls)
     v_of_rho     :      1.61s CPU      1.72s WALL (     361 calls)
     mix_rho      :      0.71s CPU      0.73s WALL (     358 calls)

     Called by c_bands:
     init_us_2    :      1.04s CPU      1.10s WALL (   33887 calls)
     init_us_2:cp :      0.95s CPU      1.01s WALL (   33887 calls)
     ppcg_k       :    218.69s CPU    233.86s WALL (   16826 calls)
     wfcrot       :     43.47s CPU     46.74s WALL (   16732 calls)

     Called by ppcg_*:
     h_psi        :    243.31s CPU    260.51s WALL (   97213 calls)

     Called by h_psi:
     h_psi:calbec :      1.34s CPU      1.43s WALL (   97213 calls)
     vloc_psi     :     60.11s CPU     64.49s WALL (   97213 calls)
     add_vuspsi   :      0.83s CPU      0.90s WALL (   97213 calls)
     h_psi_meta   :    179.86s CPU    192.45s WALL (   97213 calls)

     General routines
     calbec       :      1.04s CPU      1.12s WALL (   97683 calls)
     fft          :      0.49s CPU      0.52s WALL (    4341 calls)
     ffts         :      0.07s CPU      0.07s WALL (     716 calls)
     fftw         :    235.35s CPU    251.91s WALL ( 3366584 calls)
     interpolate  :      0.01s CPU      0.01s WALL (     361 calls)
     davcio       :      0.00s CPU      0.00s WALL (      65 calls)
 
     Parallel routines
 
     PWSCF        :   4m49.66s CPU   5m10.42s WALL

 
   This run was terminated on:  13:43:36  21Feb2023            

=------------------------------------------------------------------------------=
   JOB DONE.
=------------------------------------------------------------------------------=
