
     Program PWSCF v.7.0 starts on 10Apr2023 at  9:43:45 

     This program is part of the open-source Quantum ESPRESSO suite
     for quantum simulation of materials; please cite
         "P. Giannozzi et al., J. Phys.:Condens. Matter 21 395502 (2009);
         "P. Giannozzi et al., J. Phys.:Condens. Matter 29 465901 (2017);
         "P. Giannozzi et al., J. Chem. Phys. 152 154105 (2020);
          URL http://www.quantum-espresso.org", 
     in publications or presentations arising from this work. More details at
     http://www.quantum-espresso.org/quote

     Parallel version (MPI), running on     1 processors

     MPI processes distributed on     1 nodes
     19152 MiB available memory on the printing compute node when the environment starts
 
     Waiting for input...
     Reading input from standard input
Warning: card &CELL ignored
Warning: card / ignored

     Current dimensions of program PWSCF are:
     Max number of different atomic species (ntypx) = 10
     Max number of k-points (npk) =  40000
     Max angular momentum in pseudopotentials (lmaxx) =  4

     WARNING: the MGGA functional with ID    5 has been 
     read together with other dft terms, but it should 
     stand alone in order to work properly. The other 
     terms will be ignored.

     WARNING: the MGGA functional with ID    5 has been 
     read together with other dft terms, but it should 
     stand alone in order to work properly. The other 
     terms will be ignored.

     Subspace diagonalization in iterative solution of the eigenvalue problem:
     a serial algorithm will be used

 
     G-vector sticks info
     --------------------
     sticks:   dense  smooth     PW     G-vecs:    dense   smooth      PW
     Sum         409     409    127                 5329     5329     965
 
     Using Slab Decomposition
 


     bravais-lattice index     =            2
     lattice parameter (alat)  =       7.6647  a.u.
     unit-cell volume          =     112.5720 (a.u.)^3
     number of atoms/cell      =            2
     number of atomic types    =            2
     number of electrons       =         8.00
     number of Kohn-Sham states=            4
     kinetic-energy cutoff     =      50.0000  Ry
     charge density cutoff     =     200.0000  Ry
     scf convergence threshold =      1.0E-06
     mixing beta               =       0.0100
     number of iterations used =            8  local-TF  mixing
     Exchange-correlation= SLA  PW   SCAN SCAN
                           (   0   0   0   0   0 263 267)

     celldm(1)=   7.664729  celldm(2)=   0.000000  celldm(3)=   0.000000
     celldm(4)=   0.000000  celldm(5)=   0.000000  celldm(6)=   0.000000

     crystal axes: (cart. coord. in units of alat)
               a(1) = (  -0.500000   0.000000   0.500000 )  
               a(2) = (   0.000000   0.500000   0.500000 )  
               a(3) = (  -0.500000   0.500000   0.000000 )  

     reciprocal axes: (cart. coord. in units 2 pi/alat)
               b(1) = ( -1.000000 -1.000000  1.000000 )  
               b(2) = (  1.000000  1.000000  1.000000 )  
               b(3) = ( -1.000000  1.000000 -1.000000 )  


     PseudoPot. # 1 for Li read from file:
     ~/Documents/TA/PWDFT.jl/pseudopotentials/scan_upf/Li.SCAN.UPF2
     MD5 check sum: Not computed, couldn't open file
     Pseudo is Norm-conserving, Zval =  1.0
     Generated by new atomic code, or converted to UPF format
     Using radial grid of 1321 points,  1 beta functions with: 
                l(1) =   0

     PseudoPot. # 2 for F  read from file:
     ~/Documents/TA/PWDFT.jl/pseudopotentials/scan_upf/F.SCAN.UPF2
     MD5 check sum: Not computed, couldn't open file
     Pseudo is Norm-conserving, Zval =  7.0
     Generated by new atomic code, or converted to UPF format
     Using radial grid of 1431 points,  1 beta functions with: 
                l(1) =   0

     atomic species   valence    mass     pseudopotential
        Li             1.00     6.94100     Li( 1.00)
        F              7.00    18.99800     F ( 1.00)

     48 Sym. Ops., with inversion, found



   Cartesian axes

     site n.     atom                  positions (alat units)
         1           Li  tau(   1) = (   0.0000000   0.0000000   0.0000000  )
         2           F   tau(   2) = (   0.5000000   0.5000000   0.5000000  )

     number of k points=    47
                       cart. coord. in units 2pi/alat
        k(    1) = (   0.0000000   0.0000000   0.0000000), wk =   0.0020000
        k(    2) = (  -0.1000000   0.1000000  -0.1000000), wk =   0.0160000
        k(    3) = (  -0.2000000   0.2000000  -0.2000000), wk =   0.0160000
        k(    4) = (  -0.3000000   0.3000000  -0.3000000), wk =   0.0160000
        k(    5) = (  -0.4000000   0.4000000  -0.4000000), wk =   0.0160000
        k(    6) = (   0.5000000  -0.5000000   0.5000000), wk =   0.0080000
        k(    7) = (   0.0000000   0.2000000   0.0000000), wk =   0.0120000
        k(    8) = (  -0.1000000   0.3000000  -0.1000000), wk =   0.0480000
        k(    9) = (  -0.2000000   0.4000000  -0.2000000), wk =   0.0480000
        k(   10) = (  -0.3000000   0.5000000  -0.3000000), wk =   0.0480000
        k(   11) = (   0.6000000  -0.4000000   0.6000000), wk =   0.0480000
        k(   12) = (   0.5000000  -0.3000000   0.5000000), wk =   0.0480000
        k(   13) = (   0.4000000  -0.2000000   0.4000000), wk =   0.0480000
        k(   14) = (   0.3000000  -0.1000000   0.3000000), wk =   0.0480000
        k(   15) = (   0.2000000   0.0000000   0.2000000), wk =   0.0240000
        k(   16) = (   0.0000000   0.4000000   0.0000000), wk =   0.0120000
        k(   17) = (  -0.1000000   0.5000000  -0.1000000), wk =   0.0480000
        k(   18) = (  -0.2000000   0.6000000  -0.2000000), wk =   0.0480000
        k(   19) = (   0.7000000  -0.3000000   0.7000000), wk =   0.0480000
        k(   20) = (   0.6000000  -0.2000000   0.6000000), wk =   0.0480000
        k(   21) = (   0.5000000  -0.1000000   0.5000000), wk =   0.0480000
        k(   22) = (   0.4000000   0.0000000   0.4000000), wk =   0.0240000
        k(   23) = (   0.0000000   0.6000000   0.0000000), wk =   0.0120000
        k(   24) = (  -0.1000000   0.7000000  -0.1000000), wk =   0.0480000
        k(   25) = (   0.8000000  -0.2000000   0.8000000), wk =   0.0480000
        k(   26) = (   0.7000000  -0.1000000   0.7000000), wk =   0.0480000
        k(   27) = (   0.6000000  -0.0000000   0.6000000), wk =   0.0240000
        k(   28) = (   0.0000000   0.8000000   0.0000000), wk =   0.0120000
        k(   29) = (   0.9000000  -0.1000000   0.9000000), wk =   0.0480000
        k(   30) = (   0.8000000   0.0000000   0.8000000), wk =   0.0240000
        k(   31) = (   0.0000000  -1.0000000   0.0000000), wk =   0.0060000
        k(   32) = (  -0.2000000   0.4000000   0.0000000), wk =   0.0480000
        k(   33) = (  -0.3000000   0.5000000  -0.1000000), wk =   0.0960000
        k(   34) = (   0.6000000  -0.4000000   0.8000000), wk =   0.0960000
        k(   35) = (   0.5000000  -0.3000000   0.7000000), wk =   0.0480000
        k(   36) = (  -0.2000000   0.6000000   0.0000000), wk =   0.0480000
        k(   37) = (   0.7000000  -0.3000000   0.9000000), wk =   0.0960000
        k(   38) = (   0.6000000  -0.2000000   0.8000000), wk =   0.0960000
        k(   39) = (   0.5000000  -0.1000000   0.7000000), wk =   0.0960000
        k(   40) = (   0.4000000   0.0000000   0.6000000), wk =   0.0480000
        k(   41) = (   0.8000000  -0.2000000   1.0000000), wk =   0.0480000
        k(   42) = (   0.7000000  -0.1000000   0.9000000), wk =   0.0960000
        k(   43) = (   0.6000000   0.0000000   0.8000000), wk =   0.0480000
        k(   44) = (  -0.2000000  -1.0000000   0.0000000), wk =   0.0240000
        k(   45) = (   0.6000000  -0.2000000   1.0000000), wk =   0.0480000
        k(   46) = (   0.5000000  -0.1000000   0.9000000), wk =   0.0480000
        k(   47) = (  -0.4000000  -1.0000000   0.0000000), wk =   0.0240000

     Dense  grid:     5329 G-vectors     FFT dimensions: (  25,  25,  25)

     Estimated max dynamical RAM per process >      10.00 MB

     WARNING: libxc functional with ID  263 depends
      on external parameters: check the user_guide of
      QE if you need to modify them or to check their
      default values.

     Initial potential from superposition of free atoms

     starting charge       7.9953, renormalised to       8.0000
     Starting wfcs are    8 randomized atomic wfcs

     total cpu time spent up to now is        1.7 secs

     Self-consistent Calculation

     iteration #  1     ecut=    50.00 Ry     beta= 0.01
     Davidson diagonalization with overlap
     ethr =  1.00E-02,  avg # of iterations =  2.0

     total cpu time spent up to now is        3.8 secs

     total energy              =     -48.53687320 Ry
     estimated scf accuracy    <      17.66204963 Ry

     iteration #  2     ecut=    50.00 Ry     beta= 0.01
     Davidson diagonalization with overlap
     ethr =  1.00E-02,  avg # of iterations =  1.0

     total cpu time spent up to now is        5.6 secs

     total energy              =     -48.59283834 Ry
     estimated scf accuracy    <      17.25073995 Ry

     iteration #  3     ecut=    50.00 Ry     beta= 0.01
     Davidson diagonalization with overlap
     ethr =  1.00E-02,  avg # of iterations =  1.0

     total cpu time spent up to now is        7.3 secs

     total energy              =     -48.59424835 Ry
     estimated scf accuracy    <       0.79539387 Ry

     iteration #  4     ecut=    50.00 Ry     beta= 0.01
     Davidson diagonalization with overlap
     ethr =  9.94E-03,  avg # of iterations =  1.0

     total cpu time spent up to now is        9.0 secs

     total energy              =     -48.59464654 Ry
     estimated scf accuracy    <       0.00504992 Ry

     iteration #  5     ecut=    50.00 Ry     beta= 0.01
     Davidson diagonalization with overlap
     ethr =  6.31E-05,  avg # of iterations =  1.0

     total cpu time spent up to now is       10.6 secs

     total energy              =     -48.59485814 Ry
     estimated scf accuracy    <       0.00598569 Ry

     iteration #  6     ecut=    50.00 Ry     beta= 0.01
     Davidson diagonalization with overlap
     ethr =  6.31E-05,  avg # of iterations =  1.0

     total cpu time spent up to now is       12.1 secs

     total energy              =     -48.59537841 Ry
     estimated scf accuracy    <       0.00591683 Ry

     iteration #  7     ecut=    50.00 Ry     beta= 0.01
     Davidson diagonalization with overlap
     ethr =  6.31E-05,  avg # of iterations =  2.0

     total cpu time spent up to now is       14.2 secs

     total energy              =     -48.59595288 Ry
     estimated scf accuracy    <       0.01356904 Ry

     iteration #  8     ecut=    50.00 Ry     beta= 0.01
     Davidson diagonalization with overlap
     ethr =  6.31E-05,  avg # of iterations =  1.0

     total cpu time spent up to now is       15.6 secs

     total energy              =     -48.59570532 Ry
     estimated scf accuracy    <       0.01304763 Ry

     iteration #  9     ecut=    50.00 Ry     beta= 0.01
     Davidson diagonalization with overlap
     ethr =  6.31E-05,  avg # of iterations =  1.0

     total cpu time spent up to now is       17.0 secs

     total energy              =     -48.59573976 Ry
     estimated scf accuracy    <       0.00283748 Ry

     iteration # 10     ecut=    50.00 Ry     beta= 0.01
     Davidson diagonalization with overlap
     ethr =  3.55E-05,  avg # of iterations =  1.0

     total cpu time spent up to now is       18.4 secs

     total energy              =     -48.59575193 Ry
     estimated scf accuracy    <       0.00186548 Ry

     iteration # 11     ecut=    50.00 Ry     beta= 0.01
     Davidson diagonalization with overlap
     ethr =  2.33E-05,  avg # of iterations =  1.0

     total cpu time spent up to now is       19.5 secs

     total energy              =     -48.59573860 Ry
     estimated scf accuracy    <       0.00151342 Ry

     iteration # 12     ecut=    50.00 Ry     beta= 0.01
     Davidson diagonalization with overlap
     ethr =  1.89E-05,  avg # of iterations =  1.0

     total cpu time spent up to now is       20.7 secs

     total energy              =     -48.59569742 Ry
     estimated scf accuracy    <       0.00099241 Ry

     iteration # 13     ecut=    50.00 Ry     beta= 0.01
     Davidson diagonalization with overlap
     ethr =  1.24E-05,  avg # of iterations =  1.0

     total cpu time spent up to now is       21.7 secs

     total energy              =     -48.59571676 Ry
     estimated scf accuracy    <       0.00013154 Ry

     iteration # 14     ecut=    50.00 Ry     beta= 0.01
     Davidson diagonalization with overlap
     ethr =  1.64E-06,  avg # of iterations =  1.0

     total cpu time spent up to now is       22.4 secs

     total energy              =     -48.59572053 Ry
     estimated scf accuracy    <       0.00005589 Ry

     iteration # 15     ecut=    50.00 Ry     beta= 0.01
     Davidson diagonalization with overlap
     ethr =  6.99E-07,  avg # of iterations =  1.0

     total cpu time spent up to now is       23.8 secs

     total energy              =     -48.59572277 Ry
     estimated scf accuracy    <       0.00005449 Ry

     iteration # 16     ecut=    50.00 Ry     beta= 0.01
     Davidson diagonalization with overlap
     ethr =  6.81E-07,  avg # of iterations =  1.0

     total cpu time spent up to now is       25.2 secs

     total energy              =     -48.59571166 Ry
     estimated scf accuracy    <       0.00009224 Ry

     iteration # 17     ecut=    50.00 Ry     beta= 0.01
     Davidson diagonalization with overlap
     ethr =  6.81E-07,  avg # of iterations =  1.9

     total cpu time spent up to now is       26.6 secs

     total energy              =     -48.59571605 Ry
     estimated scf accuracy    <       0.00000180 Ry

     iteration # 18     ecut=    50.00 Ry     beta= 0.01
     Davidson diagonalization with overlap
     ethr =  2.25E-08,  avg # of iterations =  1.4

     total cpu time spent up to now is       28.1 secs

     total energy              =     -48.59571615 Ry
     estimated scf accuracy    <       0.00000130 Ry

     iteration # 19     ecut=    50.00 Ry     beta= 0.01
     Davidson diagonalization with overlap
     ethr =  1.62E-08,  avg # of iterations =  1.0

     total cpu time spent up to now is       29.2 secs

     End of self-consistent calculation

          k = 0.0000 0.0000 0.0000 (   645 PWs)   bands (ev):

   -22.1314  -0.0448  -0.0448  -0.0448

          k =-0.1000 0.1000-0.1000 (   661 PWs)   bands (ev):

   -22.0891  -0.4689  -0.1192  -0.1192

          k =-0.2000 0.2000-0.2000 (   661 PWs)   bands (ev):

   -21.9725  -1.1594  -0.1947  -0.1947

          k =-0.3000 0.3000-0.3000 (   664 PWs)   bands (ev):

   -21.8242  -1.9697  -0.2659  -0.2659

          k =-0.4000 0.4000-0.4000 (   664 PWs)   bands (ev):

   -21.7000  -2.5671  -0.3119  -0.3119

          k = 0.5000-0.5000 0.5000 (   652 PWs)   bands (ev):

   -21.6506  -2.7724  -0.2528  -0.2528

          k = 0.0000 0.2000 0.0000 (   665 PWs)   bands (ev):

   -22.0744  -0.4182  -0.2406  -0.2406

          k =-0.1000 0.3000-0.1000 (   667 PWs)   bands (ev):

   -21.9810  -0.9671  -0.3498  -0.3159

          k =-0.2000 0.4000-0.2000 (   659 PWs)   bands (ev):

   -21.8402  -1.6822  -0.4345  -0.3343

          k =-0.3000 0.5000-0.3000 (   658 PWs)   bands (ev):

   -21.7057  -2.3459  -0.4413  -0.4394

          k = 0.6000-0.4000 0.6000 (   668 PWs)   bands (ev):

   -21.6314  -2.7368  -0.6093  -0.4082

          k = 0.5000-0.3000 0.5000 (   670 PWs)   bands (ev):

   -21.6483  -2.6526  -0.6739  -0.3636

          k = 0.4000-0.2000 0.4000 (   665 PWs)   bands (ev):

   -21.7490  -2.1565  -0.6384  -0.2624

          k = 0.3000-0.1000 0.3000 (   667 PWs)   bands (ev):

   -21.8921  -1.4496  -0.5773  -0.1814

          k = 0.2000 0.0000 0.2000 (   664 PWs)   bands (ev):

   -22.0209  -0.7897  -0.3855  -0.1025

          k = 0.0000 0.4000 0.0000 (   673 PWs)   bands (ev):

   -21.9136  -1.1367  -0.5633  -0.5633

          k =-0.1000 0.5000-0.1000 (   670 PWs)   bands (ev):

   -21.7930  -1.7019  -0.6959  -0.6713

          k =-0.2000 0.6000-0.2000 (   676 PWs)   bands (ev):

   -21.6646  -2.2860  -0.9345  -0.7397

          k = 0.7000-0.3000 0.7000 (   676 PWs)   bands (ev):

   -21.5776  -2.6051  -1.1753  -0.6906

          k = 0.6000-0.2000 0.6000 (   685 PWs)   bands (ev):

   -21.5698  -2.6221  -1.3920  -0.5897

          k = 0.5000-0.1000 0.5000 (   671 PWs)   bands (ev):

   -21.6423  -2.2457  -1.3339  -0.3877

          k = 0.4000 0.0000 0.4000 (   660 PWs)   bands (ev):

   -21.7659  -1.7409  -1.0422  -0.2283

          k = 0.0000 0.6000 0.0000 (   665 PWs)   bands (ev):

   -21.6964  -2.0512  -0.8374  -0.8374

          k =-0.1000 0.7000-0.1000 (   672 PWs)   bands (ev):

   -21.5881  -2.5335  -1.0365  -0.9644

          k = 0.8000-0.2000 0.8000 (   680 PWs)   bands (ev):

   -21.5092  -2.7289  -1.4403  -0.9627

          k = 0.7000-0.1000 0.7000 (   681 PWs)   bands (ev):

   -21.4918  -2.5705  -1.8449  -0.8135

          k = 0.6000-0.0000 0.6000 (   682 PWs)   bands (ev):

   -21.5438  -2.1737  -2.0537  -0.6283

          k = 0.0000 0.8000 0.0000 (   676 PWs)   bands (ev):

   -21.5068  -2.9139  -1.1111  -1.1111

          k = 0.9000-0.1000 0.9000 (   672 PWs)   bands (ev):

   -21.4516  -3.0675  -1.2545  -1.1164

          k = 0.8000 0.0000 0.8000 (   678 PWs)   bands (ev):

   -21.4463  -2.9023  -1.6475  -0.9946

          k = 0.0000-1.0000 0.0000 (   692 PWs)   bands (ev):

   -21.4310  -3.2944  -1.2496  -1.2496

          k =-0.2000 0.4000 0.0000 (   668 PWs)   bands (ev):

   -21.8742  -1.3884  -0.6823  -0.3502

          k =-0.3000 0.5000-0.1000 (   666 PWs)   bands (ev):

   -21.7382  -1.9722  -0.9296  -0.3841

          k = 0.6000-0.4000 0.8000 (   671 PWs)   bands (ev):

   -21.6254  -2.4746  -1.0822  -0.4823

          k = 0.5000-0.3000 0.7000 (   676 PWs)   bands (ev):

   -21.5818  -2.6849  -1.1338  -0.5401

          k =-0.2000 0.6000 0.0000 (   670 PWs)   bands (ev):

   -21.6774  -2.1525  -1.0115  -0.7071

          k = 0.7000-0.3000 0.9000 (   670 PWs)   bands (ev):

   -21.5706  -2.4574  -1.3546  -0.7612

          k = 0.6000-0.2000 0.8000 (   673 PWs)   bands (ev):

   -21.5157  -2.5537  -1.6477  -0.7441

          k = 0.5000-0.1000 0.7000 (   675 PWs)   bands (ev):

   -21.5357  -2.3928  -1.7712  -0.6623

          k = 0.4000 0.0000 0.6000 (   675 PWs)   bands (ev):

   -21.6219  -2.1934  -1.5116  -0.5285

          k = 0.8000-0.2000 1.0000 (   670 PWs)   bands (ev):

   -21.5040  -2.7964  -1.2883  -0.9882

          k = 0.7000-0.1000 0.9000 (   677 PWs)   bands (ev):

   -21.4594  -2.7897  -1.6698  -0.9901

          k = 0.6000 0.0000 0.8000 (   676 PWs)   bands (ev):

   -21.4716  -2.4538  -2.0432  -0.8403

          k =-0.2000-1.0000 0.0000 (   670 PWs)   bands (ev):

   -21.4341  -3.0484  -1.3801  -1.1060

          k = 0.6000-0.2000 1.0000 (   676 PWs)   bands (ev):

   -21.4938  -2.4757  -1.8560  -0.8656

          k = 0.5000-0.1000 0.9000 (   684 PWs)   bands (ev):

   -21.4646  -2.3927  -2.1422  -0.9705

          k =-0.4000-1.0000 0.0000 (   682 PWs)   bands (ev):

   -21.4427  -2.6261  -1.9941  -1.0251

     highest occupied level (ev):    -0.0448

!    total energy              =     -48.59571615 Ry
     estimated scf accuracy    <       0.00000054 Ry

     The total energy is the sum of the following terms:
     one-electron contribution =     -23.34433623 Ry
     hartree contribution      =      16.50600886 Ry
     xc contribution           =      -9.85810579 Ry
     ewald contribution        =     -31.89928298 Ry

     convergence has been achieved in  19 iterations
     Writing meta-gga kinetic term

     Writing all to output data dir ./input_pw/LiF/9/pwscf.save/
     Writing meta-gga kinetic term
 
     init_run     :      0.63s CPU      1.59s WALL (       1 calls)
     electrons    :     14.04s CPU     27.54s WALL (       1 calls)

     Called by init_run:
     wfcinit      :      0.55s CPU      1.35s WALL (       1 calls)
     potinit      :      0.01s CPU      0.04s WALL (       1 calls)
     hinit0       :      0.06s CPU      0.17s WALL (       1 calls)

     Called by electrons:
     c_bands      :     10.97s CPU     21.64s WALL (      19 calls)
     sum_band     :      2.72s CPU      5.15s WALL (      19 calls)
     v_of_rho     :      0.19s CPU      0.42s WALL (      20 calls)
     mix_rho      :      0.17s CPU      0.35s WALL (      19 calls)

     Called by c_bands:
     init_us_2    :      0.06s CPU      0.15s WALL (    1833 calls)
     init_us_2:cp :      0.06s CPU      0.11s WALL (    1833 calls)
     cegterg      :     10.90s CPU     21.48s WALL (     893 calls)

     Called by *egterg:
     cdiaghg      :      0.07s CPU      0.11s WALL (    1938 calls)
     h_psi        :     11.20s CPU     22.31s WALL (    1985 calls)
     g_psi        :      0.01s CPU      0.02s WALL (    1045 calls)

     Called by h_psi:
     h_psi:calbec :      0.02s CPU      0.09s WALL (    1985 calls)
     vloc_psi     :      2.76s CPU      5.61s WALL (    1985 calls)
     add_vuspsi   :      0.03s CPU      0.05s WALL (    1985 calls)
     h_psi_meta   :      8.35s CPU     16.47s WALL (    1985 calls)

     General routines
     calbec       :      0.02s CPU      0.06s WALL (    1985 calls)
     fft          :      0.04s CPU      0.09s WALL (     237 calls)
     ffts         :      0.08s CPU      0.12s WALL (     532 calls)
     fftw         :     12.39s CPU     24.28s WALL (   77392 calls)
     interpolate  :      0.00s CPU      0.00s WALL (      20 calls)
 
     Parallel routines
 
     PWSCF        :     14.72s CPU     29.23s WALL

 
   This run was terminated on:   9:44:14  10Apr2023            

=------------------------------------------------------------------------------=
   JOB DONE.
=------------------------------------------------------------------------------=
