
     Program PWSCF v.7.0 starts on  7Jul2023 at 14:23:45 

     This program is part of the open-source Quantum ESPRESSO suite
     for quantum simulation of materials; please cite
         "P. Giannozzi et al., J. Phys.:Condens. Matter 21 395502 (2009);
         "P. Giannozzi et al., J. Phys.:Condens. Matter 29 465901 (2017);
         "P. Giannozzi et al., J. Chem. Phys. 152 154105 (2020);
          URL http://www.quantum-espresso.org", 
     in publications or presentations arising from this work. More details at
     http://www.quantum-espresso.org/quote

     Parallel version (MPI), running on     1 processors

     MPI processes distributed on     1 nodes
     26928 MiB available memory on the printing compute node when the environment starts
 
     Waiting for input...
     Reading input from standard input
Warning: card &CELL ignored
Warning: card / ignored

     Current dimensions of program PWSCF are:
     Max number of different atomic species (ntypx) = 10
     Max number of k-points (npk) =  40000
     Max angular momentum in pseudopotentials (lmaxx) =  4

     WARNING: the MGGA functional with ID    5 has been 
     read together with other dft terms, but it should 
     stand alone in order to work properly. The other 
     terms will be ignored.

     WARNING: the MGGA functional with ID    5 has been 
     read together with other dft terms, but it should 
     stand alone in order to work properly. The other 
     terms will be ignored.

     Subspace diagonalization in iterative solution of the eigenvalue problem:
     a serial algorithm will be used

 
     G-vector sticks info
     --------------------
     sticks:   dense  smooth     PW     G-vecs:    dense   smooth      PW
     Sum         499     499    163                 7239     7239    1363
 
     Using Slab Decomposition
 


     bravais-lattice index     =            2
     lattice parameter (alat)  =       8.4509  a.u.
     unit-cell volume          =     150.8836 (a.u.)^3
     number of atoms/cell      =            2
     number of atomic types    =            2
     number of electrons       =         8.00
     number of Kohn-Sham states=            4
     kinetic-energy cutoff     =      50.0000  Ry
     charge density cutoff     =     200.0000  Ry
     scf convergence threshold =      2.0E-05
     mixing beta               =       0.2000
     number of iterations used =            8  local-TF  mixing
     Exchange-correlation= SLA  PW   SCAN SCAN
                           (   0   0   0   0   0 263 267)

     celldm(1)=   8.450855  celldm(2)=   0.000000  celldm(3)=   0.000000
     celldm(4)=   0.000000  celldm(5)=   0.000000  celldm(6)=   0.000000

     crystal axes: (cart. coord. in units of alat)
               a(1) = (  -0.500000   0.000000   0.500000 )  
               a(2) = (   0.000000   0.500000   0.500000 )  
               a(3) = (  -0.500000   0.500000   0.000000 )  

     reciprocal axes: (cart. coord. in units 2 pi/alat)
               b(1) = ( -1.000000 -1.000000  1.000000 )  
               b(2) = (  1.000000  1.000000  1.000000 )  
               b(3) = ( -1.000000  1.000000 -1.000000 )  


     PseudoPot. # 1 for Li read from file:
     ~/Documents/TA/PWDFT.jl/pseudopotentials/scan_upf/Li.SCAN.UPF2
     MD5 check sum: Not computed, couldn't open file
     Pseudo is Norm-conserving, Zval =  1.0
     Generated by new atomic code, or converted to UPF format
     Using radial grid of 1321 points,  1 beta functions with: 
                l(1) =   0

     PseudoPot. # 2 for F  read from file:
     ~/Documents/TA/PWDFT.jl/pseudopotentials/scan_upf/F.SCAN.UPF2
     MD5 check sum: Not computed, couldn't open file
     Pseudo is Norm-conserving, Zval =  7.0
     Generated by new atomic code, or converted to UPF format
     Using radial grid of 1431 points,  1 beta functions with: 
                l(1) =   0

     atomic species   valence    mass     pseudopotential
        Li             1.00     6.94100     Li( 1.00)
        F              7.00    18.99800     F ( 1.00)

     48 Sym. Ops., with inversion, found



   Cartesian axes

     site n.     atom                  positions (alat units)
         1           Li  tau(   1) = (   0.0000000   0.0000000   0.0000000  )
         2           F   tau(   2) = (   0.5000000   0.5000000   0.5000000  )

     number of k points=    47
                       cart. coord. in units 2pi/alat
        k(    1) = (   0.0000000   0.0000000   0.0000000), wk =   0.0020000
        k(    2) = (  -0.1000000   0.1000000  -0.1000000), wk =   0.0160000
        k(    3) = (  -0.2000000   0.2000000  -0.2000000), wk =   0.0160000
        k(    4) = (  -0.3000000   0.3000000  -0.3000000), wk =   0.0160000
        k(    5) = (  -0.4000000   0.4000000  -0.4000000), wk =   0.0160000
        k(    6) = (   0.5000000  -0.5000000   0.5000000), wk =   0.0080000
        k(    7) = (   0.0000000   0.2000000   0.0000000), wk =   0.0120000
        k(    8) = (  -0.1000000   0.3000000  -0.1000000), wk =   0.0480000
        k(    9) = (  -0.2000000   0.4000000  -0.2000000), wk =   0.0480000
        k(   10) = (  -0.3000000   0.5000000  -0.3000000), wk =   0.0480000
        k(   11) = (   0.6000000  -0.4000000   0.6000000), wk =   0.0480000
        k(   12) = (   0.5000000  -0.3000000   0.5000000), wk =   0.0480000
        k(   13) = (   0.4000000  -0.2000000   0.4000000), wk =   0.0480000
        k(   14) = (   0.3000000  -0.1000000   0.3000000), wk =   0.0480000
        k(   15) = (   0.2000000   0.0000000   0.2000000), wk =   0.0240000
        k(   16) = (   0.0000000   0.4000000   0.0000000), wk =   0.0120000
        k(   17) = (  -0.1000000   0.5000000  -0.1000000), wk =   0.0480000
        k(   18) = (  -0.2000000   0.6000000  -0.2000000), wk =   0.0480000
        k(   19) = (   0.7000000  -0.3000000   0.7000000), wk =   0.0480000
        k(   20) = (   0.6000000  -0.2000000   0.6000000), wk =   0.0480000
        k(   21) = (   0.5000000  -0.1000000   0.5000000), wk =   0.0480000
        k(   22) = (   0.4000000   0.0000000   0.4000000), wk =   0.0240000
        k(   23) = (   0.0000000   0.6000000   0.0000000), wk =   0.0120000
        k(   24) = (  -0.1000000   0.7000000  -0.1000000), wk =   0.0480000
        k(   25) = (   0.8000000  -0.2000000   0.8000000), wk =   0.0480000
        k(   26) = (   0.7000000  -0.1000000   0.7000000), wk =   0.0480000
        k(   27) = (   0.6000000  -0.0000000   0.6000000), wk =   0.0240000
        k(   28) = (   0.0000000   0.8000000   0.0000000), wk =   0.0120000
        k(   29) = (   0.9000000  -0.1000000   0.9000000), wk =   0.0480000
        k(   30) = (   0.8000000   0.0000000   0.8000000), wk =   0.0240000
        k(   31) = (   0.0000000  -1.0000000   0.0000000), wk =   0.0060000
        k(   32) = (  -0.2000000   0.4000000   0.0000000), wk =   0.0480000
        k(   33) = (  -0.3000000   0.5000000  -0.1000000), wk =   0.0960000
        k(   34) = (   0.6000000  -0.4000000   0.8000000), wk =   0.0960000
        k(   35) = (   0.5000000  -0.3000000   0.7000000), wk =   0.0480000
        k(   36) = (  -0.2000000   0.6000000   0.0000000), wk =   0.0480000
        k(   37) = (   0.7000000  -0.3000000   0.9000000), wk =   0.0960000
        k(   38) = (   0.6000000  -0.2000000   0.8000000), wk =   0.0960000
        k(   39) = (   0.5000000  -0.1000000   0.7000000), wk =   0.0960000
        k(   40) = (   0.4000000   0.0000000   0.6000000), wk =   0.0480000
        k(   41) = (   0.8000000  -0.2000000   1.0000000), wk =   0.0480000
        k(   42) = (   0.7000000  -0.1000000   0.9000000), wk =   0.0960000
        k(   43) = (   0.6000000   0.0000000   0.8000000), wk =   0.0480000
        k(   44) = (  -0.2000000  -1.0000000   0.0000000), wk =   0.0240000
        k(   45) = (   0.6000000  -0.2000000   1.0000000), wk =   0.0480000
        k(   46) = (   0.5000000  -0.1000000   0.9000000), wk =   0.0480000
        k(   47) = (  -0.4000000  -1.0000000   0.0000000), wk =   0.0240000

     Dense  grid:     7239 G-vectors     FFT dimensions: (  27,  27,  27)

     Estimated max dynamical RAM per process >      13.36 MB

     WARNING: libxc functional with ID  263 depends
      on external parameters: check the user_guide of
      QE if you need to modify them or to check their
      default values.

     Initial potential from superposition of free atoms

     starting charge       7.9953, renormalised to       8.0000
     Starting wfcs are    8 randomized atomic wfcs

     total cpu time spent up to now is        1.5 secs

     Self-consistent Calculation

     iteration #  1     ecut=    50.00 Ry     beta= 0.20
     Davidson diagonalization with overlap
     ethr =  1.00E-02,  avg # of iterations =  2.0

     total cpu time spent up to now is        3.9 secs

     total energy              =     -48.60021079 Ry
     estimated scf accuracy    <      17.61917357 Ry

     iteration #  2     ecut=    50.00 Ry     beta= 0.20
     Davidson diagonalization with overlap
     ethr =  1.00E-02,  avg # of iterations =  1.0

     total cpu time spent up to now is        5.8 secs

     total energy              =     -48.60407615 Ry
     estimated scf accuracy    <      11.29795583 Ry

     iteration #  3     ecut=    50.00 Ry     beta= 0.20
     Davidson diagonalization with overlap
     ethr =  1.00E-02,  avg # of iterations =  1.0

     total cpu time spent up to now is        7.7 secs

     total energy              =     -48.60724371 Ry
     estimated scf accuracy    <       0.01066785 Ry

     iteration #  4     ecut=    50.00 Ry     beta= 0.20
     Davidson diagonalization with overlap
     ethr =  1.33E-04,  avg # of iterations =  1.0

     total cpu time spent up to now is        9.7 secs

     total energy              =     -48.60716190 Ry
     estimated scf accuracy    <       0.01434679 Ry

     iteration #  5     ecut=    50.00 Ry     beta= 0.20
     Davidson diagonalization with overlap
     ethr =  1.33E-04,  avg # of iterations =  1.0

     total cpu time spent up to now is       11.4 secs

     total energy              =     -48.60876856 Ry
     estimated scf accuracy    <       0.02886149 Ry

     iteration #  6     ecut=    50.00 Ry     beta= 0.20
     Davidson diagonalization with overlap
     ethr =  1.33E-04,  avg # of iterations =  1.0

     total cpu time spent up to now is       12.9 secs

     total energy              =     -48.60882672 Ry
     estimated scf accuracy    <       0.01238012 Ry

     iteration #  7     ecut=    50.00 Ry     beta= 0.20
     Davidson diagonalization with overlap
     ethr =  1.33E-04,  avg # of iterations =  1.0

     total cpu time spent up to now is       14.3 secs

     total energy              =     -48.60878979 Ry
     estimated scf accuracy    <       0.00580823 Ry

     iteration #  8     ecut=    50.00 Ry     beta= 0.20
     Davidson diagonalization with overlap
     ethr =  7.26E-05,  avg # of iterations =  1.0

     total cpu time spent up to now is       15.3 secs

     total energy              =     -48.60887515 Ry
     estimated scf accuracy    <       0.00087314 Ry

     iteration #  9     ecut=    50.00 Ry     beta= 0.20
     Davidson diagonalization with overlap
     ethr =  1.09E-05,  avg # of iterations =  1.0

     total cpu time spent up to now is       16.5 secs

     total energy              =     -48.60885606 Ry
     estimated scf accuracy    <       0.00123970 Ry

     iteration # 10     ecut=    50.00 Ry     beta= 0.20
     Davidson diagonalization with overlap
     ethr =  1.09E-05,  avg # of iterations =  1.0

     total cpu time spent up to now is       17.4 secs

     total energy              =     -48.60885953 Ry
     estimated scf accuracy    <       0.00015931 Ry

     iteration # 11     ecut=    50.00 Ry     beta= 0.20
     Davidson diagonalization with overlap
     ethr =  1.99E-06,  avg # of iterations =  1.0

     total cpu time spent up to now is       18.1 secs

     End of self-consistent calculation

          k = 0.0000 0.0000 0.0000 (   893 PWs)   bands (ev):

   -23.2552  -1.9353  -1.9353  -1.9353

          k =-0.1000 0.1000-0.1000 (   914 PWs)   bands (ev):

   -23.2348  -2.1903  -2.0319  -2.0319

          k =-0.2000 0.2000-0.2000 (   914 PWs)   bands (ev):

   -23.1773  -2.6868  -2.0587  -2.0587

          k =-0.3000 0.3000-0.3000 (   905 PWs)   bands (ev):

   -23.1047  -3.1767  -2.0703  -2.0703

          k =-0.4000 0.4000-0.4000 (   899 PWs)   bands (ev):

   -23.0453  -3.5404  -2.0851  -2.0851

          k = 0.5000-0.5000 0.5000 (   886 PWs)   bands (ev):

   -23.0217  -3.6430  -2.0592  -2.0592

          k = 0.0000 0.2000 0.0000 (   909 PWs)   bands (ev):

   -23.2270  -2.2106  -2.0355  -2.0355

          k =-0.1000 0.3000-0.1000 (   903 PWs)   bands (ev):

   -23.1808  -2.5455  -2.0710  -2.0668

          k =-0.2000 0.4000-0.2000 (   906 PWs)   bands (ev):

   -23.1132  -3.0130  -2.1535  -2.1439

          k =-0.3000 0.5000-0.3000 (   904 PWs)   bands (ev):

   -23.0491  -3.4257  -2.1970  -2.1833

          k = 0.6000-0.4000 0.6000 (   899 PWs)   bands (ev):

   -23.0136  -3.6327  -2.2501  -2.1366

          k = 0.5000-0.3000 0.5000 (   897 PWs)   bands (ev):

   -23.0212  -3.5739  -2.2761  -2.0913

          k = 0.4000-0.2000 0.4000 (   899 PWs)   bands (ev):

   -23.0690  -3.2815  -2.2591  -2.0565

          k = 0.3000-0.1000 0.3000 (   902 PWs)   bands (ev):

   -23.1375  -2.8313  -2.1981  -2.0278

          k = 0.2000 0.0000 0.2000 (   911 PWs)   bands (ev):

   -23.2008  -2.4216  -2.1248  -2.0217

          k = 0.0000 0.4000 0.0000 (   901 PWs)   bands (ev):

   -23.1482  -2.6210  -2.1921  -2.1921

          k =-0.1000 0.5000-0.1000 (   899 PWs)   bands (ev):

   -23.0910  -2.9755  -2.2918  -2.2536

          k =-0.2000 0.6000-0.2000 (   893 PWs)   bands (ev):

   -23.0303  -3.3144  -2.3859  -2.2868

          k = 0.7000-0.3000 0.7000 (   902 PWs)   bands (ev):

   -22.9903  -3.5395  -2.5660  -2.2786

          k = 0.6000-0.2000 0.6000 (   905 PWs)   bands (ev):

   -22.9862  -3.5273  -2.6730  -2.2279

          k = 0.5000-0.1000 0.5000 (   898 PWs)   bands (ev):

   -23.0195  -3.3054  -2.6822  -2.1011

          k = 0.4000 0.0000 0.4000 (   909 PWs)   bands (ev):

   -23.0781  -3.0777  -2.5338  -2.0643

          k = 0.0000 0.6000 0.0000 (   894 PWs)   bands (ev):

   -23.0466  -3.1730  -2.3713  -2.3713

          k =-0.1000 0.7000-0.1000 (   895 PWs)   bands (ev):

   -22.9970  -3.4442  -2.4957  -2.4267

          k = 0.8000-0.2000 0.8000 (   904 PWs)   bands (ev):

   -22.9612  -3.5835  -2.7339  -2.4333

          k = 0.7000-0.1000 0.7000 (   897 PWs)   bands (ev):

   -22.9522  -3.4546  -2.9794  -2.3121

          k = 0.6000-0.0000 0.6000 (   899 PWs)   bands (ev):

   -22.9748  -3.2235  -3.1011  -2.2156

          k = 0.0000 0.8000 0.0000 (   902 PWs)   bands (ev):

   -22.9616  -3.6746  -2.5406  -2.5406

          k = 0.9000-0.1000 0.9000 (   907 PWs)   bands (ev):

   -22.9375  -3.7983  -2.6401  -2.5677

          k = 0.8000 0.0000 0.8000 (   904 PWs)   bands (ev):

   -22.9338  -3.6622  -2.8903  -2.4531

          k = 0.0000-1.0000 0.0000 (   934 PWs)   bands (ev):

   -22.9298  -3.9713  -2.6706  -2.6706

          k =-0.2000 0.4000 0.0000 (   899 PWs)   bands (ev):

   -23.1290  -2.7800  -2.2710  -2.0887

          k =-0.3000 0.5000-0.1000 (   903 PWs)   bands (ev):

   -23.0648  -3.1677  -2.4324  -2.1449

          k = 0.6000-0.4000 0.8000 (   899 PWs)   bands (ev):

   -23.0117  -3.4630  -2.4979  -2.1821

          k = 0.5000-0.3000 0.7000 (   900 PWs)   bands (ev):

   -22.9914  -3.5706  -2.5405  -2.1980

          k =-0.2000 0.6000 0.0000 (   895 PWs)   bands (ev):

   -23.0370  -3.2266  -2.4751  -2.2804

          k = 0.7000-0.3000 0.9000 (   897 PWs)   bands (ev):

   -22.9881  -3.4197  -2.6849  -2.3248

          k = 0.6000-0.2000 0.8000 (   907 PWs)   bands (ev):

   -22.9634  -3.4981  -2.8767  -2.3486

          k = 0.5000-0.1000 0.7000 (   902 PWs)   bands (ev):

   -22.9718  -3.3846  -2.9415  -2.2717

          k = 0.4000 0.0000 0.6000 (   900 PWs)   bands (ev):

   -23.0107  -3.2649  -2.7800  -2.1819

          k = 0.8000-0.2000 1.0000 (   897 PWs)   bands (ev):

   -22.9595  -3.6110  -2.6453  -2.4644

          k = 0.7000-0.1000 0.9000 (   903 PWs)   bands (ev):

   -22.9394  -3.5969  -2.8902  -2.4683

          k = 0.6000 0.0000 0.8000 (   905 PWs)   bands (ev):

   -22.9441  -3.3804  -3.1442  -2.3960

          k =-0.2000-1.0000 0.0000 (   912 PWs)   bands (ev):

   -22.9299  -3.8125  -2.7297  -2.5770

          k = 0.6000-0.2000 1.0000 (   902 PWs)   bands (ev):

   -22.9539  -3.4155  -2.9836  -2.4112

          k = 0.5000-0.1000 0.9000 (   902 PWs)   bands (ev):

   -22.9407  -3.3216  -3.1857  -2.4299

          k =-0.4000-1.0000 0.0000 (   896 PWs)   bands (ev):

   -22.9312  -3.4458  -3.0464  -2.4914

     highest occupied level (ev):    -1.9353

!    total energy              =     -48.60886042 Ry
     estimated scf accuracy    <       0.00001135 Ry

     The total energy is the sum of the following terms:
     one-electron contribution =     -28.56789714 Ry
     hartree contribution      =      18.65694076 Ry
     xc contribution           =      -9.76599622 Ry
     ewald contribution        =     -28.93190782 Ry

     convergence has been achieved in  11 iterations
     Writing meta-gga kinetic term

     Writing all to output data dir ./input_pw/LiF/9/pwscf.save/
     Writing meta-gga kinetic term
 
     init_run     :      0.82s CPU      1.44s WALL (       1 calls)
     electrons    :     10.57s CPU     16.61s WALL (       1 calls)

     Called by init_run:
     wfcinit      :      0.73s CPU      1.33s WALL (       1 calls)
     potinit      :      0.02s CPU      0.02s WALL (       1 calls)
     hinit0       :      0.06s CPU      0.08s WALL (       1 calls)

     Called by electrons:
     c_bands      :      8.22s CPU     12.98s WALL (      11 calls)
     sum_band     :      2.08s CPU      3.23s WALL (      11 calls)
     v_of_rho     :      0.14s CPU      0.24s WALL (      12 calls)
     mix_rho      :      0.14s CPU      0.17s WALL (      11 calls)

     Called by c_bands:
     init_us_2    :      0.05s CPU      0.05s WALL (    1081 calls)
     init_us_2:cp :      0.04s CPU      0.05s WALL (    1081 calls)
     cegterg      :      8.17s CPU     12.93s WALL (     517 calls)

     Called by *egterg:
     cdiaghg      :      0.05s CPU      0.05s WALL (    1081 calls)
     h_psi        :      8.71s CPU     13.92s WALL (    1128 calls)
     g_psi        :      0.01s CPU      0.02s WALL (     564 calls)

     Called by h_psi:
     h_psi:calbec :      0.02s CPU      0.02s WALL (    1128 calls)
     vloc_psi     :      2.14s CPU      3.28s WALL (    1128 calls)
     add_vuspsi   :      0.02s CPU      0.04s WALL (    1128 calls)
     h_psi_meta   :      6.51s CPU     10.57s WALL (    1128 calls)

     General routines
     calbec       :      0.01s CPU      0.01s WALL (    1128 calls)
     fft          :      0.03s CPU      0.06s WALL (     141 calls)
     ffts         :      0.07s CPU      0.10s WALL (     326 calls)
     fftw         :      9.66s CPU     15.39s WALL (   45408 calls)
     interpolate  :      0.00s CPU      0.00s WALL (      12 calls)
 
     Parallel routines
 
     PWSCF        :     11.42s CPU     18.11s WALL

 
   This run was terminated on:  14:24: 4   7Jul2023            

=------------------------------------------------------------------------------=
   JOB DONE.
=------------------------------------------------------------------------------=
