
     Program PWSCF v.7.0 starts on 10Apr2023 at  9:43:44 

     This program is part of the open-source Quantum ESPRESSO suite
     for quantum simulation of materials; please cite
         "P. Giannozzi et al., J. Phys.:Condens. Matter 21 395502 (2009);
         "P. Giannozzi et al., J. Phys.:Condens. Matter 29 465901 (2017);
         "P. Giannozzi et al., J. Chem. Phys. 152 154105 (2020);
          URL http://www.quantum-espresso.org", 
     in publications or presentations arising from this work. More details at
     http://www.quantum-espresso.org/quote

     Parallel version (MPI), running on     1 processors

     MPI processes distributed on     1 nodes
     19486 MiB available memory on the printing compute node when the environment starts
 
     Waiting for input...
     Reading input from standard input
Warning: card &CELL ignored
Warning: card / ignored

     Current dimensions of program PWSCF are:
     Max number of different atomic species (ntypx) = 10
     Max number of k-points (npk) =  40000
     Max angular momentum in pseudopotentials (lmaxx) =  4

     WARNING: the MGGA functional with ID    5 has been 
     read together with other dft terms, but it should 
     stand alone in order to work properly. The other 
     terms will be ignored.

     WARNING: the MGGA functional with ID    5 has been 
     read together with other dft terms, but it should 
     stand alone in order to work properly. The other 
     terms will be ignored.

     Subspace diagonalization in iterative solution of the eigenvalue problem:
     a serial algorithm will be used

 
     G-vector sticks info
     --------------------
     sticks:   dense  smooth     PW     G-vecs:    dense   smooth      PW
     Sum         295     295     97                 3287     3287     645
 
     Using Slab Decomposition
 


     bravais-lattice index     =            2
     lattice parameter (alat)  =       6.4855  a.u.
     unit-cell volume          =      68.1991 (a.u.)^3
     number of atoms/cell      =            2
     number of atomic types    =            2
     number of electrons       =         8.00
     number of Kohn-Sham states=            4
     kinetic-energy cutoff     =      50.0000  Ry
     charge density cutoff     =     200.0000  Ry
     scf convergence threshold =      1.0E-06
     mixing beta               =       0.0100
     number of iterations used =            8  local-TF  mixing
     Exchange-correlation= SLA  PW   SCAN SCAN
                           (   0   0   0   0   0 263 267)

     celldm(1)=   6.485540  celldm(2)=   0.000000  celldm(3)=   0.000000
     celldm(4)=   0.000000  celldm(5)=   0.000000  celldm(6)=   0.000000

     crystal axes: (cart. coord. in units of alat)
               a(1) = (  -0.500000   0.000000   0.500000 )  
               a(2) = (   0.000000   0.500000   0.500000 )  
               a(3) = (  -0.500000   0.500000   0.000000 )  

     reciprocal axes: (cart. coord. in units 2 pi/alat)
               b(1) = ( -1.000000 -1.000000  1.000000 )  
               b(2) = (  1.000000  1.000000  1.000000 )  
               b(3) = ( -1.000000  1.000000 -1.000000 )  


     PseudoPot. # 1 for Li read from file:
     ~/Documents/TA/PWDFT.jl/pseudopotentials/scan_upf/Li.SCAN.UPF2
     MD5 check sum: Not computed, couldn't open file
     Pseudo is Norm-conserving, Zval =  1.0
     Generated by new atomic code, or converted to UPF format
     Using radial grid of 1321 points,  1 beta functions with: 
                l(1) =   0

     PseudoPot. # 2 for F  read from file:
     ~/Documents/TA/PWDFT.jl/pseudopotentials/scan_upf/F.SCAN.UPF2
     MD5 check sum: Not computed, couldn't open file
     Pseudo is Norm-conserving, Zval =  7.0
     Generated by new atomic code, or converted to UPF format
     Using radial grid of 1431 points,  1 beta functions with: 
                l(1) =   0

     atomic species   valence    mass     pseudopotential
        Li             1.00     6.94100     Li( 1.00)
        F              7.00    18.99800     F ( 1.00)

     48 Sym. Ops., with inversion, found



   Cartesian axes

     site n.     atom                  positions (alat units)
         1           Li  tau(   1) = (   0.0000000   0.0000000   0.0000000  )
         2           F   tau(   2) = (   0.5000000   0.5000000   0.5000000  )

     number of k points=    47
                       cart. coord. in units 2pi/alat
        k(    1) = (   0.0000000   0.0000000   0.0000000), wk =   0.0020000
        k(    2) = (  -0.1000000   0.1000000  -0.1000000), wk =   0.0160000
        k(    3) = (  -0.2000000   0.2000000  -0.2000000), wk =   0.0160000
        k(    4) = (  -0.3000000   0.3000000  -0.3000000), wk =   0.0160000
        k(    5) = (  -0.4000000   0.4000000  -0.4000000), wk =   0.0160000
        k(    6) = (   0.5000000  -0.5000000   0.5000000), wk =   0.0080000
        k(    7) = (   0.0000000   0.2000000   0.0000000), wk =   0.0120000
        k(    8) = (  -0.1000000   0.3000000  -0.1000000), wk =   0.0480000
        k(    9) = (  -0.2000000   0.4000000  -0.2000000), wk =   0.0480000
        k(   10) = (  -0.3000000   0.5000000  -0.3000000), wk =   0.0480000
        k(   11) = (   0.6000000  -0.4000000   0.6000000), wk =   0.0480000
        k(   12) = (   0.5000000  -0.3000000   0.5000000), wk =   0.0480000
        k(   13) = (   0.4000000  -0.2000000   0.4000000), wk =   0.0480000
        k(   14) = (   0.3000000  -0.1000000   0.3000000), wk =   0.0480000
        k(   15) = (   0.2000000   0.0000000   0.2000000), wk =   0.0240000
        k(   16) = (   0.0000000   0.4000000   0.0000000), wk =   0.0120000
        k(   17) = (  -0.1000000   0.5000000  -0.1000000), wk =   0.0480000
        k(   18) = (  -0.2000000   0.6000000  -0.2000000), wk =   0.0480000
        k(   19) = (   0.7000000  -0.3000000   0.7000000), wk =   0.0480000
        k(   20) = (   0.6000000  -0.2000000   0.6000000), wk =   0.0480000
        k(   21) = (   0.5000000  -0.1000000   0.5000000), wk =   0.0480000
        k(   22) = (   0.4000000   0.0000000   0.4000000), wk =   0.0240000
        k(   23) = (   0.0000000   0.6000000   0.0000000), wk =   0.0120000
        k(   24) = (  -0.1000000   0.7000000  -0.1000000), wk =   0.0480000
        k(   25) = (   0.8000000  -0.2000000   0.8000000), wk =   0.0480000
        k(   26) = (   0.7000000  -0.1000000   0.7000000), wk =   0.0480000
        k(   27) = (   0.6000000  -0.0000000   0.6000000), wk =   0.0240000
        k(   28) = (   0.0000000   0.8000000   0.0000000), wk =   0.0120000
        k(   29) = (   0.9000000  -0.1000000   0.9000000), wk =   0.0480000
        k(   30) = (   0.8000000   0.0000000   0.8000000), wk =   0.0240000
        k(   31) = (   0.0000000  -1.0000000   0.0000000), wk =   0.0060000
        k(   32) = (  -0.2000000   0.4000000   0.0000000), wk =   0.0480000
        k(   33) = (  -0.3000000   0.5000000  -0.1000000), wk =   0.0960000
        k(   34) = (   0.6000000  -0.4000000   0.8000000), wk =   0.0960000
        k(   35) = (   0.5000000  -0.3000000   0.7000000), wk =   0.0480000
        k(   36) = (  -0.2000000   0.6000000   0.0000000), wk =   0.0480000
        k(   37) = (   0.7000000  -0.3000000   0.9000000), wk =   0.0960000
        k(   38) = (   0.6000000  -0.2000000   0.8000000), wk =   0.0960000
        k(   39) = (   0.5000000  -0.1000000   0.7000000), wk =   0.0960000
        k(   40) = (   0.4000000   0.0000000   0.6000000), wk =   0.0480000
        k(   41) = (   0.8000000  -0.2000000   1.0000000), wk =   0.0480000
        k(   42) = (   0.7000000  -0.1000000   0.9000000), wk =   0.0960000
        k(   43) = (   0.6000000   0.0000000   0.8000000), wk =   0.0480000
        k(   44) = (  -0.2000000  -1.0000000   0.0000000), wk =   0.0240000
        k(   45) = (   0.6000000  -0.2000000   1.0000000), wk =   0.0480000
        k(   46) = (   0.5000000  -0.1000000   0.9000000), wk =   0.0480000
        k(   47) = (  -0.4000000  -1.0000000   0.0000000), wk =   0.0240000

     Dense  grid:     3287 G-vectors     FFT dimensions: (  24,  24,  24)

     Estimated max dynamical RAM per process >       6.63 MB

     WARNING: libxc functional with ID  263 depends
      on external parameters: check the user_guide of
      QE if you need to modify them or to check their
      default values.

     Initial potential from superposition of free atoms

     starting charge       7.9953, renormalised to       8.0000
     Starting wfcs are    8 randomized atomic wfcs

     total cpu time spent up to now is        1.4 secs

     Self-consistent Calculation

     iteration #  1     ecut=    50.00 Ry     beta= 0.01
     Davidson diagonalization with overlap
     ethr =  1.00E-02,  avg # of iterations =  2.0

     total cpu time spent up to now is        3.4 secs

     total energy              =     -48.31851865 Ry
     estimated scf accuracy    <      18.20209916 Ry

     iteration #  2     ecut=    50.00 Ry     beta= 0.01
     Davidson diagonalization with overlap
     ethr =  1.00E-02,  avg # of iterations =  1.0

     total cpu time spent up to now is        4.7 secs

     total energy              =     -48.37126647 Ry
     estimated scf accuracy    <      17.71917723 Ry

     iteration #  3     ecut=    50.00 Ry     beta= 0.01
     Davidson diagonalization with overlap
     ethr =  1.00E-02,  avg # of iterations =  1.0

     total cpu time spent up to now is        6.2 secs

     total energy              =     -48.38244500 Ry
     estimated scf accuracy    <       2.51239306 Ry

     iteration #  4     ecut=    50.00 Ry     beta= 0.01
     Davidson diagonalization with overlap
     ethr =  1.00E-02,  avg # of iterations =  1.0

     total cpu time spent up to now is        7.8 secs

     total energy              =     -48.38285933 Ry
     estimated scf accuracy    <       0.00393725 Ry

     iteration #  5     ecut=    50.00 Ry     beta= 0.01
     Davidson diagonalization with overlap
     ethr =  4.92E-05,  avg # of iterations =  1.0

     total cpu time spent up to now is        9.2 secs

     total energy              =     -48.38287070 Ry
     estimated scf accuracy    <       0.00374791 Ry

     iteration #  6     ecut=    50.00 Ry     beta= 0.01
     Davidson diagonalization with overlap
     ethr =  4.68E-05,  avg # of iterations =  1.0

     total cpu time spent up to now is       10.7 secs

     total energy              =     -48.38249192 Ry
     estimated scf accuracy    <       0.00375733 Ry

     iteration #  7     ecut=    50.00 Ry     beta= 0.01
     Davidson diagonalization with overlap
     ethr =  4.68E-05,  avg # of iterations =  2.0

     total cpu time spent up to now is       12.6 secs

     total energy              =     -48.38330829 Ry
     estimated scf accuracy    <       0.00899710 Ry

     iteration #  8     ecut=    50.00 Ry     beta= 0.01
     Davidson diagonalization with overlap
     ethr =  4.68E-05,  avg # of iterations =  1.0

     total cpu time spent up to now is       13.6 secs

     total energy              =     -48.38355162 Ry
     estimated scf accuracy    <       0.02674002 Ry

     iteration #  9     ecut=    50.00 Ry     beta= 0.01
     Davidson diagonalization with overlap
     ethr =  4.68E-05,  avg # of iterations =  1.0

     total cpu time spent up to now is       14.9 secs

     total energy              =     -48.38368284 Ry
     estimated scf accuracy    <       0.02922051 Ry

     iteration # 10     ecut=    50.00 Ry     beta= 0.01
     Davidson diagonalization with overlap
     ethr =  4.68E-05,  avg # of iterations =  1.0

     total cpu time spent up to now is       16.2 secs

     total energy              =     -48.38311881 Ry
     estimated scf accuracy    <       0.03618265 Ry

     iteration # 11     ecut=    50.00 Ry     beta= 0.01
     Davidson diagonalization with overlap
     ethr =  4.68E-05,  avg # of iterations =  1.0

     total cpu time spent up to now is       17.4 secs

     total energy              =     -48.38315419 Ry
     estimated scf accuracy    <       0.00320316 Ry

     iteration # 12     ecut=    50.00 Ry     beta= 0.01
     Davidson diagonalization with overlap
     ethr =  4.00E-05,  avg # of iterations =  1.0

     total cpu time spent up to now is       18.7 secs

     total energy              =     -48.38316391 Ry
     estimated scf accuracy    <       0.00058984 Ry

     iteration # 13     ecut=    50.00 Ry     beta= 0.01
     Davidson diagonalization with overlap
     ethr =  7.37E-06,  avg # of iterations =  1.0

     total cpu time spent up to now is       20.1 secs

     total energy              =     -48.38300340 Ry
     estimated scf accuracy    <       0.00042151 Ry

     iteration # 14     ecut=    50.00 Ry     beta= 0.01
     Davidson diagonalization with overlap
     ethr =  5.27E-06,  avg # of iterations =  2.0

     total cpu time spent up to now is       22.2 secs

     total energy              =     -48.38304380 Ry
     estimated scf accuracy    <       0.01632594 Ry

     iteration # 15     ecut=    50.00 Ry     beta= 0.01
     Davidson diagonalization with overlap
     ethr =  5.27E-06,  avg # of iterations =  1.0

     total cpu time spent up to now is       23.8 secs

     total energy              =     -48.38310803 Ry
     estimated scf accuracy    <       0.02784625 Ry

     iteration # 16     ecut=    50.00 Ry     beta= 0.01
     Davidson diagonalization with overlap
     ethr =  5.27E-06,  avg # of iterations =  2.0

     total cpu time spent up to now is       25.4 secs

     total energy              =     -48.38315465 Ry
     estimated scf accuracy    <       0.00022580 Ry

     iteration # 17     ecut=    50.00 Ry     beta= 0.01
     Davidson diagonalization with overlap
     ethr =  2.82E-06,  avg # of iterations =  1.0

     total cpu time spent up to now is       26.6 secs

     total energy              =     -48.38316264 Ry
     estimated scf accuracy    <       0.00053660 Ry

     iteration # 18     ecut=    50.00 Ry     beta= 0.01
     Davidson diagonalization with overlap
     ethr =  2.82E-06,  avg # of iterations =  1.0

     total cpu time spent up to now is       27.6 secs

     total energy              =     -48.38316433 Ry
     estimated scf accuracy    <       0.00002001 Ry

     iteration # 19     ecut=    50.00 Ry     beta= 0.01
     Davidson diagonalization with overlap
     ethr =  2.50E-07,  avg # of iterations =  1.0

     total cpu time spent up to now is       28.7 secs

     total energy              =     -48.38316464 Ry
     estimated scf accuracy    <       0.00000248 Ry

     iteration # 20     ecut=    50.00 Ry     beta= 0.01
     Davidson diagonalization with overlap
     ethr =  3.10E-08,  avg # of iterations =  1.0

     total cpu time spent up to now is       29.3 secs

     total energy              =     -48.38316424 Ry
     estimated scf accuracy    <       0.00002000 Ry

     iteration # 21     ecut=    50.00 Ry     beta= 0.01
     Davidson diagonalization with overlap
     ethr =  3.10E-08,  avg # of iterations =  1.0

     total cpu time spent up to now is       30.1 secs

     End of self-consistent calculation

          k = 0.0000 0.0000 0.0000 (   411 PWs)   bands (ev):

   -19.1673   4.8572   4.8572   4.8572

          k =-0.1000 0.1000-0.1000 (   405 PWs)   bands (ev):

   -19.0681   4.4801   4.8366   4.8366

          k =-0.2000 0.2000-0.2000 (   402 PWs)   bands (ev):

   -18.8003   3.2779   4.7339   4.7339

          k =-0.3000 0.3000-0.3000 (   401 PWs)   bands (ev):

   -18.4446   1.7817   4.6435   4.6435

          k =-0.4000 0.4000-0.4000 (   407 PWs)   bands (ev):

   -18.1334   0.6649   4.4774   4.4774

          k = 0.5000-0.5000 0.5000 (   410 PWs)   bands (ev):

   -18.0084   0.3362   4.3420   4.3420

          k = 0.0000 0.2000 0.0000 (   399 PWs)   bands (ev):

   -19.0318   4.6840   4.6897   4.6897

          k =-0.1000 0.3000-0.1000 (   400 PWs)   bands (ev):

   -18.8129   3.6197   4.4484   4.6955

          k =-0.2000 0.4000-0.2000 (   403 PWs)   bands (ev):

   -18.4737   2.1999   4.2737   4.4700

          k =-0.3000 0.5000-0.3000 (   411 PWs)   bands (ev):

   -18.1327   0.9480   4.1317   4.1338

          k = 0.6000-0.4000 0.6000 (   407 PWs)   bands (ev):

   -17.9345   0.4101   3.8507   4.1953

          k = 0.5000-0.3000 0.5000 (   403 PWs)   bands (ev):

   -17.9799   0.5488   3.7822   4.4219

          k = 0.4000-0.2000 0.4000 (   405 PWs)   bands (ev):

   -18.2457   1.3833   3.8224   4.6647

          k = 0.3000-0.1000 0.3000 (   396 PWs)   bands (ev):

   -18.6021   2.7578   4.1107   4.9158

          k = 0.2000 0.0000 0.2000 (   395 PWs)   bands (ev):

   -18.9095   3.9800   4.4935   4.9945

          k = 0.0000 0.4000 0.0000 (   407 PWs)   bands (ev):

   -18.6383   3.3680   4.0605   4.0605

          k =-0.1000 0.5000-0.1000 (   409 PWs)   bands (ev):

   -18.3257   2.1366   3.7957   3.8127

          k =-0.2000 0.6000-0.2000 (   413 PWs)   bands (ev):

   -17.9778   1.0130   3.3293   3.6223

          k = 0.7000-0.3000 0.7000 (   407 PWs)   bands (ev):

   -17.7358   0.4059   2.8355   3.7746

          k = 0.6000-0.2000 0.6000 (   404 PWs)   bands (ev):

   -17.7188   0.4899   2.4765   4.0703

          k = 0.5000-0.1000 0.5000 (   408 PWs)   bands (ev):

   -17.9358   1.1596   2.4302   4.4063

          k = 0.4000 0.0000 0.4000 (   409 PWs)   bands (ev):

   -18.2790   2.0640   2.9314   4.7094

          k = 0.0000 0.6000 0.0000 (   415 PWs)   bands (ev):

   -18.0409   1.2999   3.3860   3.3860

          k =-0.1000 0.7000-0.1000 (   412 PWs)   bands (ev):

   -17.7144   0.3694   2.9904   3.1903

          k = 0.8000-0.2000 0.8000 (   408 PWs)   bands (ev):

   -17.4759  -0.0992   2.3854   3.2455

          k = 0.7000-0.1000 0.7000 (   404 PWs)   bands (ev):

   -17.4385   0.1349   1.7851   3.5285

          k = 0.6000-0.0000 0.6000 (   403 PWs)   bands (ev):

   -17.6221   0.9996   1.4326   3.9504

          k = 0.0000 0.8000 0.0000 (   416 PWs)   bands (ev):

   -17.4346  -0.4932   2.8568   2.8568

          k = 0.9000-0.1000 0.9000 (   415 PWs)   bands (ev):

   -17.2526  -0.8911   2.5121   2.8042

          k = 0.8000 0.0000 0.8000 (   405 PWs)   bands (ev):

   -17.2537  -0.5955   2.0769   3.0898

          k = 0.0000-1.0000 0.0000 (   412 PWs)   bands (ev):

   -17.1627  -1.2367   2.7128   2.7128

          k =-0.2000 0.4000 0.0000 (   408 PWs)   bands (ev):

   -18.5491   2.7866   3.7700   4.5275

          k =-0.3000 0.5000-0.1000 (   407 PWs)   bands (ev):

   -18.1973   1.6701   3.2472   4.3725

          k = 0.6000-0.4000 0.8000 (   409 PWs)   bands (ev):

   -17.8894   0.7208   2.9572   4.1373

          k = 0.5000-0.3000 0.7000 (   410 PWs)   bands (ev):

   -17.7655   0.3938   2.8555   3.9913

          k =-0.2000 0.6000 0.0000 (   413 PWs)   bands (ev):

   -18.0004   1.2335   2.9789   3.7392

          k = 0.7000-0.3000 0.9000 (   406 PWs)   bands (ev):

   -17.6878   0.5541   2.3610   3.6718

          k = 0.6000-0.2000 0.8000 (   408 PWs)   bands (ev):

   -17.5269   0.3265   1.8196   3.6712

          k = 0.5000-0.1000 0.7000 (   408 PWs)   bands (ev):

   -17.5964   0.7256   1.5873   3.8430

          k = 0.4000 0.0000 0.6000 (   406 PWs)   bands (ev):

   -17.8609   1.2846   2.0636   4.1625

          k = 0.8000-0.2000 1.0000 (   412 PWs)   bands (ev):

   -17.4447  -0.2655   2.4305   3.1171

          k = 0.7000-0.1000 0.9000 (   408 PWs)   bands (ev):

   -17.3061  -0.3398   1.7901   3.2607

          k = 0.6000 0.0000 0.8000 (   410 PWs)   bands (ev):

   -17.3675   0.2003   1.2621   3.4793

          k =-0.2000-1.0000 0.0000 (   414 PWs)   bands (ev):

   -17.1979  -0.9553   2.2487   2.8917

          k = 0.6000-0.2000 1.0000 (   408 PWs)   bands (ev):

   -17.4388   0.3657   1.3691   3.5590

          k = 0.5000-0.1000 0.9000 (   404 PWs)   bands (ev):

   -17.3392   0.5070   0.8296   3.5580

          k =-0.4000-1.0000 0.0000 (   404 PWs)   bands (ev):

   -17.2522  -0.0795   1.1559   3.4173

     highest occupied level (ev):     4.9945

!    total energy              =     -48.38316438 Ry
     estimated scf accuracy    <          9.4E-09 Ry

     The total energy is the sum of the following terms:
     one-electron contribution =     -13.44473525 Ry
     hartree contribution      =      12.85937426 Ry
     xc contribution           =     -10.09865078 Ry
     ewald contribution        =     -37.69915260 Ry

     convergence has been achieved in  21 iterations
     Writing meta-gga kinetic term

     Writing all to output data dir ./input_pw/LiF/3/pwscf.save/
     Writing meta-gga kinetic term
 
     init_run     :      0.57s CPU      1.27s WALL (       1 calls)
     electrons    :     14.76s CPU     28.70s WALL (       1 calls)

     Called by init_run:
     wfcinit      :      0.49s CPU      1.10s WALL (       1 calls)
     potinit      :      0.01s CPU      0.02s WALL (       1 calls)
     hinit0       :      0.06s CPU      0.14s WALL (       1 calls)

     Called by electrons:
     c_bands      :     11.67s CPU     22.80s WALL (      21 calls)
     sum_band     :      2.78s CPU      5.26s WALL (      21 calls)
     v_of_rho     :      0.18s CPU      0.37s WALL (      22 calls)
     mix_rho      :      0.14s CPU      0.25s WALL (      21 calls)

     Called by c_bands:
     init_us_2    :      0.05s CPU      0.10s WALL (    2021 calls)
     init_us_2:cp :      0.04s CPU      0.09s WALL (    2021 calls)
     cegterg      :     11.61s CPU     22.71s WALL (     987 calls)

     Called by *egterg:
     cdiaghg      :      0.09s CPU      0.15s WALL (    2162 calls)
     h_psi        :     11.85s CPU     23.35s WALL (    2209 calls)
     g_psi        :      0.01s CPU      0.01s WALL (    1175 calls)

     Called by h_psi:
     h_psi:calbec :      0.02s CPU      0.02s WALL (    2209 calls)
     vloc_psi     :      2.93s CPU      5.86s WALL (    2209 calls)
     add_vuspsi   :      0.03s CPU      0.05s WALL (    2209 calls)
     h_psi_meta   :      8.84s CPU     17.36s WALL (    2209 calls)

     General routines
     calbec       :      0.01s CPU      0.01s WALL (    2209 calls)
     fft          :      0.04s CPU      0.07s WALL (     261 calls)
     ffts         :      0.08s CPU      0.14s WALL (     522 calls)
     fftw         :     13.15s CPU     25.78s WALL (   87520 calls)
     interpolate  :      0.00s CPU      0.00s WALL (      22 calls)
 
     Parallel routines
 
     PWSCF        :     15.38s CPU     30.11s WALL

 
   This run was terminated on:   9:44:14  10Apr2023            

=------------------------------------------------------------------------------=
   JOB DONE.
=------------------------------------------------------------------------------=
