
     Program PWSCF v.7.0 starts on  7Jul2023 at 14:23:45 

     This program is part of the open-source Quantum ESPRESSO suite
     for quantum simulation of materials; please cite
         "P. Giannozzi et al., J. Phys.:Condens. Matter 21 395502 (2009);
         "P. Giannozzi et al., J. Phys.:Condens. Matter 29 465901 (2017);
         "P. Giannozzi et al., J. Chem. Phys. 152 154105 (2020);
          URL http://www.quantum-espresso.org", 
     in publications or presentations arising from this work. More details at
     http://www.quantum-espresso.org/quote

     Parallel version (MPI), running on     1 processors

     MPI processes distributed on     1 nodes
     27317 MiB available memory on the printing compute node when the environment starts
 
     Waiting for input...
     Reading input from standard input
Warning: card &CELL ignored
Warning: card / ignored

     Current dimensions of program PWSCF are:
     Max number of different atomic species (ntypx) = 10
     Max number of k-points (npk) =  40000
     Max angular momentum in pseudopotentials (lmaxx) =  4

     WARNING: the MGGA functional with ID    5 has been 
     read together with other dft terms, but it should 
     stand alone in order to work properly. The other 
     terms will be ignored.

     WARNING: the MGGA functional with ID    5 has been 
     read together with other dft terms, but it should 
     stand alone in order to work properly. The other 
     terms will be ignored.

     Subspace diagonalization in iterative solution of the eigenvalue problem:
     a serial algorithm will be used

 
     G-vector sticks info
     --------------------
     sticks:   dense  smooth     PW     G-vecs:    dense   smooth      PW
     Sum         361     361    121                 4381     4381     869
 
     Using Slab Decomposition
 


     bravais-lattice index     =            2
     lattice parameter (alat)  =       7.1507  a.u.
     unit-cell volume          =      91.4092 (a.u.)^3
     number of atoms/cell      =            2
     number of atomic types    =            2
     number of electrons       =         8.00
     number of Kohn-Sham states=            4
     kinetic-energy cutoff     =      50.0000  Ry
     charge density cutoff     =     200.0000  Ry
     scf convergence threshold =      2.0E-05
     mixing beta               =       0.2000
     number of iterations used =            8  local-TF  mixing
     Exchange-correlation= SLA  PW   SCAN SCAN
                           (   0   0   0   0   0 263 267)

     celldm(1)=   7.150724  celldm(2)=   0.000000  celldm(3)=   0.000000
     celldm(4)=   0.000000  celldm(5)=   0.000000  celldm(6)=   0.000000

     crystal axes: (cart. coord. in units of alat)
               a(1) = (  -0.500000   0.000000   0.500000 )  
               a(2) = (   0.000000   0.500000   0.500000 )  
               a(3) = (  -0.500000   0.500000   0.000000 )  

     reciprocal axes: (cart. coord. in units 2 pi/alat)
               b(1) = ( -1.000000 -1.000000  1.000000 )  
               b(2) = (  1.000000  1.000000  1.000000 )  
               b(3) = ( -1.000000  1.000000 -1.000000 )  


     PseudoPot. # 1 for Li read from file:
     ~/Documents/TA/PWDFT.jl/pseudopotentials/scan_upf/Li.SCAN.UPF2
     MD5 check sum: Not computed, couldn't open file
     Pseudo is Norm-conserving, Zval =  1.0
     Generated by new atomic code, or converted to UPF format
     Using radial grid of 1321 points,  1 beta functions with: 
                l(1) =   0

     PseudoPot. # 2 for F  read from file:
     ~/Documents/TA/PWDFT.jl/pseudopotentials/scan_upf/F.SCAN.UPF2
     MD5 check sum: Not computed, couldn't open file
     Pseudo is Norm-conserving, Zval =  7.0
     Generated by new atomic code, or converted to UPF format
     Using radial grid of 1431 points,  1 beta functions with: 
                l(1) =   0

     atomic species   valence    mass     pseudopotential
        Li             1.00     6.94100     Li( 1.00)
        F              7.00    18.99800     F ( 1.00)

     48 Sym. Ops., with inversion, found



   Cartesian axes

     site n.     atom                  positions (alat units)
         1           Li  tau(   1) = (   0.0000000   0.0000000   0.0000000  )
         2           F   tau(   2) = (   0.5000000   0.5000000   0.5000000  )

     number of k points=    47
                       cart. coord. in units 2pi/alat
        k(    1) = (   0.0000000   0.0000000   0.0000000), wk =   0.0020000
        k(    2) = (  -0.1000000   0.1000000  -0.1000000), wk =   0.0160000
        k(    3) = (  -0.2000000   0.2000000  -0.2000000), wk =   0.0160000
        k(    4) = (  -0.3000000   0.3000000  -0.3000000), wk =   0.0160000
        k(    5) = (  -0.4000000   0.4000000  -0.4000000), wk =   0.0160000
        k(    6) = (   0.5000000  -0.5000000   0.5000000), wk =   0.0080000
        k(    7) = (   0.0000000   0.2000000   0.0000000), wk =   0.0120000
        k(    8) = (  -0.1000000   0.3000000  -0.1000000), wk =   0.0480000
        k(    9) = (  -0.2000000   0.4000000  -0.2000000), wk =   0.0480000
        k(   10) = (  -0.3000000   0.5000000  -0.3000000), wk =   0.0480000
        k(   11) = (   0.6000000  -0.4000000   0.6000000), wk =   0.0480000
        k(   12) = (   0.5000000  -0.3000000   0.5000000), wk =   0.0480000
        k(   13) = (   0.4000000  -0.2000000   0.4000000), wk =   0.0480000
        k(   14) = (   0.3000000  -0.1000000   0.3000000), wk =   0.0480000
        k(   15) = (   0.2000000   0.0000000   0.2000000), wk =   0.0240000
        k(   16) = (   0.0000000   0.4000000   0.0000000), wk =   0.0120000
        k(   17) = (  -0.1000000   0.5000000  -0.1000000), wk =   0.0480000
        k(   18) = (  -0.2000000   0.6000000  -0.2000000), wk =   0.0480000
        k(   19) = (   0.7000000  -0.3000000   0.7000000), wk =   0.0480000
        k(   20) = (   0.6000000  -0.2000000   0.6000000), wk =   0.0480000
        k(   21) = (   0.5000000  -0.1000000   0.5000000), wk =   0.0480000
        k(   22) = (   0.4000000   0.0000000   0.4000000), wk =   0.0240000
        k(   23) = (   0.0000000   0.6000000   0.0000000), wk =   0.0120000
        k(   24) = (  -0.1000000   0.7000000  -0.1000000), wk =   0.0480000
        k(   25) = (   0.8000000  -0.2000000   0.8000000), wk =   0.0480000
        k(   26) = (   0.7000000  -0.1000000   0.7000000), wk =   0.0480000
        k(   27) = (   0.6000000  -0.0000000   0.6000000), wk =   0.0240000
        k(   28) = (   0.0000000   0.8000000   0.0000000), wk =   0.0120000
        k(   29) = (   0.9000000  -0.1000000   0.9000000), wk =   0.0480000
        k(   30) = (   0.8000000   0.0000000   0.8000000), wk =   0.0240000
        k(   31) = (   0.0000000  -1.0000000   0.0000000), wk =   0.0060000
        k(   32) = (  -0.2000000   0.4000000   0.0000000), wk =   0.0480000
        k(   33) = (  -0.3000000   0.5000000  -0.1000000), wk =   0.0960000
        k(   34) = (   0.6000000  -0.4000000   0.8000000), wk =   0.0960000
        k(   35) = (   0.5000000  -0.3000000   0.7000000), wk =   0.0480000
        k(   36) = (  -0.2000000   0.6000000   0.0000000), wk =   0.0480000
        k(   37) = (   0.7000000  -0.3000000   0.9000000), wk =   0.0960000
        k(   38) = (   0.6000000  -0.2000000   0.8000000), wk =   0.0960000
        k(   39) = (   0.5000000  -0.1000000   0.7000000), wk =   0.0960000
        k(   40) = (   0.4000000   0.0000000   0.6000000), wk =   0.0480000
        k(   41) = (   0.8000000  -0.2000000   1.0000000), wk =   0.0480000
        k(   42) = (   0.7000000  -0.1000000   0.9000000), wk =   0.0960000
        k(   43) = (   0.6000000   0.0000000   0.8000000), wk =   0.0480000
        k(   44) = (  -0.2000000  -1.0000000   0.0000000), wk =   0.0240000
        k(   45) = (   0.6000000  -0.2000000   1.0000000), wk =   0.0480000
        k(   46) = (   0.5000000  -0.1000000   0.9000000), wk =   0.0480000
        k(   47) = (  -0.4000000  -1.0000000   0.0000000), wk =   0.0240000

     Dense  grid:     4381 G-vectors     FFT dimensions: (  24,  24,  24)

     Estimated max dynamical RAM per process >       8.32 MB

     WARNING: libxc functional with ID  263 depends
      on external parameters: check the user_guide of
      QE if you need to modify them or to check their
      default values.

     Initial potential from superposition of free atoms

     starting charge       7.9953, renormalised to       8.0000
     Starting wfcs are    8 randomized atomic wfcs

     total cpu time spent up to now is        1.5 secs

     Self-consistent Calculation

     iteration #  1     ecut=    50.00 Ry     beta= 0.20
     Davidson diagonalization with overlap
     ethr =  1.00E-02,  avg # of iterations =  2.0

     total cpu time spent up to now is        3.2 secs

     total energy              =     -48.54359521 Ry
     estimated scf accuracy    <      17.80841067 Ry

     iteration #  2     ecut=    50.00 Ry     beta= 0.20
     Davidson diagonalization with overlap
     ethr =  1.00E-02,  avg # of iterations =  1.0

     total cpu time spent up to now is        4.5 secs

     total energy              =     -48.54850325 Ry
     estimated scf accuracy    <      11.50164682 Ry

     iteration #  3     ecut=    50.00 Ry     beta= 0.20
     Davidson diagonalization with overlap
     ethr =  1.00E-02,  avg # of iterations =  1.0

     total cpu time spent up to now is        5.8 secs

     total energy              =     -48.55098322 Ry
     estimated scf accuracy    <       0.00985517 Ry

     iteration #  4     ecut=    50.00 Ry     beta= 0.20
     Davidson diagonalization with overlap
     ethr =  1.23E-04,  avg # of iterations =  1.0

     total cpu time spent up to now is        7.0 secs

     total energy              =     -48.55131529 Ry
     estimated scf accuracy    <       0.00620817 Ry

     iteration #  5     ecut=    50.00 Ry     beta= 0.20
     Davidson diagonalization with overlap
     ethr =  7.76E-05,  avg # of iterations =  1.0

     total cpu time spent up to now is        8.3 secs

     total energy              =     -48.55152631 Ry
     estimated scf accuracy    <       0.00090107 Ry

     iteration #  6     ecut=    50.00 Ry     beta= 0.20
     Davidson diagonalization with overlap
     ethr =  1.13E-05,  avg # of iterations =  1.0

     total cpu time spent up to now is        9.7 secs

     total energy              =     -48.55156008 Ry
     estimated scf accuracy    <       0.00007400 Ry

     iteration #  7     ecut=    50.00 Ry     beta= 0.20
     Davidson diagonalization with overlap
     ethr =  9.25E-07,  avg # of iterations =  1.0

     total cpu time spent up to now is       11.0 secs

     End of self-consistent calculation

          k = 0.0000 0.0000 0.0000 (   537 PWs)   bands (ev):

   -21.0914   1.5718   1.5718   1.5718

          k =-0.1000 0.1000-0.1000 (   537 PWs)   bands (ev):

   -21.0255   1.1905   1.5569   1.5569

          k =-0.2000 0.2000-0.2000 (   552 PWs)   bands (ev):

   -20.8502   0.2092   1.4143   1.4143

          k =-0.3000 0.3000-0.3000 (   555 PWs)   bands (ev):

   -20.6220  -0.6914   1.2541   1.2541

          k =-0.4000 0.4000-0.4000 (   547 PWs)   bands (ev):

   -20.4273  -1.3838   1.2110   1.2110

          k = 0.5000-0.5000 0.5000 (   568 PWs)   bands (ev):

   -20.3530  -1.8004   1.1001   1.1001

          k = 0.0000 0.2000 0.0000 (   540 PWs)   bands (ev):

   -21.0028   1.2353   1.4290   1.4290

          k =-0.1000 0.3000-0.1000 (   551 PWs)   bands (ev):

   -20.8612   0.4500   1.2607   1.3304

          k =-0.2000 0.4000-0.2000 (   549 PWs)   bands (ev):

   -20.6451  -0.4143   1.1114   1.1979

          k =-0.3000 0.5000-0.3000 (   546 PWs)   bands (ev):

   -20.4340  -1.1895   1.0116   1.0829

          k = 0.6000-0.4000 0.6000 (   552 PWs)   bands (ev):

   -20.3156  -1.6605   0.8718   1.0614

          k = 0.5000-0.3000 0.5000 (   551 PWs)   bands (ev):

   -20.3424  -1.5417   0.7882   1.1671

          k = 0.4000-0.2000 0.4000 (   546 PWs)   bands (ev):

   -20.5019  -0.9171   0.8286   1.3361

          k = 0.3000-0.1000 0.3000 (   548 PWs)   bands (ev):

   -20.7250  -0.0795   0.9976   1.4429

          k = 0.2000 0.0000 0.2000 (   547 PWs)   bands (ev):

   -20.9225   0.6945   1.2329   1.5749

          k = 0.0000 0.4000 0.0000 (   556 PWs)   bands (ev):

   -20.7551   0.2355   1.0073   1.0073

          k =-0.1000 0.5000-0.1000 (   551 PWs)   bands (ev):

   -20.5654  -0.4449   0.8178   0.8392

          k =-0.2000 0.6000-0.2000 (   549 PWs)   bands (ev):

   -20.3596  -1.1373   0.5219   0.7633

          k = 0.7000-0.3000 0.7000 (   547 PWs)   bands (ev):

   -20.2197  -1.5449   0.2156   0.8156

          k = 0.6000-0.2000 0.6000 (   551 PWs)   bands (ev):

   -20.2075  -1.5068  -0.0414   0.9414

          k = 0.5000-0.1000 0.5000 (   543 PWs)   bands (ev):

   -20.3273  -1.0328  -0.0004   1.1890

          k = 0.4000 0.0000 0.4000 (   550 PWs)   bands (ev):

   -20.5275  -0.5126   0.3401   1.3321

          k = 0.0000 0.6000 0.0000 (   552 PWs)   bands (ev):

   -20.4080  -0.9413   0.5778   0.5778

          k =-0.1000 0.7000-0.1000 (   543 PWs)   bands (ev):

   -20.2278  -1.4925   0.3805   0.4736

          k = 0.8000-0.2000 0.8000 (   548 PWs)   bands (ev):

   -20.0976  -1.7808  -0.0977   0.4825

          k = 0.7000-0.1000 0.7000 (   545 PWs)   bands (ev):

   -20.0714  -1.5776  -0.5669   0.6761

          k = 0.6000-0.0000 0.6000 (   546 PWs)   bands (ev):

   -20.1613  -0.9375  -0.9299   0.9343

          k = 0.0000 0.8000 0.0000 (   556 PWs)   bands (ev):

   -20.0891  -2.0571   0.2310   0.2310

          k = 0.9000-0.1000 0.9000 (   546 PWs)   bands (ev):

   -19.9952  -2.2417   0.0361   0.2626

          k = 0.8000 0.0000 0.8000 (   542 PWs)   bands (ev):

   -19.9886  -2.0172  -0.2966   0.3760

          k = 0.0000-1.0000 0.0000 (   524 PWs)   bands (ev):

   -19.9529  -2.3530   0.2573   0.2573

          k =-0.2000 0.4000 0.0000 (   548 PWs)   bands (ev):

   -20.6951  -0.0298   0.8239   1.3010

          k =-0.3000 0.5000-0.1000 (   546 PWs)   bands (ev):

   -20.4812  -0.7273   0.4905   1.1788

          k = 0.6000-0.4000 0.8000 (   546 PWs)   bands (ev):

   -20.3005  -1.3370   0.3226   1.0250

          k = 0.5000-0.3000 0.7000 (   548 PWs)   bands (ev):

   -20.2294  -1.5978   0.2785   0.9480

          k =-0.2000 0.6000 0.0000 (   543 PWs)   bands (ev):

   -20.3778  -0.9628   0.3796   0.8298

          k = 0.7000-0.3000 0.9000 (   549 PWs)   bands (ev):

   -20.2043  -1.4226  -0.0635   0.6952

          k = 0.6000-0.2000 0.8000 (   545 PWs)   bands (ev):

   -20.1140  -1.5106  -0.4142   0.7183

          k = 0.5000-0.1000 0.7000 (   546 PWs)   bands (ev):

   -20.1484  -1.2699  -0.5765   0.8299

          k = 0.4000 0.0000 0.6000 (   548 PWs)   bands (ev):

   -20.2915  -1.0031  -0.2337   1.0133

          k = 0.8000-0.2000 1.0000 (   545 PWs)   bands (ev):

   -20.0869  -1.8721  -0.0026   0.4366

          k = 0.7000-0.1000 0.9000 (   541 PWs)   bands (ev):

   -20.0122  -1.8463  -0.4075   0.4510

          k = 0.6000 0.0000 0.8000 (   539 PWs)   bands (ev):

   -20.0362  -1.3949  -0.8436   0.6004

          k =-0.2000-1.0000 0.0000 (   540 PWs)   bands (ev):

   -19.9657  -2.2084  -0.0972   0.2755

          k = 0.6000-0.2000 1.0000 (   540 PWs)   bands (ev):

   -20.0736  -1.4418  -0.6246   0.6289

          k = 0.5000-0.1000 0.9000 (   540 PWs)   bands (ev):

   -20.0230  -1.2949  -1.0242   0.5766

          k =-0.4000-1.0000 0.0000 (   534 PWs)   bands (ev):

   -19.9831  -1.5726  -0.8165   0.4837

     highest occupied level (ev):     1.5749

!    total energy              =     -48.55156301 Ry
     estimated scf accuracy    <       0.00001480 Ry

     The total energy is the sum of the following terms:
     one-electron contribution =     -19.39440333 Ry
     hartree contribution      =      14.98078733 Ry
     xc contribution           =      -9.94569231 Ry
     ewald contribution        =     -34.19225470 Ry

     convergence has been achieved in   7 iterations
     Writing meta-gga kinetic term

     Writing all to output data dir ./input_pw/LiF/3/pwscf.save/
     Writing meta-gga kinetic term
 
     init_run     :      0.58s CPU      1.38s WALL (       1 calls)
     electrons    :      4.66s CPU      9.50s WALL (       1 calls)

     Called by init_run:
     wfcinit      :      0.50s CPU      1.20s WALL (       1 calls)
     potinit      :      0.01s CPU      0.02s WALL (       1 calls)
     hinit0       :      0.06s CPU      0.14s WALL (       1 calls)

     Called by electrons:
     c_bands      :      3.65s CPU      7.43s WALL (       7 calls)
     sum_band     :      0.91s CPU      1.84s WALL (       7 calls)
     v_of_rho     :      0.06s CPU      0.16s WALL (       8 calls)
     mix_rho      :      0.04s CPU      0.09s WALL (       7 calls)

     Called by c_bands:
     init_us_2    :      0.02s CPU      0.02s WALL (     705 calls)
     init_us_2:cp :      0.02s CPU      0.02s WALL (     705 calls)
     cegterg      :      3.63s CPU      7.40s WALL (     329 calls)

     Called by *egterg:
     cdiaghg      :      0.03s CPU      0.06s WALL (     705 calls)
     h_psi        :      4.02s CPU      8.38s WALL (     752 calls)
     g_psi        :      0.00s CPU      0.00s WALL (     376 calls)

     Called by h_psi:
     h_psi:calbec :      0.01s CPU      0.02s WALL (     752 calls)
     vloc_psi     :      0.99s CPU      1.91s WALL (     752 calls)
     add_vuspsi   :      0.01s CPU      0.04s WALL (     752 calls)
     h_psi_meta   :      3.00s CPU      6.38s WALL (     752 calls)

     General routines
     calbec       :      0.01s CPU      0.02s WALL (     752 calls)
     fft          :      0.01s CPU      0.04s WALL (      93 calls)
     ffts         :      0.02s CPU      0.06s WALL (     162 calls)
     fftw         :      4.41s CPU      9.07s WALL (   30424 calls)
     interpolate  :      0.00s CPU      0.00s WALL (       8 calls)
 
     Parallel routines
 
     PWSCF        :      5.28s CPU     11.00s WALL

 
   This run was terminated on:  14:23:56   7Jul2023            

=------------------------------------------------------------------------------=
   JOB DONE.
=------------------------------------------------------------------------------=
