
     Program PWSCF v.7.0 starts on  7Jul2023 at 14:25:23 

     This program is part of the open-source Quantum ESPRESSO suite
     for quantum simulation of materials; please cite
         "P. Giannozzi et al., J. Phys.:Condens. Matter 21 395502 (2009);
         "P. Giannozzi et al., J. Phys.:Condens. Matter 29 465901 (2017);
         "P. Giannozzi et al., J. Chem. Phys. 152 154105 (2020);
          URL http://www.quantum-espresso.org", 
     in publications or presentations arising from this work. More details at
     http://www.quantum-espresso.org/quote

     Parallel version (MPI), running on     1 processors

     MPI processes distributed on     1 nodes
     26824 MiB available memory on the printing compute node when the environment starts
 
     Waiting for input...
     Reading input from standard input
Warning: card &CELL ignored
Warning: card / ignored

     Current dimensions of program PWSCF are:
     Max number of different atomic species (ntypx) = 10
     Max number of k-points (npk) =  40000
     Max angular momentum in pseudopotentials (lmaxx) =  4

     WARNING: the MGGA functional with ID    5 has been 
     read together with other dft terms, but it should 
     stand alone in order to work properly. The other 
     terms will be ignored.

     Subspace diagonalization in iterative solution of the eigenvalue problem:
     a serial algorithm will be used

 
     G-vector sticks info
     --------------------
     sticks:   dense  smooth     PW     G-vecs:    dense   smooth      PW
     Sum         271     271     91                 2975     2975     609
 
     Using Slab Decomposition
 


     bravais-lattice index     =            2
     lattice parameter (alat)  =       6.2885  a.u.
     unit-cell volume          =      62.1694 (a.u.)^3
     number of atoms/cell      =            2
     number of atomic types    =            1
     number of electrons       =         8.00
     number of Kohn-Sham states=            4
     kinetic-energy cutoff     =      50.0000  Ry
     charge density cutoff     =     200.0000  Ry
     scf convergence threshold =      2.0E-05
     mixing beta               =       0.2000
     number of iterations used =            8  local-TF  mixing
     Exchange-correlation= SLA  PW   SCAN SCAN
                           (   0   0   0   0   0 263 267)

     celldm(1)=   6.288479  celldm(2)=   0.000000  celldm(3)=   0.000000
     celldm(4)=   0.000000  celldm(5)=   0.000000  celldm(6)=   0.000000

     crystal axes: (cart. coord. in units of alat)
               a(1) = (  -0.500000   0.000000   0.500000 )  
               a(2) = (   0.000000   0.500000   0.500000 )  
               a(3) = (  -0.500000   0.500000   0.000000 )  

     reciprocal axes: (cart. coord. in units 2 pi/alat)
               b(1) = ( -1.000000 -1.000000  1.000000 )  
               b(2) = (  1.000000  1.000000  1.000000 )  
               b(3) = ( -1.000000  1.000000 -1.000000 )  


     PseudoPot. # 1 for C  read from file:
     ~/Documents/TA/PWDFT.jl/pseudopotentials/scan_upf/C.SCAN.UPF2
     MD5 check sum: Not computed, couldn't open file
     Pseudo is Norm-conserving, Zval =  4.0
     Generated by new atomic code, or converted to UPF format
     Using radial grid of 1389 points,  1 beta functions with: 
                l(1) =   0

     atomic species   valence    mass     pseudopotential
        C              4.00    12.01100     C ( 1.00)

     48 Sym. Ops., with inversion, found (24 have fractional translation)



   Cartesian axes

     site n.     atom                  positions (alat units)
         1           C   tau(   1) = (   0.0000000   0.0000000   0.0000000  )
         2           C   tau(   2) = (   0.2500000   0.2500000   0.2500000  )

     number of k points=    47
                       cart. coord. in units 2pi/alat
        k(    1) = (   0.0000000   0.0000000   0.0000000), wk =   0.0020000
        k(    2) = (  -0.1000000   0.1000000  -0.1000000), wk =   0.0160000
        k(    3) = (  -0.2000000   0.2000000  -0.2000000), wk =   0.0160000
        k(    4) = (  -0.3000000   0.3000000  -0.3000000), wk =   0.0160000
        k(    5) = (  -0.4000000   0.4000000  -0.4000000), wk =   0.0160000
        k(    6) = (   0.5000000  -0.5000000   0.5000000), wk =   0.0080000
        k(    7) = (   0.0000000   0.2000000   0.0000000), wk =   0.0120000
        k(    8) = (  -0.1000000   0.3000000  -0.1000000), wk =   0.0480000
        k(    9) = (  -0.2000000   0.4000000  -0.2000000), wk =   0.0480000
        k(   10) = (  -0.3000000   0.5000000  -0.3000000), wk =   0.0480000
        k(   11) = (   0.6000000  -0.4000000   0.6000000), wk =   0.0480000
        k(   12) = (   0.5000000  -0.3000000   0.5000000), wk =   0.0480000
        k(   13) = (   0.4000000  -0.2000000   0.4000000), wk =   0.0480000
        k(   14) = (   0.3000000  -0.1000000   0.3000000), wk =   0.0480000
        k(   15) = (   0.2000000   0.0000000   0.2000000), wk =   0.0240000
        k(   16) = (   0.0000000   0.4000000   0.0000000), wk =   0.0120000
        k(   17) = (  -0.1000000   0.5000000  -0.1000000), wk =   0.0480000
        k(   18) = (  -0.2000000   0.6000000  -0.2000000), wk =   0.0480000
        k(   19) = (   0.7000000  -0.3000000   0.7000000), wk =   0.0480000
        k(   20) = (   0.6000000  -0.2000000   0.6000000), wk =   0.0480000
        k(   21) = (   0.5000000  -0.1000000   0.5000000), wk =   0.0480000
        k(   22) = (   0.4000000   0.0000000   0.4000000), wk =   0.0240000
        k(   23) = (   0.0000000   0.6000000   0.0000000), wk =   0.0120000
        k(   24) = (  -0.1000000   0.7000000  -0.1000000), wk =   0.0480000
        k(   25) = (   0.8000000  -0.2000000   0.8000000), wk =   0.0480000
        k(   26) = (   0.7000000  -0.1000000   0.7000000), wk =   0.0480000
        k(   27) = (   0.6000000  -0.0000000   0.6000000), wk =   0.0240000
        k(   28) = (   0.0000000   0.8000000   0.0000000), wk =   0.0120000
        k(   29) = (   0.9000000  -0.1000000   0.9000000), wk =   0.0480000
        k(   30) = (   0.8000000   0.0000000   0.8000000), wk =   0.0240000
        k(   31) = (   0.0000000  -1.0000000   0.0000000), wk =   0.0060000
        k(   32) = (  -0.2000000   0.4000000   0.0000000), wk =   0.0480000
        k(   33) = (  -0.3000000   0.5000000  -0.1000000), wk =   0.0960000
        k(   34) = (   0.6000000  -0.4000000   0.8000000), wk =   0.0960000
        k(   35) = (   0.5000000  -0.3000000   0.7000000), wk =   0.0480000
        k(   36) = (  -0.2000000   0.6000000   0.0000000), wk =   0.0480000
        k(   37) = (   0.7000000  -0.3000000   0.9000000), wk =   0.0960000
        k(   38) = (   0.6000000  -0.2000000   0.8000000), wk =   0.0960000
        k(   39) = (   0.5000000  -0.1000000   0.7000000), wk =   0.0960000
        k(   40) = (   0.4000000   0.0000000   0.6000000), wk =   0.0480000
        k(   41) = (   0.8000000  -0.2000000   1.0000000), wk =   0.0480000
        k(   42) = (   0.7000000  -0.1000000   0.9000000), wk =   0.0960000
        k(   43) = (   0.6000000   0.0000000   0.8000000), wk =   0.0480000
        k(   44) = (  -0.2000000  -1.0000000   0.0000000), wk =   0.0240000
        k(   45) = (   0.6000000  -0.2000000   1.0000000), wk =   0.0480000
        k(   46) = (   0.5000000  -0.1000000   0.9000000), wk =   0.0480000
        k(   47) = (  -0.4000000  -1.0000000   0.0000000), wk =   0.0240000

     Dense  grid:     2975 G-vectors     FFT dimensions: (  24,  24,  24)

     Estimated max dynamical RAM per process >       6.06 MB

     WARNING: libxc functional with ID  263 depends
      on external parameters: check the user_guide of
      QE if you need to modify them or to check their
      default values.

     Initial potential from superposition of free atoms

     starting charge       7.9999, renormalised to       8.0000
     Starting wfcs are    8 randomized atomic wfcs

     total cpu time spent up to now is        1.1 secs

     Self-consistent Calculation

     iteration #  1     ecut=    50.00 Ry     beta= 0.20
     Davidson diagonalization with overlap
     ethr =  1.00E-02,  avg # of iterations =  2.0

     total cpu time spent up to now is        2.8 secs

     total energy              =     -22.66405188 Ry
     estimated scf accuracy    <       2.80312726 Ry

     iteration #  2     ecut=    50.00 Ry     beta= 0.20
     Davidson diagonalization with overlap
     ethr =  1.00E-02,  avg # of iterations =  1.0

     total cpu time spent up to now is        4.1 secs

     total energy              =     -22.67754296 Ry
     estimated scf accuracy    <       1.86791386 Ry

     iteration #  3     ecut=    50.00 Ry     beta= 0.20
     Davidson diagonalization with overlap
     ethr =  1.00E-02,  avg # of iterations =  1.0

     total cpu time spent up to now is        5.4 secs

     total energy              =     -22.68428342 Ry
     estimated scf accuracy    <       0.02309121 Ry

     iteration #  4     ecut=    50.00 Ry     beta= 0.20
     Davidson diagonalization with overlap
     ethr =  2.89E-04,  avg # of iterations =  1.0

     total cpu time spent up to now is        6.7 secs

     total energy              =     -22.68256889 Ry
     estimated scf accuracy    <       0.01222004 Ry

     iteration #  5     ecut=    50.00 Ry     beta= 0.20
     Davidson diagonalization with overlap
     ethr =  1.53E-04,  avg # of iterations =  1.0

     total cpu time spent up to now is        7.9 secs

     total energy              =     -22.68348506 Ry
     estimated scf accuracy    <       0.00111431 Ry

     iteration #  6     ecut=    50.00 Ry     beta= 0.20
     Davidson diagonalization with overlap
     ethr =  1.39E-05,  avg # of iterations =  1.0

     total cpu time spent up to now is        9.0 secs

     total energy              =     -22.68355476 Ry
     estimated scf accuracy    <       0.00010929 Ry

     iteration #  7     ecut=    50.00 Ry     beta= 0.20
     Davidson diagonalization with overlap
     ethr =  1.37E-06,  avg # of iterations =  1.3

     total cpu time spent up to now is       10.4 secs

     total energy              =     -22.68358224 Ry
     estimated scf accuracy    <       0.00033624 Ry

     iteration #  8     ecut=    50.00 Ry     beta= 0.20
     Davidson diagonalization with overlap
     ethr =  1.37E-06,  avg # of iterations =  1.0

     total cpu time spent up to now is       11.5 secs

     End of self-consistent calculation

          k = 0.0000 0.0000 0.0000 (   339 PWs)   bands (ev):

    -8.1551  17.3242  17.3242  17.3242

          k =-0.1000 0.1000-0.1000 (   362 PWs)   bands (ev):

    -7.8240  15.2500  16.7353  16.7353

          k =-0.2000 0.2000-0.2000 (   362 PWs)   bands (ev):

    -6.8357  11.4133  15.6353  15.6353

          k =-0.3000 0.3000-0.3000 (   362 PWs)   bands (ev):

    -5.2069   7.3485  14.6569  14.6569

          k =-0.4000 0.4000-0.4000 (   368 PWs)   bands (ev):

    -2.9877   3.5615  14.0254  14.0254

          k = 0.5000-0.5000 0.5000 (   368 PWs)   bands (ev):

    -0.8870   0.9164  13.8178  13.8178

          k = 0.0000 0.2000 0.0000 (   355 PWs)   bands (ev):

    -7.7139  15.7351  15.7351  16.3712

          k =-0.1000 0.3000-0.1000 (   360 PWs)   bands (ev):

    -6.9448  12.7485  14.5118  15.7510

          k =-0.2000 0.4000-0.2000 (   369 PWs)   bands (ev):

    -5.5299   8.8415  13.5841  14.6646

          k =-0.3000 0.5000-0.3000 (   372 PWs)   bands (ev):

    -3.5034   4.9978  13.1278  13.5797

          k = 0.6000-0.4000 0.6000 (   372 PWs)   bands (ev):

    -1.0769   1.7048  12.7776  13.1809

          k = 0.5000-0.3000 0.5000 (   370 PWs)   bands (ev):

    -1.8807   2.6876  12.3990  13.7043

          k = 0.4000-0.2000 0.4000 (   367 PWs)   bands (ev):

    -4.2431   6.2598  12.5008  14.6252

          k = 0.3000-0.1000 0.3000 (   368 PWs)   bands (ev):

    -6.0723  10.1836  13.1080  15.7642

          k = 0.2000 0.0000 0.2000 (   361 PWs)   bands (ev):

    -7.2739  13.7985  14.3592  16.7184

          k = 0.0000 0.4000 0.0000 (   355 PWs)   bands (ev):

    -6.3977  13.2116  13.2116  13.9202

          k =-0.1000 0.5000-0.1000 (   361 PWs)   bands (ev):

    -5.2038  10.3455  12.2270  12.9978

          k =-0.2000 0.6000-0.2000 (   374 PWs)   bands (ev):

    -3.3904   6.7854  11.6765  11.7521

          k = 0.7000-0.3000 0.7000 (   372 PWs)   bands (ev):

    -1.0612   3.4173  10.4362  11.8406

          k = 0.6000-0.2000 0.6000 (   370 PWs)   bands (ev):

    -0.3024   2.5254   9.5909  12.4753

          k = 0.5000-0.1000 0.5000 (   372 PWs)   bands (ev):

    -2.6699   5.7112   9.2762  13.5422

          k = 0.4000 0.0000 0.4000 (   371 PWs)   bands (ev):

    -4.6704   9.0676   9.8518  14.8197

          k = 0.0000 0.6000 0.0000 (   359 PWs)   bands (ev):

    -4.2341  10.4361  11.1414  11.1414

          k =-0.1000 0.7000-0.1000 (   367 PWs)   bands (ev):

    -2.6437   7.9952   9.8511  10.5556

          k = 0.8000-0.2000 0.8000 (   372 PWs)   bands (ev):

    -0.5035   5.2707   8.0311  10.5537

          k = 0.7000-0.1000 0.7000 (   375 PWs)   bands (ev):

     1.3543   3.2665   6.6666  11.1363

          k = 0.6000-0.0000 0.6000 (   373 PWs)   bands (ev):

    -0.5684   5.3836   6.3119  12.2035

          k = 0.0000 0.8000 0.0000 (   371 PWs)   bands (ev):

    -1.2773   6.3831   9.8216   9.8216

          k = 0.9000-0.1000 0.9000 (   370 PWs)   bands (ev):

     0.6439   4.4286   8.4491   9.6787

          k = 0.8000 0.0000 0.8000 (   373 PWs)   bands (ev):

     2.6122   3.1084   6.2297  10.1370

          k = 0.0000-1.0000 0.0000 (   388 PWs)   bands (ev):

     2.3398   2.3398   9.3713   9.3713

          k =-0.2000 0.4000 0.0000 (   370 PWs)   bands (ev):

    -5.9631  11.3338  12.0114  15.0034

          k =-0.3000 0.5000-0.1000 (   371 PWs)   bands (ev):

    -4.3480   7.8939  11.0560  13.8530

          k = 0.6000-0.4000 0.8000 (   374 PWs)   bands (ev):

    -2.1583   4.2884  10.8321  12.7238

          k = 0.5000-0.3000 0.7000 (   376 PWs)   bands (ev):

    -0.1265   1.7622  10.8728  12.1957

          k =-0.2000 0.6000 0.0000 (   369 PWs)   bands (ev):

    -3.8105   9.0653  10.0440  11.9372

          k = 0.7000-0.3000 0.9000 (   370 PWs)   bands (ev):

    -1.8279   6.1563   9.1607  10.7912

          k = 0.6000-0.2000 0.8000 (   375 PWs)   bands (ev):

     0.4881   3.2304   8.4403  10.5594

          k = 0.5000-0.1000 0.7000 (   377 PWs)   bands (ev):

    -0.2880   4.1877   7.8150  11.3099

          k = 0.4000 0.0000 0.6000 (   370 PWs)   bands (ev):

    -2.5605   7.1219   8.0171  12.5721

          k = 0.8000-0.2000 1.0000 (   368 PWs)   bands (ev):

    -0.8831   6.3247   8.8247   9.3437

          k = 0.7000-0.1000 0.9000 (   373 PWs)   bands (ev):

     1.3257   4.4686   6.8272   9.2293

          k = 0.6000 0.0000 0.8000 (   380 PWs)   bands (ev):

     1.8182   4.1574   5.5929  10.0065

          k =-0.2000-1.0000 0.0000 (   370 PWs)   bands (ev):

     2.6507   2.6507   8.5044   8.5044

          k = 0.6000-0.2000 1.0000 (   377 PWs)   bands (ev):

     0.2498   5.5262   6.9429   9.2469

          k = 0.5000-0.1000 0.9000 (   376 PWs)   bands (ev):

     2.0808   3.8496   6.6631   8.4900

          k =-0.4000-1.0000 0.0000 (   378 PWs)   bands (ev):

     3.3450   3.3450   7.0379   7.0379

     highest occupied level (ev):    17.3242

!    total energy              =     -22.68358590 Ry
     estimated scf accuracy    <       0.00000495 Ry

     The total energy is the sum of the following terms:
     one-electron contribution =      10.42403608 Ry
     hartree contribution      =       1.75243116 Ry
     xc contribution           =      -7.44841254 Ry
     ewald contribution        =     -27.41164060 Ry

     convergence has been achieved in   8 iterations
     Writing meta-gga kinetic term

     Writing all to output data dir ./input_pw/C/3/pwscf.save/
     Writing meta-gga kinetic term
 
     init_run     :      0.53s CPU      1.09s WALL (       1 calls)
     electrons    :      5.32s CPU     10.36s WALL (       1 calls)

     Called by init_run:
     wfcinit      :      0.48s CPU      1.02s WALL (       1 calls)
     potinit      :      0.01s CPU      0.02s WALL (       1 calls)
     hinit0       :      0.03s CPU      0.04s WALL (       1 calls)

     Called by electrons:
     c_bands      :      4.20s CPU      8.22s WALL (       8 calls)
     sum_band     :      1.02s CPU      2.00s WALL (       8 calls)
     v_of_rho     :      0.07s CPU      0.13s WALL (       9 calls)
     mix_rho      :      0.03s CPU      0.03s WALL (       8 calls)

     Called by c_bands:
     init_us_2    :      0.01s CPU      0.01s WALL (     799 calls)
     init_us_2:cp :      0.01s CPU      0.01s WALL (     799 calls)
     cegterg      :      4.18s CPU      8.15s WALL (     376 calls)

     Called by *egterg:
     cdiaghg      :      0.03s CPU      0.06s WALL (     818 calls)
     h_psi        :      4.57s CPU      9.03s WALL (     865 calls)
     g_psi        :      0.00s CPU      0.00s WALL (     442 calls)

     Called by h_psi:
     h_psi:calbec :      0.01s CPU      0.04s WALL (     865 calls)
     vloc_psi     :      1.13s CPU      1.96s WALL (     865 calls)
     add_vuspsi   :      0.01s CPU      0.01s WALL (     865 calls)
     h_psi_meta   :      3.41s CPU      7.00s WALL (     865 calls)

     General routines
     calbec       :      0.01s CPU      0.04s WALL (     865 calls)
     fft          :      0.02s CPU      0.02s WALL (     105 calls)
     ffts         :      0.02s CPU      0.03s WALL (     125 calls)
     fftw         :      5.01s CPU      9.83s WALL (   34808 calls)
     interpolate  :      0.00s CPU      0.00s WALL (       9 calls)
 
     Parallel routines
 
     PWSCF        :      5.89s CPU     11.49s WALL

 
   This run was terminated on:  14:25:35   7Jul2023            

=------------------------------------------------------------------------------=
   JOB DONE.
=------------------------------------------------------------------------------=
