
     Program PWSCF v.7.0 starts on 29Mar2023 at 12:34:19 

     This program is part of the open-source Quantum ESPRESSO suite
     for quantum simulation of materials; please cite
         "P. Giannozzi et al., J. Phys.:Condens. Matter 21 395502 (2009);
         "P. Giannozzi et al., J. Phys.:Condens. Matter 29 465901 (2017);
         "P. Giannozzi et al., J. Chem. Phys. 152 154105 (2020);
          URL http://www.quantum-espresso.org", 
     in publications or presentations arising from this work. More details at
     http://www.quantum-espresso.org/quote

     Parallel version (MPI), running on     1 processors

     MPI processes distributed on     1 nodes
     23233 MiB available memory on the printing compute node when the environment starts
 
     Waiting for input...
     Reading input from standard input
Warning: card &CELL ignored
Warning: card / ignored

     Current dimensions of program PWSCF are:
     Max number of different atomic species (ntypx) = 10
     Max number of k-points (npk) =  40000
     Max angular momentum in pseudopotentials (lmaxx) =  4

     WARNING: the MGGA functional with ID    5 has been 
     read together with other dft terms, but it should 
     stand alone in order to work properly. The other 
     terms will be ignored.

     Subspace diagonalization in iterative solution of the eigenvalue problem:
     a serial algorithm will be used

 
     G-vector sticks info
     --------------------
     sticks:   dense  smooth     PW     G-vecs:    dense   smooth      PW
     Sum         271     271     91                 2975     2975     609
 
     Using Slab Decomposition
 


     bravais-lattice index     =            2
     lattice parameter (alat)  =       6.2885  a.u.
     unit-cell volume          =      62.1694 (a.u.)^3
     number of atoms/cell      =            2
     number of atomic types    =            1
     number of electrons       =         8.00
     number of Kohn-Sham states=            4
     kinetic-energy cutoff     =      50.0000  Ry
     charge density cutoff     =     200.0000  Ry
     scf convergence threshold =      1.0E-06
     mixing beta               =       0.0100
     number of iterations used =            8  local-TF  mixing
     Exchange-correlation= SLA  PW   SCAN SCAN
                           (   0   0   0   0   0 263 267)

     celldm(1)=   6.288479  celldm(2)=   0.000000  celldm(3)=   0.000000
     celldm(4)=   0.000000  celldm(5)=   0.000000  celldm(6)=   0.000000

     crystal axes: (cart. coord. in units of alat)
               a(1) = (  -0.500000   0.000000   0.500000 )  
               a(2) = (   0.000000   0.500000   0.500000 )  
               a(3) = (  -0.500000   0.500000   0.000000 )  

     reciprocal axes: (cart. coord. in units 2 pi/alat)
               b(1) = ( -1.000000 -1.000000  1.000000 )  
               b(2) = (  1.000000  1.000000  1.000000 )  
               b(3) = ( -1.000000  1.000000 -1.000000 )  


     PseudoPot. # 1 for C  read from file:
     ~/Documents/TA/PWDFT.jl/pseudopotentials/scan_upf/C.SCAN.UPF2
     MD5 check sum: Not computed, couldn't open file
     Pseudo is Norm-conserving, Zval =  4.0
     Generated by new atomic code, or converted to UPF format
     Using radial grid of 1389 points,  1 beta functions with: 
                l(1) =   0

     atomic species   valence    mass     pseudopotential
        C              4.00    12.01100     C ( 1.00)

     48 Sym. Ops., with inversion, found (24 have fractional translation)



   Cartesian axes

     site n.     atom                  positions (alat units)
         1           C   tau(   1) = (   0.0000000   0.0000000   0.0000000  )
         2           C   tau(   2) = (   0.2500000   0.2500000   0.2500000  )

     number of k points=    47
                       cart. coord. in units 2pi/alat
        k(    1) = (   0.0000000   0.0000000   0.0000000), wk =   0.0020000
        k(    2) = (  -0.1000000   0.1000000  -0.1000000), wk =   0.0160000
        k(    3) = (  -0.2000000   0.2000000  -0.2000000), wk =   0.0160000
        k(    4) = (  -0.3000000   0.3000000  -0.3000000), wk =   0.0160000
        k(    5) = (  -0.4000000   0.4000000  -0.4000000), wk =   0.0160000
        k(    6) = (   0.5000000  -0.5000000   0.5000000), wk =   0.0080000
        k(    7) = (   0.0000000   0.2000000   0.0000000), wk =   0.0120000
        k(    8) = (  -0.1000000   0.3000000  -0.1000000), wk =   0.0480000
        k(    9) = (  -0.2000000   0.4000000  -0.2000000), wk =   0.0480000
        k(   10) = (  -0.3000000   0.5000000  -0.3000000), wk =   0.0480000
        k(   11) = (   0.6000000  -0.4000000   0.6000000), wk =   0.0480000
        k(   12) = (   0.5000000  -0.3000000   0.5000000), wk =   0.0480000
        k(   13) = (   0.4000000  -0.2000000   0.4000000), wk =   0.0480000
        k(   14) = (   0.3000000  -0.1000000   0.3000000), wk =   0.0480000
        k(   15) = (   0.2000000   0.0000000   0.2000000), wk =   0.0240000
        k(   16) = (   0.0000000   0.4000000   0.0000000), wk =   0.0120000
        k(   17) = (  -0.1000000   0.5000000  -0.1000000), wk =   0.0480000
        k(   18) = (  -0.2000000   0.6000000  -0.2000000), wk =   0.0480000
        k(   19) = (   0.7000000  -0.3000000   0.7000000), wk =   0.0480000
        k(   20) = (   0.6000000  -0.2000000   0.6000000), wk =   0.0480000
        k(   21) = (   0.5000000  -0.1000000   0.5000000), wk =   0.0480000
        k(   22) = (   0.4000000   0.0000000   0.4000000), wk =   0.0240000
        k(   23) = (   0.0000000   0.6000000   0.0000000), wk =   0.0120000
        k(   24) = (  -0.1000000   0.7000000  -0.1000000), wk =   0.0480000
        k(   25) = (   0.8000000  -0.2000000   0.8000000), wk =   0.0480000
        k(   26) = (   0.7000000  -0.1000000   0.7000000), wk =   0.0480000
        k(   27) = (   0.6000000  -0.0000000   0.6000000), wk =   0.0240000
        k(   28) = (   0.0000000   0.8000000   0.0000000), wk =   0.0120000
        k(   29) = (   0.9000000  -0.1000000   0.9000000), wk =   0.0480000
        k(   30) = (   0.8000000   0.0000000   0.8000000), wk =   0.0240000
        k(   31) = (   0.0000000  -1.0000000   0.0000000), wk =   0.0060000
        k(   32) = (  -0.2000000   0.4000000   0.0000000), wk =   0.0480000
        k(   33) = (  -0.3000000   0.5000000  -0.1000000), wk =   0.0960000
        k(   34) = (   0.6000000  -0.4000000   0.8000000), wk =   0.0960000
        k(   35) = (   0.5000000  -0.3000000   0.7000000), wk =   0.0480000
        k(   36) = (  -0.2000000   0.6000000   0.0000000), wk =   0.0480000
        k(   37) = (   0.7000000  -0.3000000   0.9000000), wk =   0.0960000
        k(   38) = (   0.6000000  -0.2000000   0.8000000), wk =   0.0960000
        k(   39) = (   0.5000000  -0.1000000   0.7000000), wk =   0.0960000
        k(   40) = (   0.4000000   0.0000000   0.6000000), wk =   0.0480000
        k(   41) = (   0.8000000  -0.2000000   1.0000000), wk =   0.0480000
        k(   42) = (   0.7000000  -0.1000000   0.9000000), wk =   0.0960000
        k(   43) = (   0.6000000   0.0000000   0.8000000), wk =   0.0480000
        k(   44) = (  -0.2000000  -1.0000000   0.0000000), wk =   0.0240000
        k(   45) = (   0.6000000  -0.2000000   1.0000000), wk =   0.0480000
        k(   46) = (   0.5000000  -0.1000000   0.9000000), wk =   0.0480000
        k(   47) = (  -0.4000000  -1.0000000   0.0000000), wk =   0.0240000

     Dense  grid:     2975 G-vectors     FFT dimensions: (  24,  24,  24)

     Estimated max dynamical RAM per process >       6.06 MB

     WARNING: libxc functional with ID  263 depends
      on external parameters: check the user_guide of
      QE if you need to modify them or to check their
      default values.

     Initial potential from superposition of free atoms

     starting charge       7.9999, renormalised to       8.0000
     Starting wfcs are    8 randomized atomic wfcs

     total cpu time spent up to now is        1.4 secs

     Self-consistent Calculation

     iteration #  1     ecut=    50.00 Ry     beta= 0.01
     Davidson diagonalization with overlap
     ethr =  1.00E-02,  avg # of iterations =  2.0

     total cpu time spent up to now is        3.3 secs

     total energy              =     -22.58560215 Ry
     estimated scf accuracy    <       2.80312726 Ry

     iteration #  2     ecut=    50.00 Ry     beta= 0.01
     Davidson diagonalization with overlap
     ethr =  1.00E-02,  avg # of iterations =  1.0

     total cpu time spent up to now is        4.6 secs

     total energy              =     -22.48919934 Ry
     estimated scf accuracy    <       2.80548978 Ry

     iteration #  3     ecut=    50.00 Ry     beta= 0.01
     Davidson diagonalization with overlap
     ethr =  1.00E-02,  avg # of iterations =  1.0

     total cpu time spent up to now is        5.9 secs

     total energy              =     -22.67732595 Ry
     estimated scf accuracy    <       4.17514331 Ry

     iteration #  4     ecut=    50.00 Ry     beta= 0.01
     Davidson diagonalization with overlap
     ethr =  1.00E-02,  avg # of iterations =  1.0

     total cpu time spent up to now is        7.2 secs

     total energy              =     -22.68676547 Ry
     estimated scf accuracy    <       0.02564815 Ry

     iteration #  5     ecut=    50.00 Ry     beta= 0.01
     Davidson diagonalization with overlap
     ethr =  3.21E-04,  avg # of iterations =  1.0

     total cpu time spent up to now is        8.4 secs

     total energy              =     -22.68681767 Ry
     estimated scf accuracy    <       0.03682333 Ry

     iteration #  6     ecut=    50.00 Ry     beta= 0.01
     Davidson diagonalization with overlap
     ethr =  3.21E-04,  avg # of iterations =  1.0

     total cpu time spent up to now is        9.7 secs

     total energy              =     -22.68131617 Ry
     estimated scf accuracy    <       0.02452390 Ry

     iteration #  7     ecut=    50.00 Ry     beta= 0.01
     Davidson diagonalization with overlap
     ethr =  3.07E-04,  avg # of iterations =  2.0

     total cpu time spent up to now is       11.2 secs

     total energy              =     -22.68375586 Ry
     estimated scf accuracy    <       0.00166607 Ry

     iteration #  8     ecut=    50.00 Ry     beta= 0.01
     Davidson diagonalization with overlap
     ethr =  2.08E-05,  avg # of iterations =  1.0

     total cpu time spent up to now is       12.5 secs

     total energy              =     -22.68378922 Ry
     estimated scf accuracy    <       0.00105311 Ry

     iteration #  9     ecut=    50.00 Ry     beta= 0.01
     Davidson diagonalization with overlap
     ethr =  1.32E-05,  avg # of iterations =  1.0

     total cpu time spent up to now is       13.7 secs

     total energy              =     -22.68391970 Ry
     estimated scf accuracy    <       0.00110425 Ry

     iteration # 10     ecut=    50.00 Ry     beta= 0.01
     Davidson diagonalization with overlap
     ethr =  1.32E-05,  avg # of iterations =  1.0

     total cpu time spent up to now is       14.6 secs

     total energy              =     -22.68349883 Ry
     estimated scf accuracy    <       0.00110002 Ry

     iteration # 11     ecut=    50.00 Ry     beta= 0.01
     Davidson diagonalization with overlap
     ethr =  1.32E-05,  avg # of iterations =  1.0

     total cpu time spent up to now is       15.6 secs

     total energy              =     -22.68357157 Ry
     estimated scf accuracy    <       0.00001746 Ry

     iteration # 12     ecut=    50.00 Ry     beta= 0.01
     Davidson diagonalization with overlap
     ethr =  2.18E-07,  avg # of iterations =  2.0

     total cpu time spent up to now is       17.1 secs

     total energy              =     -22.68357502 Ry
     estimated scf accuracy    <       0.00003139 Ry

     iteration # 13     ecut=    50.00 Ry     beta= 0.01
     Davidson diagonalization with overlap
     ethr =  2.18E-07,  avg # of iterations =  1.0

     total cpu time spent up to now is       18.2 secs

     total energy              =     -22.68358329 Ry
     estimated scf accuracy    <       0.00007158 Ry

     iteration # 14     ecut=    50.00 Ry     beta= 0.01
     Davidson diagonalization with overlap
     ethr =  2.18E-07,  avg # of iterations =  2.0

     total cpu time spent up to now is       19.6 secs

     total energy              =     -22.68358596 Ry
     estimated scf accuracy    <       0.00000589 Ry

     iteration # 15     ecut=    50.00 Ry     beta= 0.01
     Davidson diagonalization with overlap
     ethr =  7.36E-08,  avg # of iterations =  1.0

     total cpu time spent up to now is       20.3 secs

     total energy              =     -22.68358592 Ry
     estimated scf accuracy    <       0.00000499 Ry

     iteration # 16     ecut=    50.00 Ry     beta= 0.01
     Davidson diagonalization with overlap
     ethr =  6.24E-08,  avg # of iterations =  1.0

     total cpu time spent up to now is       21.0 secs

     total energy              =     -22.68358604 Ry
     estimated scf accuracy    <       0.00000540 Ry

     iteration # 17     ecut=    50.00 Ry     beta= 0.01
     Davidson diagonalization with overlap
     ethr =  6.24E-08,  avg # of iterations =  1.0

     total cpu time spent up to now is       21.7 secs

     total energy              =     -22.68358644 Ry
     estimated scf accuracy    <       0.00000285 Ry

     iteration # 18     ecut=    50.00 Ry     beta= 0.01
     Davidson diagonalization with overlap
     ethr =  3.56E-08,  avg # of iterations =  1.0

     total cpu time spent up to now is       22.3 secs

     End of self-consistent calculation

          k = 0.0000 0.0000 0.0000 (   339 PWs)   bands (ev):

    -8.1541  17.3277  17.3277  17.3277

          k =-0.1000 0.1000-0.1000 (   362 PWs)   bands (ev):

    -7.8230  15.2529  16.7385  16.7385

          k =-0.2000 0.2000-0.2000 (   362 PWs)   bands (ev):

    -6.8347  11.4155  15.6382  15.6382

          k =-0.3000 0.3000-0.3000 (   362 PWs)   bands (ev):

    -5.2057   7.3504  14.6596  14.6596

          k =-0.4000 0.4000-0.4000 (   368 PWs)   bands (ev):

    -2.9865   3.5630  14.0280  14.0280

          k = 0.5000-0.5000 0.5000 (   368 PWs)   bands (ev):

    -0.8855   0.9176  13.8205  13.8205

          k = 0.0000 0.2000 0.0000 (   355 PWs)   bands (ev):

    -7.7129  15.7380  15.7380  16.3745

          k =-0.1000 0.3000-0.1000 (   360 PWs)   bands (ev):

    -6.9438  12.7509  14.5145  15.7542

          k =-0.2000 0.4000-0.2000 (   369 PWs)   bands (ev):

    -5.5288   8.8435  13.5865  14.6674

          k =-0.3000 0.5000-0.3000 (   372 PWs)   bands (ev):

    -3.5022   4.9994  13.1303  13.5823

          k = 0.6000-0.4000 0.6000 (   372 PWs)   bands (ev):

    -1.0754   1.7061  12.7801  13.1834

          k = 0.5000-0.3000 0.5000 (   370 PWs)   bands (ev):

    -1.8793   2.6891  12.4014  13.7070

          k = 0.4000-0.2000 0.4000 (   367 PWs)   bands (ev):

    -4.2420   6.2615  12.5032  14.6280

          k = 0.3000-0.1000 0.3000 (   368 PWs)   bands (ev):

    -6.0712  10.1857  13.1104  15.7672

          k = 0.2000 0.0000 0.2000 (   361 PWs)   bands (ev):

    -7.2729  13.8012  14.3618  16.7218

          k = 0.0000 0.4000 0.0000 (   355 PWs)   bands (ev):

    -6.3967  13.2140  13.2140  13.9232

          k =-0.1000 0.5000-0.1000 (   361 PWs)   bands (ev):

    -5.2027  10.3476  12.2293  13.0005

          k =-0.2000 0.6000-0.2000 (   374 PWs)   bands (ev):

    -3.3891   6.7873  11.6788  11.7543

          k = 0.7000-0.3000 0.7000 (   372 PWs)   bands (ev):

    -1.0598   3.4188  10.4384  11.8429

          k = 0.6000-0.2000 0.6000 (   370 PWs)   bands (ev):

    -0.3008   2.5268   9.5930  12.4777

          k = 0.5000-0.1000 0.5000 (   372 PWs)   bands (ev):

    -2.6686   5.7129   9.2782  13.5448

          k = 0.4000 0.0000 0.4000 (   371 PWs)   bands (ev):

    -4.6692   9.0697   9.8537  14.8225

          k = 0.0000 0.6000 0.0000 (   359 PWs)   bands (ev):

    -4.2329  10.4386  11.1435  11.1435

          k =-0.1000 0.7000-0.1000 (   367 PWs)   bands (ev):

    -2.6424   7.9974   9.8531  10.5576

          k = 0.8000-0.2000 0.8000 (   372 PWs)   bands (ev):

    -0.5021   5.2725   8.0330  10.5558

          k = 0.7000-0.1000 0.7000 (   375 PWs)   bands (ev):

     1.3560   3.2680   6.6683  11.1384

          k = 0.6000-0.0000 0.6000 (   373 PWs)   bands (ev):

    -0.5669   5.3855   6.3135  12.2058

          k = 0.0000 0.8000 0.0000 (   371 PWs)   bands (ev):

    -1.2760   6.3851   9.8236   9.8236

          k = 0.9000-0.1000 0.9000 (   370 PWs)   bands (ev):

     0.6454   4.4304   8.4508   9.6807

          k = 0.8000 0.0000 0.8000 (   373 PWs)   bands (ev):

     2.6139   3.1101   6.2312  10.1390

          k = 0.0000-1.0000 0.0000 (   388 PWs)   bands (ev):

     2.3415   2.3415   9.3732   9.3732

          k =-0.2000 0.4000 0.0000 (   370 PWs)   bands (ev):

    -5.9621  11.3362  12.0135  15.0064

          k =-0.3000 0.5000-0.1000 (   371 PWs)   bands (ev):

    -4.3468   7.8958  11.0581  13.8556

          k = 0.6000-0.4000 0.8000 (   374 PWs)   bands (ev):

    -2.1570   4.2900  10.8344  12.7262

          k = 0.5000-0.3000 0.7000 (   376 PWs)   bands (ev):

    -0.1250   1.7635  10.8750  12.1980

          k =-0.2000 0.6000 0.0000 (   369 PWs)   bands (ev):

    -3.8093   9.0675  10.0460  11.9395

          k = 0.7000-0.3000 0.9000 (   370 PWs)   bands (ev):

    -1.8266   6.1581   9.1628  10.7933

          k = 0.6000-0.2000 0.8000 (   375 PWs)   bands (ev):

     0.4897   3.2319   8.4423  10.5614

          k = 0.5000-0.1000 0.7000 (   377 PWs)   bands (ev):

    -0.2865   4.1893   7.8169  11.3120

          k = 0.4000 0.0000 0.6000 (   370 PWs)   bands (ev):

    -2.5593   7.1239   8.0189  12.5745

          k = 0.8000-0.2000 1.0000 (   368 PWs)   bands (ev):

    -0.8817   6.3268   8.8266   9.3456

          k = 0.7000-0.1000 0.9000 (   373 PWs)   bands (ev):

     1.3273   4.4705   6.8288   9.2312

          k = 0.6000 0.0000 0.8000 (   380 PWs)   bands (ev):

     1.8199   4.1592   5.5943  10.0085

          k =-0.2000-1.0000 0.0000 (   370 PWs)   bands (ev):

     2.6524   2.6524   8.5062   8.5062

          k = 0.6000-0.2000 1.0000 (   377 PWs)   bands (ev):

     0.2513   5.5282   6.9445   9.2488

          k = 0.5000-0.1000 0.9000 (   376 PWs)   bands (ev):

     2.0826   3.8512   6.6648   8.4918

          k =-0.4000-1.0000 0.0000 (   378 PWs)   bands (ev):

     3.3469   3.3469   7.0394   7.0394

     highest occupied level (ev):    17.3277

!    total energy              =     -22.68358647 Ry
     estimated scf accuracy    <       0.00000066 Ry

     The total energy is the sum of the following terms:
     one-electron contribution =      10.42435123 Ry
     hartree contribution      =       1.75197327 Ry
     xc contribution           =      -7.44827036 Ry
     ewald contribution        =     -27.41164060 Ry

     convergence has been achieved in  18 iterations
     Writing meta-gga kinetic term

     Writing all to output data dir ./input_pw/C/3/pwscf.save/
     Writing meta-gga kinetic term
 
     init_run     :      0.53s CPU      1.39s WALL (       1 calls)
     electrons    :     12.01s CPU     20.87s WALL (       1 calls)

     Called by init_run:
     wfcinit      :      0.49s CPU      1.32s WALL (       1 calls)
     potinit      :      0.01s CPU      0.01s WALL (       1 calls)
     hinit0       :      0.03s CPU      0.06s WALL (       1 calls)

     Called by electrons:
     c_bands      :      9.51s CPU     16.53s WALL (      18 calls)
     sum_band     :      2.28s CPU      3.96s WALL (      18 calls)
     v_of_rho     :      0.15s CPU      0.26s WALL (      19 calls)
     mix_rho      :      0.07s CPU      0.13s WALL (      18 calls)

     Called by c_bands:
     init_us_2    :      0.03s CPU      0.05s WALL (    1739 calls)
     init_us_2:cp :      0.03s CPU      0.03s WALL (    1739 calls)
     cegterg      :      9.46s CPU     16.46s WALL (     846 calls)

     Called by *egterg:
     cdiaghg      :      0.08s CPU      0.09s WALL (    1879 calls)
     h_psi        :      9.74s CPU     17.44s WALL (    1926 calls)
     g_psi        :      0.01s CPU      0.01s WALL (    1033 calls)

     Called by h_psi:
     h_psi:calbec :      0.02s CPU      0.03s WALL (    1926 calls)
     vloc_psi     :      2.42s CPU      4.30s WALL (    1926 calls)
     add_vuspsi   :      0.02s CPU      0.06s WALL (    1926 calls)
     h_psi_meta   :      7.26s CPU     13.02s WALL (    1926 calls)

     General routines
     calbec       :      0.01s CPU      0.02s WALL (    1926 calls)
     fft          :      0.03s CPU      0.06s WALL (     225 calls)
     ffts         :      0.04s CPU      0.12s WALL (     299 calls)
     fftw         :     10.70s CPU     18.98s WALL (   75840 calls)
     interpolate  :      0.00s CPU      0.00s WALL (      19 calls)
 
     Parallel routines
 
     PWSCF        :     12.57s CPU     22.30s WALL

 
   This run was terminated on:  12:34:41  29Mar2023            

=------------------------------------------------------------------------------=
   JOB DONE.
=------------------------------------------------------------------------------=
