
     Program PWSCF v.7.0 starts on 14Mar2023 at 11:48:15 

     This program is part of the open-source Quantum ESPRESSO suite
     for quantum simulation of materials; please cite
         "P. Giannozzi et al., J. Phys.:Condens. Matter 21 395502 (2009);
         "P. Giannozzi et al., J. Phys.:Condens. Matter 29 465901 (2017);
         "P. Giannozzi et al., J. Chem. Phys. 152 154105 (2020);
          URL http://www.quantum-espresso.org", 
     in publications or presentations arising from this work. More details at
     http://www.quantum-espresso.org/quote

     Parallel version (MPI), running on     1 processors

     MPI processes distributed on     1 nodes
     27577 MiB available memory on the printing compute node when the environment starts
 
     Waiting for input...
     Reading input from standard input
Warning: card &CELL ignored
Warning: card / ignored

     Current dimensions of program PWSCF are:
     Max number of different atomic species (ntypx) = 10
     Max number of k-points (npk) =  40000
     Max angular momentum in pseudopotentials (lmaxx) =  4

     WARNING: the MGGA functional with ID    5 has been 
     read together with other dft terms, but it should 
     stand alone in order to work properly. The other 
     terms will be ignored.

     Subspace diagonalization in iterative solution of the eigenvalue problem:
     a serial algorithm will be used

 
     G-vector sticks info
     --------------------
     sticks:   dense  smooth     PW     G-vecs:    dense   smooth      PW
     Sum         271     271     91                 2975     2975     609
 
     Using Slab Decomposition
 


     bravais-lattice index     =            2
     lattice parameter (alat)  =       6.3293  a.u.
     unit-cell volume          =      63.3884 (a.u.)^3
     number of atoms/cell      =            2
     number of atomic types    =            1
     number of electrons       =         8.00
     number of Kohn-Sham states=            4
     kinetic-energy cutoff     =      50.0000  Ry
     charge density cutoff     =     200.0000  Ry
     scf convergence threshold =      1.0E-06
     mixing beta               =       0.0100
     number of iterations used =            8  local-TF  mixing
     Exchange-correlation= SLA  PW   SCAN SCAN
                           (   0   0   0   0   0 263 267)

     celldm(1)=   6.329314  celldm(2)=   0.000000  celldm(3)=   0.000000
     celldm(4)=   0.000000  celldm(5)=   0.000000  celldm(6)=   0.000000

     crystal axes: (cart. coord. in units of alat)
               a(1) = (  -0.500000   0.000000   0.500000 )  
               a(2) = (   0.000000   0.500000   0.500000 )  
               a(3) = (  -0.500000   0.500000   0.000000 )  

     reciprocal axes: (cart. coord. in units 2 pi/alat)
               b(1) = ( -1.000000 -1.000000  1.000000 )  
               b(2) = (  1.000000  1.000000  1.000000 )  
               b(3) = ( -1.000000  1.000000 -1.000000 )  


     PseudoPot. # 1 for C  read from file:
     ~/Documents/TA/PWDFT.jl/pseudopotentials/scan_upf/C.SCAN.UPF2
     MD5 check sum: Not computed, couldn't open file
     Pseudo is Norm-conserving, Zval =  4.0
     Generated by new atomic code, or converted to UPF format
     Using radial grid of 1389 points,  1 beta functions with: 
                l(1) =   0

     atomic species   valence    mass     pseudopotential
        C              4.00    12.01100     C ( 1.00)

     48 Sym. Ops., with inversion, found (24 have fractional translation)



   Cartesian axes

     site n.     atom                  positions (alat units)
         1           C   tau(   1) = (   0.0000000   0.0000000   0.0000000  )
         2           C   tau(   2) = (   0.2500000   0.2500000   0.2500000  )

     number of k points=    47
                       cart. coord. in units 2pi/alat
        k(    1) = (   0.0000000   0.0000000   0.0000000), wk =   0.0020000
        k(    2) = (  -0.1000000   0.1000000  -0.1000000), wk =   0.0160000
        k(    3) = (  -0.2000000   0.2000000  -0.2000000), wk =   0.0160000
        k(    4) = (  -0.3000000   0.3000000  -0.3000000), wk =   0.0160000
        k(    5) = (  -0.4000000   0.4000000  -0.4000000), wk =   0.0160000
        k(    6) = (   0.5000000  -0.5000000   0.5000000), wk =   0.0080000
        k(    7) = (   0.0000000   0.2000000   0.0000000), wk =   0.0120000
        k(    8) = (  -0.1000000   0.3000000  -0.1000000), wk =   0.0480000
        k(    9) = (  -0.2000000   0.4000000  -0.2000000), wk =   0.0480000
        k(   10) = (  -0.3000000   0.5000000  -0.3000000), wk =   0.0480000
        k(   11) = (   0.6000000  -0.4000000   0.6000000), wk =   0.0480000
        k(   12) = (   0.5000000  -0.3000000   0.5000000), wk =   0.0480000
        k(   13) = (   0.4000000  -0.2000000   0.4000000), wk =   0.0480000
        k(   14) = (   0.3000000  -0.1000000   0.3000000), wk =   0.0480000
        k(   15) = (   0.2000000   0.0000000   0.2000000), wk =   0.0240000
        k(   16) = (   0.0000000   0.4000000   0.0000000), wk =   0.0120000
        k(   17) = (  -0.1000000   0.5000000  -0.1000000), wk =   0.0480000
        k(   18) = (  -0.2000000   0.6000000  -0.2000000), wk =   0.0480000
        k(   19) = (   0.7000000  -0.3000000   0.7000000), wk =   0.0480000
        k(   20) = (   0.6000000  -0.2000000   0.6000000), wk =   0.0480000
        k(   21) = (   0.5000000  -0.1000000   0.5000000), wk =   0.0480000
        k(   22) = (   0.4000000   0.0000000   0.4000000), wk =   0.0240000
        k(   23) = (   0.0000000   0.6000000   0.0000000), wk =   0.0120000
        k(   24) = (  -0.1000000   0.7000000  -0.1000000), wk =   0.0480000
        k(   25) = (   0.8000000  -0.2000000   0.8000000), wk =   0.0480000
        k(   26) = (   0.7000000  -0.1000000   0.7000000), wk =   0.0480000
        k(   27) = (   0.6000000  -0.0000000   0.6000000), wk =   0.0240000
        k(   28) = (   0.0000000   0.8000000   0.0000000), wk =   0.0120000
        k(   29) = (   0.9000000  -0.1000000   0.9000000), wk =   0.0480000
        k(   30) = (   0.8000000   0.0000000   0.8000000), wk =   0.0240000
        k(   31) = (   0.0000000  -1.0000000   0.0000000), wk =   0.0060000
        k(   32) = (  -0.2000000   0.4000000   0.0000000), wk =   0.0480000
        k(   33) = (  -0.3000000   0.5000000  -0.1000000), wk =   0.0960000
        k(   34) = (   0.6000000  -0.4000000   0.8000000), wk =   0.0960000
        k(   35) = (   0.5000000  -0.3000000   0.7000000), wk =   0.0480000
        k(   36) = (  -0.2000000   0.6000000   0.0000000), wk =   0.0480000
        k(   37) = (   0.7000000  -0.3000000   0.9000000), wk =   0.0960000
        k(   38) = (   0.6000000  -0.2000000   0.8000000), wk =   0.0960000
        k(   39) = (   0.5000000  -0.1000000   0.7000000), wk =   0.0960000
        k(   40) = (   0.4000000   0.0000000   0.6000000), wk =   0.0480000
        k(   41) = (   0.8000000  -0.2000000   1.0000000), wk =   0.0480000
        k(   42) = (   0.7000000  -0.1000000   0.9000000), wk =   0.0960000
        k(   43) = (   0.6000000   0.0000000   0.8000000), wk =   0.0480000
        k(   44) = (  -0.2000000  -1.0000000   0.0000000), wk =   0.0240000
        k(   45) = (   0.6000000  -0.2000000   1.0000000), wk =   0.0480000
        k(   46) = (   0.5000000  -0.1000000   0.9000000), wk =   0.0480000
        k(   47) = (  -0.4000000  -1.0000000   0.0000000), wk =   0.0240000

     Dense  grid:     2975 G-vectors     FFT dimensions: (  24,  24,  24)

     Estimated max dynamical RAM per process >       6.08 MB

     WARNING: libxc functional with ID  263 depends
      on external parameters: check the user_guide of
      QE if you need to modify them or to check their
      default values.

     Initial potential from superposition of free atoms

     starting charge       7.9999, renormalised to       8.0000
     Starting wfcs are    8 randomized atomic wfcs

     total cpu time spent up to now is        1.4 secs

     Self-consistent Calculation

     iteration #  1     ecut=    50.00 Ry     beta= 0.01
     Davidson diagonalization with overlap
     ethr =  1.00E-02,  avg # of iterations =  2.0

     total cpu time spent up to now is        2.8 secs

     total energy              =     -22.59223627 Ry
     estimated scf accuracy    <       2.73018338 Ry

     iteration #  2     ecut=    50.00 Ry     beta= 0.01
     Davidson diagonalization with overlap
     ethr =  1.00E-02,  avg # of iterations =  1.0

     total cpu time spent up to now is        4.1 secs

     total energy              =     -22.48236361 Ry
     estimated scf accuracy    <       2.73344320 Ry

     iteration #  3     ecut=    50.00 Ry     beta= 0.01
     Davidson diagonalization with overlap
     ethr =  1.00E-02,  avg # of iterations =  1.0

     total cpu time spent up to now is        5.3 secs

     total energy              =     -22.68617248 Ry
     estimated scf accuracy    <       4.54166569 Ry

     iteration #  4     ecut=    50.00 Ry     beta= 0.01
     Davidson diagonalization with overlap
     ethr =  1.00E-02,  avg # of iterations =  1.0

     total cpu time spent up to now is        6.6 secs

     total energy              =     -22.69715074 Ry
     estimated scf accuracy    <       0.01864881 Ry

     iteration #  5     ecut=    50.00 Ry     beta= 0.01
     Davidson diagonalization with overlap
     ethr =  2.33E-04,  avg # of iterations =  1.0

     total cpu time spent up to now is        7.8 secs

     total energy              =     -22.69756216 Ry
     estimated scf accuracy    <       0.02941554 Ry

     iteration #  6     ecut=    50.00 Ry     beta= 0.01
     Davidson diagonalization with overlap
     ethr =  2.33E-04,  avg # of iterations =  1.0

     total cpu time spent up to now is        8.8 secs

     total energy              =     -22.69291761 Ry
     estimated scf accuracy    <       0.03030697 Ry

     iteration #  7     ecut=    50.00 Ry     beta= 0.01
     Davidson diagonalization with overlap
     ethr =  2.33E-04,  avg # of iterations =  1.0

     total cpu time spent up to now is        9.6 secs

     total energy              =     -22.69369355 Ry
     estimated scf accuracy    <       0.00271207 Ry

     iteration #  8     ecut=    50.00 Ry     beta= 0.01
     Davidson diagonalization with overlap
     ethr =  3.39E-05,  avg # of iterations =  2.0

     total cpu time spent up to now is       11.2 secs

     total energy              =     -22.69410724 Ry
     estimated scf accuracy    <       0.00185391 Ry

     iteration #  9     ecut=    50.00 Ry     beta= 0.01
     Davidson diagonalization with overlap
     ethr =  2.32E-05,  avg # of iterations =  1.0

     total cpu time spent up to now is       12.4 secs

     total energy              =     -22.69390649 Ry
     estimated scf accuracy    <       0.00096795 Ry

     iteration # 10     ecut=    50.00 Ry     beta= 0.01
     Davidson diagonalization with overlap
     ethr =  1.21E-05,  avg # of iterations =  1.0

     total cpu time spent up to now is       13.6 secs

     total energy              =     -22.69396853 Ry
     estimated scf accuracy    <       0.00013286 Ry

     iteration # 11     ecut=    50.00 Ry     beta= 0.01
     Davidson diagonalization with overlap
     ethr =  1.66E-06,  avg # of iterations =  1.0

     total cpu time spent up to now is       14.8 secs

     total energy              =     -22.69397048 Ry
     estimated scf accuracy    <       0.00003503 Ry

     iteration # 12     ecut=    50.00 Ry     beta= 0.01
     Davidson diagonalization with overlap
     ethr =  4.38E-07,  avg # of iterations =  1.0

     total cpu time spent up to now is       16.1 secs

     total energy              =     -22.69397247 Ry
     estimated scf accuracy    <       0.00006494 Ry

     iteration # 13     ecut=    50.00 Ry     beta= 0.01
     Davidson diagonalization with overlap
     ethr =  4.38E-07,  avg # of iterations =  1.9

     total cpu time spent up to now is       16.8 secs

     total energy              =     -22.69397658 Ry
     estimated scf accuracy    <       0.00000306 Ry

     iteration # 14     ecut=    50.00 Ry     beta= 0.01
     Davidson diagonalization with overlap
     ethr =  3.82E-08,  avg # of iterations =  1.0

     total cpu time spent up to now is       17.9 secs

     End of self-consistent calculation

          k = 0.0000 0.0000 0.0000 (   339 PWs)   bands (ev):

    -8.2605  16.9295  16.9295  16.9295

          k =-0.1000 0.1000-0.1000 (   363 PWs)   bands (ev):

    -7.9335  14.8825  16.3500  16.3500

          k =-0.2000 0.2000-0.2000 (   368 PWs)   bands (ev):

    -6.9572  11.0949  15.2556  15.2556

          k =-0.3000 0.3000-0.3000 (   374 PWs)   bands (ev):

    -5.3495   7.0777  14.2905  14.2905

          k =-0.4000 0.4000-0.4000 (   380 PWs)   bands (ev):

    -3.1626   3.3351  13.6690  13.6690

          k = 0.5000-0.5000 0.5000 (   368 PWs)   bands (ev):

    -1.1248   0.7679  13.4782  13.4782

          k = 0.0000 0.2000 0.0000 (   371 PWs)   bands (ev):

    -7.8247  15.3476  15.3476  15.9673

          k =-0.1000 0.3000-0.1000 (   370 PWs)   bands (ev):

    -7.0652  12.4070  14.1528  15.3621

          k =-0.2000 0.4000-0.2000 (   376 PWs)   bands (ev):

    -5.6679   8.5497  13.2431  14.2967

          k =-0.3000 0.5000-0.3000 (   377 PWs)   bands (ev):

    -3.6691   4.7588  12.7933  13.2277

          k = 0.6000-0.4000 0.6000 (   381 PWs)   bands (ev):

    -1.2943   1.5245  12.4401  12.8402

          k = 0.5000-0.3000 0.5000 (   378 PWs)   bands (ev):

    -2.0752   2.4848  12.0689  13.3544

          k = 0.4000-0.2000 0.4000 (   372 PWs)   bands (ev):

    -4.3985   6.0043  12.1727  14.2700

          k = 0.3000-0.1000 0.3000 (   372 PWs)   bands (ev):

    -6.2034   9.8759  12.7738  15.3913

          k = 0.2000 0.0000 0.2000 (   367 PWs)   bands (ev):

    -7.3900  13.4427  14.0017  16.3270

          k = 0.0000 0.4000 0.0000 (   367 PWs)   bands (ev):

    -6.5246  12.8749  12.8749  13.5333

          k =-0.1000 0.5000-0.1000 (   375 PWs)   bands (ev):

    -5.3458  10.0272  11.9088  12.6368

          k =-0.2000 0.6000-0.2000 (   384 PWs)   bands (ev):

    -3.5571   6.5190  11.3422  11.4366

          k = 0.7000-0.3000 0.7000 (   383 PWs)   bands (ev):

    -1.2685   3.1989  10.1204  11.5261

          k = 0.6000-0.2000 0.6000 (   382 PWs)   bands (ev):

    -0.5310   2.3322   9.2917  12.1452

          k = 0.5000-0.1000 0.5000 (   380 PWs)   bands (ev):

    -2.8472   5.4578   8.9899  13.1990

          k = 0.4000 0.0000 0.4000 (   377 PWs)   bands (ev):

    -4.8193   8.7597   9.5718  14.4509

          k = 0.0000 0.6000 0.0000 (   371 PWs)   bands (ev):

    -4.3881  10.0849  10.8383  10.8383

          k =-0.1000 0.7000-0.1000 (   379 PWs)   bands (ev):

    -2.8195   7.6780   9.5642  10.2626

          k = 0.8000-0.2000 0.8000 (   378 PWs)   bands (ev):

    -0.7106   5.0021   7.7682  10.2639

          k = 0.7000-0.1000 0.7000 (   384 PWs)   bands (ev):

     1.0931   3.0578   6.4234  10.8316

          k = 0.6000-0.0000 0.6000 (   385 PWs)   bands (ev):

    -0.7806   5.1105   6.0837  11.8801

          k = 0.0000 0.8000 0.0000 (   383 PWs)   bands (ev):

    -1.4742   6.0853   9.5452   9.5452

          k = 0.9000-0.1000 0.9000 (   375 PWs)   bands (ev):

     0.4239   4.1541   8.2022   9.4083

          k = 0.8000 0.0000 0.8000 (   377 PWs)   bands (ev):

     2.3420   2.8597   6.0293   9.8562

          k = 0.0000-1.0000 0.0000 (   388 PWs)   bands (ev):

     2.0983   2.0983   9.1080   9.1080

          k =-0.2000 0.4000 0.0000 (   376 PWs)   bands (ev):

    -6.0955  11.0044  11.6946  14.6334

          k =-0.3000 0.5000-0.1000 (   375 PWs)   bands (ev):

    -4.5012   7.6118  10.7500  13.5051

          k = 0.6000-0.4000 0.8000 (   375 PWs)   bands (ev):

    -2.3438   4.0592  10.5208  12.4010

          k = 0.5000-0.3000 0.7000 (   380 PWs)   bands (ev):

    -0.3720   1.5960  10.5557  11.8850

          k =-0.2000 0.6000 0.0000 (   377 PWs)   bands (ev):

    -3.9709   8.7466   9.7630  11.6195

          k = 0.7000-0.3000 0.9000 (   379 PWs)   bands (ev):

    -2.0172   5.8867   8.8727  10.5015

          k = 0.6000-0.2000 0.8000 (   381 PWs)   bands (ev):

     0.2510   3.0225   8.1545  10.2766

          k = 0.5000-0.1000 0.7000 (   379 PWs)   bands (ev):

    -0.5041   3.9574   7.5455  11.0119

          k = 0.4000 0.0000 0.6000 (   380 PWs)   bands (ev):

    -2.7386   6.8262   7.7605  12.2447

          k = 0.8000-0.2000 1.0000 (   384 PWs)   bands (ev):

    -1.0854   6.0190   8.5621   9.0794

          k = 0.7000-0.1000 0.9000 (   383 PWs)   bands (ev):

     1.0872   4.1880   6.6073   8.9643

          k = 0.6000 0.0000 0.8000 (   386 PWs)   bands (ev):

     1.5565   3.8935   5.3966   9.7327

          k =-0.2000-1.0000 0.0000 (   376 PWs)   bands (ev):

     2.4007   2.4007   8.2511   8.2511

          k = 0.6000-0.2000 1.0000 (   383 PWs)   bands (ev):

     0.0277   5.2342   6.7111   8.9905

          k = 0.5000-0.1000 0.9000 (   388 PWs)   bands (ev):

     1.8120   3.6094   6.4181   8.2449

          k =-0.4000-1.0000 0.0000 (   382 PWs)   bands (ev):

     3.0698   3.0698   6.8234   6.8234

     highest occupied level (ev):    16.9295

!    total energy              =     -22.69397678 Ry
     estimated scf accuracy    <       0.00000009 Ry

     The total energy is the sum of the following terms:
     one-electron contribution =      10.18461402 Ry
     hartree contribution      =       1.76880217 Ry
     xc contribution           =      -7.41260295 Ry
     ewald contribution        =     -27.23479002 Ry

     convergence has been achieved in  14 iterations
     Writing meta-gga kinetic term

     Writing all to output data dir ./input_pw/C/3/pwscf.save/
     Writing meta-gga kinetic term
 
     init_run     :      0.58s CPU      1.38s WALL (       1 calls)
     electrons    :      9.31s CPU     16.47s WALL (       1 calls)

     Called by init_run:
     wfcinit      :      0.54s CPU      1.24s WALL (       1 calls)
     potinit      :      0.01s CPU      0.04s WALL (       1 calls)
     hinit0       :      0.03s CPU      0.08s WALL (       1 calls)

     Called by electrons:
     c_bands      :      7.35s CPU     13.12s WALL (      14 calls)
     sum_band     :      1.79s CPU      3.08s WALL (      14 calls)
     v_of_rho     :      0.12s CPU      0.20s WALL (      15 calls)
     mix_rho      :      0.06s CPU      0.07s WALL (      14 calls)

     Called by c_bands:
     init_us_2    :      0.03s CPU      0.03s WALL (    1363 calls)
     init_us_2:cp :      0.02s CPU      0.02s WALL (    1363 calls)
     cegterg      :      7.32s CPU     13.09s WALL (     658 calls)

     Called by *egterg:
     cdiaghg      :      0.06s CPU      0.17s WALL (    1455 calls)
     h_psi        :      7.69s CPU     13.99s WALL (    1502 calls)
     g_psi        :      0.00s CPU      0.02s WALL (     797 calls)

     Called by h_psi:
     h_psi:calbec :      0.01s CPU      0.01s WALL (    1502 calls)
     vloc_psi     :      1.91s CPU      3.37s WALL (    1502 calls)
     add_vuspsi   :      0.02s CPU      0.03s WALL (    1502 calls)
     h_psi_meta   :      5.73s CPU     10.54s WALL (    1502 calls)

     General routines
     calbec       :      0.01s CPU      0.01s WALL (    1502 calls)
     fft          :      0.03s CPU      0.05s WALL (     177 calls)
     ffts         :      0.03s CPU      0.05s WALL (     229 calls)
     fftw         :      8.47s CPU     15.39s WALL (   59104 calls)
     interpolate  :      0.00s CPU      0.00s WALL (      15 calls)
 
     Parallel routines
 
     PWSCF        :      9.94s CPU     17.93s WALL

 
   This run was terminated on:  11:48:32  14Mar2023            

=------------------------------------------------------------------------------=
   JOB DONE.
=------------------------------------------------------------------------------=
