
     Program PWSCF v.7.0 starts on 21Mar2023 at 11:18: 3 

     This program is part of the open-source Quantum ESPRESSO suite
     for quantum simulation of materials; please cite
         "P. Giannozzi et al., J. Phys.:Condens. Matter 21 395502 (2009);
         "P. Giannozzi et al., J. Phys.:Condens. Matter 29 465901 (2017);
         "P. Giannozzi et al., J. Chem. Phys. 152 154105 (2020);
          URL http://www.quantum-espresso.org", 
     in publications or presentations arising from this work. More details at
     http://www.quantum-espresso.org/quote

     Parallel version (MPI), running on     1 processors

     MPI processes distributed on     1 nodes
     24812 MiB available memory on the printing compute node when the environment starts
 
     Waiting for input...
     Reading input from standard input
Warning: card &CELL ignored
Warning: card / ignored

     Current dimensions of program PWSCF are:
     Max number of different atomic species (ntypx) = 10
     Max number of k-points (npk) =  40000
     Max angular momentum in pseudopotentials (lmaxx) =  4
     file Al.SCAN.UPF2: wavefunction(s)  0D renormalized

     WARNING: the MGGA functional with ID    5 has been 
     read together with other dft terms, but it should 
     stand alone in order to work properly. The other 
     terms will be ignored.

     Subspace diagonalization in iterative solution of the eigenvalue problem:
     a serial algorithm will be used

 
     G-vector sticks info
     --------------------
     sticks:   dense  smooth     PW     G-vecs:    dense   smooth      PW
     Sum         499     499    163                 7119     7119    1291
 
     Using Slab Decomposition
 


     bravais-lattice index     =            2
     lattice parameter (alat)  =       7.6534  a.u.
     unit-cell volume          =     112.0732 (a.u.)^3
     number of atoms/cell      =            1
     number of atomic types    =            1
     number of electrons       =         3.00
     number of Kohn-Sham states=            6
     kinetic-energy cutoff     =      60.0000  Ry
     charge density cutoff     =     240.0000  Ry
     scf convergence threshold =      1.0E-06
     mixing beta               =       0.0100
     number of iterations used =            8  local-TF  mixing
     Exchange-correlation= SLA  PW   SCAN SCAN
                           (   0   0   0   0   0 263 267)

     celldm(1)=   7.653391  celldm(2)=   0.000000  celldm(3)=   0.000000
     celldm(4)=   0.000000  celldm(5)=   0.000000  celldm(6)=   0.000000

     crystal axes: (cart. coord. in units of alat)
               a(1) = (  -0.500000   0.000000   0.500000 )  
               a(2) = (   0.000000   0.500000   0.500000 )  
               a(3) = (  -0.500000   0.500000   0.000000 )  

     reciprocal axes: (cart. coord. in units 2 pi/alat)
               b(1) = ( -1.000000 -1.000000  1.000000 )  
               b(2) = (  1.000000  1.000000  1.000000 )  
               b(3) = ( -1.000000  1.000000 -1.000000 )  


     PseudoPot. # 1 for Al read from file:
     ~/Documents/TA/PWDFT.jl/pseudopotentials/scan_upf/Al.SCAN.UPF2
     MD5 check sum: Not computed, couldn't open file
     Pseudo is Norm-conserving, Zval =  3.0
     Generated by new atomic code, or converted to UPF format
     Using radial grid of 1467 points,  2 beta functions with: 
                l(1) =   0
                l(2) =   1

     atomic species   valence    mass     pseudopotential
        Al             3.00    26.98154     Al( 1.00)

     48 Sym. Ops., with inversion, found



   Cartesian axes

     site n.     atom                  positions (alat units)
         1           Al  tau(   1) = (   0.0000000   0.0000000   0.0000000  )

     number of k points=    47  Gaussian smearing, width (Ry)=  0.1000
                       cart. coord. in units 2pi/alat
        k(    1) = (   0.0000000   0.0000000   0.0000000), wk =   0.0020000
        k(    2) = (  -0.1000000   0.1000000  -0.1000000), wk =   0.0160000
        k(    3) = (  -0.2000000   0.2000000  -0.2000000), wk =   0.0160000
        k(    4) = (  -0.3000000   0.3000000  -0.3000000), wk =   0.0160000
        k(    5) = (  -0.4000000   0.4000000  -0.4000000), wk =   0.0160000
        k(    6) = (   0.5000000  -0.5000000   0.5000000), wk =   0.0080000
        k(    7) = (   0.0000000   0.2000000   0.0000000), wk =   0.0120000
        k(    8) = (  -0.1000000   0.3000000  -0.1000000), wk =   0.0480000
        k(    9) = (  -0.2000000   0.4000000  -0.2000000), wk =   0.0480000
        k(   10) = (  -0.3000000   0.5000000  -0.3000000), wk =   0.0480000
        k(   11) = (   0.6000000  -0.4000000   0.6000000), wk =   0.0480000
        k(   12) = (   0.5000000  -0.3000000   0.5000000), wk =   0.0480000
        k(   13) = (   0.4000000  -0.2000000   0.4000000), wk =   0.0480000
        k(   14) = (   0.3000000  -0.1000000   0.3000000), wk =   0.0480000
        k(   15) = (   0.2000000   0.0000000   0.2000000), wk =   0.0240000
        k(   16) = (   0.0000000   0.4000000   0.0000000), wk =   0.0120000
        k(   17) = (  -0.1000000   0.5000000  -0.1000000), wk =   0.0480000
        k(   18) = (  -0.2000000   0.6000000  -0.2000000), wk =   0.0480000
        k(   19) = (   0.7000000  -0.3000000   0.7000000), wk =   0.0480000
        k(   20) = (   0.6000000  -0.2000000   0.6000000), wk =   0.0480000
        k(   21) = (   0.5000000  -0.1000000   0.5000000), wk =   0.0480000
        k(   22) = (   0.4000000   0.0000000   0.4000000), wk =   0.0240000
        k(   23) = (   0.0000000   0.6000000   0.0000000), wk =   0.0120000
        k(   24) = (  -0.1000000   0.7000000  -0.1000000), wk =   0.0480000
        k(   25) = (   0.8000000  -0.2000000   0.8000000), wk =   0.0480000
        k(   26) = (   0.7000000  -0.1000000   0.7000000), wk =   0.0480000
        k(   27) = (   0.6000000  -0.0000000   0.6000000), wk =   0.0240000
        k(   28) = (   0.0000000   0.8000000   0.0000000), wk =   0.0120000
        k(   29) = (   0.9000000  -0.1000000   0.9000000), wk =   0.0480000
        k(   30) = (   0.8000000   0.0000000   0.8000000), wk =   0.0240000
        k(   31) = (   0.0000000  -1.0000000   0.0000000), wk =   0.0060000
        k(   32) = (  -0.2000000   0.4000000   0.0000000), wk =   0.0480000
        k(   33) = (  -0.3000000   0.5000000  -0.1000000), wk =   0.0960000
        k(   34) = (   0.6000000  -0.4000000   0.8000000), wk =   0.0960000
        k(   35) = (   0.5000000  -0.3000000   0.7000000), wk =   0.0480000
        k(   36) = (  -0.2000000   0.6000000   0.0000000), wk =   0.0480000
        k(   37) = (   0.7000000  -0.3000000   0.9000000), wk =   0.0960000
        k(   38) = (   0.6000000  -0.2000000   0.8000000), wk =   0.0960000
        k(   39) = (   0.5000000  -0.1000000   0.7000000), wk =   0.0960000
        k(   40) = (   0.4000000   0.0000000   0.6000000), wk =   0.0480000
        k(   41) = (   0.8000000  -0.2000000   1.0000000), wk =   0.0480000
        k(   42) = (   0.7000000  -0.1000000   0.9000000), wk =   0.0960000
        k(   43) = (   0.6000000   0.0000000   0.8000000), wk =   0.0480000
        k(   44) = (  -0.2000000  -1.0000000   0.0000000), wk =   0.0240000
        k(   45) = (   0.6000000  -0.2000000   1.0000000), wk =   0.0480000
        k(   46) = (   0.5000000  -0.1000000   0.9000000), wk =   0.0480000
        k(   47) = (  -0.4000000  -1.0000000   0.0000000), wk =   0.0240000

     Dense  grid:     7119 G-vectors     FFT dimensions: (  27,  27,  27)

     Estimated max dynamical RAM per process >      14.35 MB

     WARNING: libxc functional with ID  263 depends
      on external parameters: check the user_guide of
      QE if you need to modify them or to check their
      default values.

     Initial potential from superposition of free atoms

     starting charge       2.9979, renormalised to       3.0000
     Starting wfcs are    9 randomized atomic wfcs

     total cpu time spent up to now is        3.3 secs

     Self-consistent Calculation

     iteration #  1     ecut=    60.00 Ry     beta= 0.01
     Davidson diagonalization with overlap
     ethr =  1.00E-02,  avg # of iterations =  4.3

     Threshold (ethr) on eigenvalues was too large:
     Diagonalizing with lowered threshold

     Davidson diagonalization with overlap
     ethr =  2.20E-04,  avg # of iterations =  2.2

     total cpu time spent up to now is       14.7 secs

     total energy              =      -4.15434664 Ry
     estimated scf accuracy    <       0.00649996 Ry

     iteration #  2     ecut=    60.00 Ry     beta= 0.01
     Davidson diagonalization with overlap
     ethr =  2.17E-04,  avg # of iterations =  1.0

     total cpu time spent up to now is       19.3 secs

     total energy              =      -4.15248437 Ry
     estimated scf accuracy    <       0.00642800 Ry

     iteration #  3     ecut=    60.00 Ry     beta= 0.01
     Davidson diagonalization with overlap
     ethr =  2.14E-04,  avg # of iterations =  1.8

     total cpu time spent up to now is       24.1 secs

     total energy              =      -4.15281994 Ry
     estimated scf accuracy    <       0.00023026 Ry

     iteration #  4     ecut=    60.00 Ry     beta= 0.01
     Davidson diagonalization with overlap
     ethr =  7.68E-06,  avg # of iterations =  3.4

     total cpu time spent up to now is       30.2 secs

     total energy              =      -4.15288458 Ry
     estimated scf accuracy    <       0.00010210 Ry

     iteration #  5     ecut=    60.00 Ry     beta= 0.01
     Davidson diagonalization with overlap
     ethr =  3.40E-06,  avg # of iterations =  1.0

     total cpu time spent up to now is       34.6 secs

     total energy              =      -4.15313200 Ry
     estimated scf accuracy    <       0.00010201 Ry

     iteration #  6     ecut=    60.00 Ry     beta= 0.01
     Davidson diagonalization with overlap
     ethr =  3.40E-06,  avg # of iterations =  2.3

     total cpu time spent up to now is       38.9 secs

     total energy              =      -4.15332865 Ry
     estimated scf accuracy    <       0.00004413 Ry

     iteration #  7     ecut=    60.00 Ry     beta= 0.01
     Davidson diagonalization with overlap
     ethr =  1.47E-06,  avg # of iterations =  2.2

     total cpu time spent up to now is       42.2 secs

     total energy              =      -4.15345497 Ry
     estimated scf accuracy    <       0.00000313 Ry

     iteration #  8     ecut=    60.00 Ry     beta= 0.01
     Davidson diagonalization with overlap
     ethr =  1.04E-07,  avg # of iterations =  1.8

     total cpu time spent up to now is       44.5 secs

     total energy              =      -4.15343246 Ry
     estimated scf accuracy    <       0.00000650 Ry

     iteration #  9     ecut=    60.00 Ry     beta= 0.01
     Davidson diagonalization with overlap
     ethr =  1.04E-07,  avg # of iterations =  2.0

     total cpu time spent up to now is       47.0 secs

     total energy              =      -4.15342826 Ry
     estimated scf accuracy    <       0.00000403 Ry

     iteration # 10     ecut=    60.00 Ry     beta= 0.01
     Davidson diagonalization with overlap
     ethr =  1.04E-07,  avg # of iterations =  2.0

     total cpu time spent up to now is       48.8 secs

     End of self-consistent calculation

          k = 0.0000 0.0000 0.0000 (   893 PWs)   bands (ev):

    -3.6442  20.6985  20.6985  20.6985  22.4685  22.4685

          k =-0.1000 0.1000-0.1000 (   899 PWs)   bands (ev):

    -3.3615  17.4510  20.0414  20.0414  23.0990  23.5165

          k =-0.2000 0.2000-0.2000 (   887 PWs)   bands (ev):

    -2.5168  13.3748  19.3085  19.3085  22.7704  23.8900

          k =-0.3000 0.3000-0.3000 (   887 PWs)   bands (ev):

    -1.1210   9.5848  18.9708  18.9708  22.1603  22.1603

          k =-0.4000 0.4000-0.4000 (   869 PWs)   bands (ev):

     0.8076   6.2022  19.0794  19.0794  20.6936  20.6936

          k = 0.5000-0.5000 0.5000 (   886 PWs)   bands (ev):

     3.0541   3.4689  19.5598  19.5598  19.7533  19.7533

          k = 0.0000 0.2000 0.0000 (   889 PWs)   bands (ev):

    -3.2673  18.6503  18.6503  18.8794  21.6121  25.0256

          k =-0.1000 0.3000-0.1000 (   892 PWs)   bands (ev):

    -2.6104  14.8730  17.6720  19.0769  21.5434  22.4927

          k =-0.2000 0.4000-0.2000 (   878 PWs)   bands (ev):

    -1.3990  11.0140  17.1494  18.7654  19.5254  24.5491

          k =-0.3000 0.5000-0.3000 (   882 PWs)   bands (ev):

     0.3511   7.5063  17.0918  17.8139  18.7802  23.4428

          k = 0.6000-0.4000 0.6000 (   881 PWs)   bands (ev):

     2.6051   4.4460  16.5902  17.5020  19.2319  22.2860

          k = 0.5000-0.3000 0.5000 (   876 PWs)   bands (ev):

     1.8039   5.4075  15.8483  18.3787  20.1649  21.5710

          k = 0.4000-0.2000 0.4000 (   879 PWs)   bands (ev):

    -0.2907   8.6232  15.6010  19.7036  21.3154  21.5598

          k = 0.3000-0.1000 0.3000 (   887 PWs)   bands (ev):

    -1.8636  12.2353  15.8682  21.2029  21.6919  23.3595

          k = 0.2000 0.0000 0.2000 (   903 PWs)   bands (ev):

    -2.8915  15.8004  16.9710  21.4273  22.6824  23.9987

          k = 0.0000 0.4000 0.0000 (   885 PWs)   bands (ev):

    -2.1432  16.4859  16.5027  16.5027  18.9507  20.0267

          k =-0.1000 0.5000-0.1000 (   870 PWs)   bands (ev):

    -1.1212  12.8491  15.8061  16.5396  17.2349  20.7318

          k =-0.2000 0.6000-0.2000 (   886 PWs)   bands (ev):

     0.4416   9.2884  14.6512  15.5823  17.2593  23.2642

          k = 0.7000-0.3000 0.7000 (   875 PWs)   bands (ev):

     2.5199   6.1035  13.2329  15.8310  17.5986  25.3656

          k = 0.6000-0.2000 0.6000 (   880 PWs)   bands (ev):

     3.3190   5.1352  12.3231  16.5522  18.4093  24.5185

          k = 0.5000-0.1000 0.5000 (   881 PWs)   bands (ev):

     1.0805   8.1121  11.9738  17.7432  19.6984  24.0839

          k = 0.4000 0.0000 0.4000 (   871 PWs)   bands (ev):

    -0.6591  11.0165  12.6574  19.3909  21.4179  23.5980

          k = 0.0000 0.6000 0.0000 (   866 PWs)   bands (ev):

    -0.2919  13.9689  14.6729  14.9415  14.9415  18.5724

          k =-0.1000 0.7000-0.1000 (   879 PWs)   bands (ev):

     1.0765  11.4064  11.9316  14.5532  15.8467  19.5380

          k = 0.8000-0.2000 0.8000 (   879 PWs)   bands (ev):

     2.9575   8.2222  10.2831  14.6396  16.2368  22.4002

          k = 0.7000-0.1000 0.7000 (   881 PWs)   bands (ev):

     5.1375   5.5343   9.2302  15.2004  16.9341  25.8225

          k = 0.6000-0.0000 0.6000 (   877 PWs)   bands (ev):

     2.9723   7.5660   9.2618  16.2357  18.0957  27.1433

          k = 0.0000 0.8000 0.0000 (   886 PWs)   bands (ev):

     2.2409   9.5330  13.5676  14.0018  14.0018  17.6181

          k = 0.9000-0.1000 0.9000 (   883 PWs)   bands (ev):

     3.8834   7.7579  10.8187  13.9261  15.1470  18.9130

          k = 0.8000 0.0000 0.8000 (   870 PWs)   bands (ev):

     5.4951   6.9453   8.0423  14.3254  15.8866  22.1028

          k = 0.0000-1.0000 0.0000 (   894 PWs)   bands (ev):

     4.8053   6.3325  13.1972  13.6885  13.6885  17.2875

          k =-0.2000 0.4000 0.0000 (   883 PWs)   bands (ev):

    -1.7706  13.4233  14.8387  19.2419  20.1599  22.1091

          k =-0.3000 0.5000-0.1000 (   876 PWs)   bands (ev):

    -0.3829  10.1825  13.9387  17.2280  20.5189  23.6174

          k = 0.6000-0.4000 0.8000 (   877 PWs)   bands (ev):

     1.5332   6.8797  13.9586  15.6799  20.7244  22.4594

          k = 0.5000-0.3000 0.7000 (   876 PWs)   bands (ev):

     3.7540   4.1853  14.3289  14.8056  21.1366  21.6117

          k =-0.2000 0.6000 0.0000 (   880 PWs)   bands (ev):

     0.0754  11.7064  13.1518  14.4195  18.5696  20.7393

          k = 0.7000-0.3000 0.9000 (   877 PWs)   bands (ev):

     1.8015   8.7925  12.2774  12.9366  19.2985  22.9404

          k = 0.6000-0.2000 0.8000 (   872 PWs)   bands (ev):

     4.0142   5.8332  11.2603  13.0618  19.8591  24.5322

          k = 0.5000-0.1000 0.7000 (   876 PWs)   bands (ev):

     3.2362   6.7192  10.5933  13.9449  20.7973  23.8273

          k = 0.4000 0.0000 0.6000 (   882 PWs)   bands (ev):

     1.1707   9.2921  10.9685  15.3484  22.1235  22.9196

          k = 0.8000-0.2000 1.0000 (   884 PWs)   bands (ev):

     2.6000   9.8445  10.6713  12.3237  17.5744  19.8490

          k = 0.7000-0.1000 0.9000 (   883 PWs)   bands (ev):

     4.5862   7.9669   8.6183  12.0128  18.6507  22.3845

          k = 0.6000 0.0000 0.8000 (   885 PWs)   bands (ev):

     5.4187   6.5303   8.2054  12.7018  19.5470  25.7943

          k =-0.2000-1.0000 0.0000 (   880 PWs)   bands (ev):

     5.1502   6.6823  10.3255  11.9691  17.2396  19.5419

          k = 0.6000-0.2000 1.0000 (   882 PWs)   bands (ev):

     3.6703   8.2563   9.7896  11.1611  21.9957  23.3417

          k = 0.5000-0.1000 0.9000 (   880 PWs)   bands (ev):

     5.8233   6.1678   9.5023  10.3949  22.9590  23.4774

          k =-0.4000-1.0000 0.0000 (   880 PWs)   bands (ev):

     6.1852   7.6447   7.9108   9.8175  21.6734  23.2538

     the Fermi energy is     7.8829 ev

!    total energy              =      -4.15343661 Ry
     estimated scf accuracy    <       0.00000044 Ry
     smearing contrib. (-TS)   =      -0.02646211 Ry
     internal energy E=F+TS    =      -4.12697450 Ry

     The total energy is F=E-TS. E is the sum of the following terms:
     one-electron contribution =       2.84894465 Ry
     hartree contribution      =       0.00682457 Ry
     xc contribution           =      -1.59117811 Ry
     ewald contribution        =      -5.39156561 Ry

     convergence has been achieved in  10 iterations
     Writing meta-gga kinetic term

     Writing all to output data dir ./input_pw/Al/7/pwscf.save/
     Writing meta-gga kinetic term
 
     init_run     :      0.91s CPU      3.15s WALL (       1 calls)
     electrons    :     19.47s CPU     45.51s WALL (       1 calls)

     Called by init_run:
     wfcinit      :      0.83s CPU      2.75s WALL (       1 calls)
     potinit      :      0.01s CPU      0.05s WALL (       1 calls)
     hinit0       :      0.07s CPU      0.29s WALL (       1 calls)

     Called by electrons:
     c_bands      :     15.90s CPU     37.56s WALL (      11 calls)
     sum_band     :      3.38s CPU      7.55s WALL (      11 calls)
     v_of_rho     :      0.13s CPU      0.31s WALL (      11 calls)
     mix_rho      :      0.06s CPU      0.14s WALL (      11 calls)

     Called by c_bands:
     init_us_2    :      0.11s CPU      0.21s WALL (    1081 calls)
     init_us_2:cp :      0.10s CPU      0.21s WALL (    1081 calls)
     cegterg      :     15.79s CPU     37.31s WALL (     517 calls)

     Called by *egterg:
     cdiaghg      :      0.11s CPU      0.29s WALL (    1596 calls)
     h_psi        :     16.21s CPU     39.11s WALL (    1690 calls)
     g_psi        :      0.01s CPU      0.04s WALL (    1126 calls)

     Called by h_psi:
     h_psi:calbec :      0.04s CPU      0.13s WALL (    1690 calls)
     vloc_psi     :      3.99s CPU     10.00s WALL (    1690 calls)
     add_vuspsi   :      0.04s CPU      0.04s WALL (    1690 calls)
     h_psi_meta   :     12.11s CPU     28.89s WALL (    1690 calls)

     General routines
     calbec       :      0.04s CPU      0.10s WALL (    1690 calls)
     fft          :      0.03s CPU      0.19s WALL (     131 calls)
     ffts         :      0.03s CPU      0.07s WALL (     137 calls)
     fftw         :     17.49s CPU     41.86s WALL (   78248 calls)
     interpolate  :      0.00s CPU      0.00s WALL (      11 calls)
 
     Parallel routines
 
     PWSCF        :     20.43s CPU     48.82s WALL

 
   This run was terminated on:  11:18:52  21Mar2023            

=------------------------------------------------------------------------------=
   JOB DONE.
=------------------------------------------------------------------------------=
