
     Program PWSCF v.7.0 starts on 21Mar2023 at 13:11:36 

     This program is part of the open-source Quantum ESPRESSO suite
     for quantum simulation of materials; please cite
         "P. Giannozzi et al., J. Phys.:Condens. Matter 21 395502 (2009);
         "P. Giannozzi et al., J. Phys.:Condens. Matter 29 465901 (2017);
         "P. Giannozzi et al., J. Chem. Phys. 152 154105 (2020);
          URL http://www.quantum-espresso.org", 
     in publications or presentations arising from this work. More details at
     http://www.quantum-espresso.org/quote

     Parallel version (MPI), running on     1 processors

     MPI processes distributed on     1 nodes
     23906 MiB available memory on the printing compute node when the environment starts
 
     Waiting for input...
     Reading input from standard input
Warning: card &CELL ignored
Warning: card / ignored

     Current dimensions of program PWSCF are:
     Max number of different atomic species (ntypx) = 10
     Max number of k-points (npk) =  40000
     Max angular momentum in pseudopotentials (lmaxx) =  4
     file Al.SCAN.UPF2: wavefunction(s)  0D renormalized

     WARNING: the MGGA functional with ID    5 has been 
     read together with other dft terms, but it should 
     stand alone in order to work properly. The other 
     terms will be ignored.

     Subspace diagonalization in iterative solution of the eigenvalue problem:
     a serial algorithm will be used

 
     G-vector sticks info
     --------------------
     sticks:   dense  smooth     PW     G-vecs:    dense   smooth      PW
     Sum        1723    1723    499                47183    47183    7343
 
     Using Slab Decomposition
 


     bravais-lattice index     =            2
     lattice parameter (alat)  =      14.4186  a.u.
     unit-cell volume          =     749.3940 (a.u.)^3
     number of atoms/cell      =            1
     number of atomic types    =            1
     number of electrons       =         3.00
     number of Kohn-Sham states=            6
     kinetic-energy cutoff     =      60.0000  Ry
     charge density cutoff     =     240.0000  Ry
     scf convergence threshold =      1.0E-06
     mixing beta               =       0.0100
     number of iterations used =            8  local-TF  mixing
     Exchange-correlation= SLA  PW   SCAN SCAN
                           (   0   0   0   0   0 263 267)

     celldm(1)=  14.418610  celldm(2)=   0.000000  celldm(3)=   0.000000
     celldm(4)=   0.000000  celldm(5)=   0.000000  celldm(6)=   0.000000

     crystal axes: (cart. coord. in units of alat)
               a(1) = (  -0.500000   0.000000   0.500000 )  
               a(2) = (   0.000000   0.500000   0.500000 )  
               a(3) = (  -0.500000   0.500000   0.000000 )  

     reciprocal axes: (cart. coord. in units 2 pi/alat)
               b(1) = ( -1.000000 -1.000000  1.000000 )  
               b(2) = (  1.000000  1.000000  1.000000 )  
               b(3) = ( -1.000000  1.000000 -1.000000 )  


     PseudoPot. # 1 for Al read from file:
     ~/Documents/TA/PWDFT.jl/pseudopotentials/scan_upf/Al.SCAN.UPF2
     MD5 check sum: Not computed, couldn't open file
     Pseudo is Norm-conserving, Zval =  3.0
     Generated by new atomic code, or converted to UPF format
     Using radial grid of 1467 points,  2 beta functions with: 
                l(1) =   0
                l(2) =   1

     atomic species   valence    mass     pseudopotential
        Al             3.00    26.98154     Al( 1.00)

     48 Sym. Ops., with inversion, found



   Cartesian axes

     site n.     atom                  positions (alat units)
         1           Al  tau(   1) = (   0.0000000   0.0000000   0.0000000  )

     number of k points=    47  Gaussian smearing, width (Ry)=  0.1000
                       cart. coord. in units 2pi/alat
        k(    1) = (   0.0000000   0.0000000   0.0000000), wk =   0.0020000
        k(    2) = (  -0.1000000   0.1000000  -0.1000000), wk =   0.0160000
        k(    3) = (  -0.2000000   0.2000000  -0.2000000), wk =   0.0160000
        k(    4) = (  -0.3000000   0.3000000  -0.3000000), wk =   0.0160000
        k(    5) = (  -0.4000000   0.4000000  -0.4000000), wk =   0.0160000
        k(    6) = (   0.5000000  -0.5000000   0.5000000), wk =   0.0080000
        k(    7) = (   0.0000000   0.2000000   0.0000000), wk =   0.0120000
        k(    8) = (  -0.1000000   0.3000000  -0.1000000), wk =   0.0480000
        k(    9) = (  -0.2000000   0.4000000  -0.2000000), wk =   0.0480000
        k(   10) = (  -0.3000000   0.5000000  -0.3000000), wk =   0.0480000
        k(   11) = (   0.6000000  -0.4000000   0.6000000), wk =   0.0480000
        k(   12) = (   0.5000000  -0.3000000   0.5000000), wk =   0.0480000
        k(   13) = (   0.4000000  -0.2000000   0.4000000), wk =   0.0480000
        k(   14) = (   0.3000000  -0.1000000   0.3000000), wk =   0.0480000
        k(   15) = (   0.2000000   0.0000000   0.2000000), wk =   0.0240000
        k(   16) = (   0.0000000   0.4000000   0.0000000), wk =   0.0120000
        k(   17) = (  -0.1000000   0.5000000  -0.1000000), wk =   0.0480000
        k(   18) = (  -0.2000000   0.6000000  -0.2000000), wk =   0.0480000
        k(   19) = (   0.7000000  -0.3000000   0.7000000), wk =   0.0480000
        k(   20) = (   0.6000000  -0.2000000   0.6000000), wk =   0.0480000
        k(   21) = (   0.5000000  -0.1000000   0.5000000), wk =   0.0480000
        k(   22) = (   0.4000000   0.0000000   0.4000000), wk =   0.0240000
        k(   23) = (   0.0000000   0.6000000   0.0000000), wk =   0.0120000
        k(   24) = (  -0.1000000   0.7000000  -0.1000000), wk =   0.0480000
        k(   25) = (   0.8000000  -0.2000000   0.8000000), wk =   0.0480000
        k(   26) = (   0.7000000  -0.1000000   0.7000000), wk =   0.0480000
        k(   27) = (   0.6000000  -0.0000000   0.6000000), wk =   0.0240000
        k(   28) = (   0.0000000   0.8000000   0.0000000), wk =   0.0120000
        k(   29) = (   0.9000000  -0.1000000   0.9000000), wk =   0.0480000
        k(   30) = (   0.8000000   0.0000000   0.8000000), wk =   0.0240000
        k(   31) = (   0.0000000  -1.0000000   0.0000000), wk =   0.0060000
        k(   32) = (  -0.2000000   0.4000000   0.0000000), wk =   0.0480000
        k(   33) = (  -0.3000000   0.5000000  -0.1000000), wk =   0.0960000
        k(   34) = (   0.6000000  -0.4000000   0.8000000), wk =   0.0960000
        k(   35) = (   0.5000000  -0.3000000   0.7000000), wk =   0.0480000
        k(   36) = (  -0.2000000   0.6000000   0.0000000), wk =   0.0480000
        k(   37) = (   0.7000000  -0.3000000   0.9000000), wk =   0.0960000
        k(   38) = (   0.6000000  -0.2000000   0.8000000), wk =   0.0960000
        k(   39) = (   0.5000000  -0.1000000   0.7000000), wk =   0.0960000
        k(   40) = (   0.4000000   0.0000000   0.6000000), wk =   0.0480000
        k(   41) = (   0.8000000  -0.2000000   1.0000000), wk =   0.0480000
        k(   42) = (   0.7000000  -0.1000000   0.9000000), wk =   0.0960000
        k(   43) = (   0.6000000   0.0000000   0.8000000), wk =   0.0480000
        k(   44) = (  -0.2000000  -1.0000000   0.0000000), wk =   0.0240000
        k(   45) = (   0.6000000  -0.2000000   1.0000000), wk =   0.0480000
        k(   46) = (   0.5000000  -0.1000000   0.9000000), wk =   0.0480000
        k(   47) = (  -0.4000000  -1.0000000   0.0000000), wk =   0.0240000

     Dense  grid:    47183 G-vectors     FFT dimensions: (  54,  54,  54)

     Estimated max dynamical RAM per process >      97.79 MB

     WARNING: libxc functional with ID  263 depends
      on external parameters: check the user_guide of
      QE if you need to modify them or to check their
      default values.

     Initial potential from superposition of free atoms

     starting charge       2.9979, renormalised to       3.0000
     Starting wfcs are    9 randomized atomic wfcs

     total cpu time spent up to now is       27.6 secs

     Self-consistent Calculation

     iteration #  1     ecut=    60.00 Ry     beta= 0.01
     Davidson diagonalization with overlap
     ethr =  1.00E-02,  avg # of iterations =  2.3

     Threshold (ethr) on eigenvalues was too large:
     Diagonalizing with lowered threshold

     Davidson diagonalization with overlap
     ethr =  8.56E-05,  avg # of iterations =  3.6

     total cpu time spent up to now is      144.3 secs

     total energy              =      -3.95978309 Ry
     estimated scf accuracy    <       0.00286582 Ry

     iteration #  2     ecut=    60.00 Ry     beta= 0.01
     Davidson diagonalization with overlap
     ethr =  9.55E-05,  avg # of iterations =  1.0

     total cpu time spent up to now is      188.4 secs

     total energy              =      -3.96318663 Ry
     estimated scf accuracy    <       0.00282867 Ry

     iteration #  3     ecut=    60.00 Ry     beta= 0.01
     Davidson diagonalization with overlap
     ethr =  9.43E-05,  avg # of iterations =  2.0

     total cpu time spent up to now is      253.5 secs

     total energy              =      -3.97295300 Ry
     estimated scf accuracy    <       0.00012501 Ry

     iteration #  4     ecut=    60.00 Ry     beta= 0.01
     Davidson diagonalization with overlap
     ethr =  4.17E-06,  avg # of iterations =  4.7

     total cpu time spent up to now is      317.3 secs

     total energy              =      -3.97301030 Ry
     estimated scf accuracy    <       0.00005450 Ry

     iteration #  5     ecut=    60.00 Ry     beta= 0.01
     Davidson diagonalization with overlap
     ethr =  1.82E-06,  avg # of iterations =  2.7

     total cpu time spent up to now is      357.9 secs

     total energy              =      -3.97309572 Ry
     estimated scf accuracy    <       0.00004999 Ry

     iteration #  6     ecut=    60.00 Ry     beta= 0.01
     Davidson diagonalization with overlap
     ethr =  1.67E-06,  avg # of iterations =  2.0

     total cpu time spent up to now is      387.5 secs

     total energy              =      -3.97310517 Ry
     estimated scf accuracy    <       0.00003910 Ry

     iteration #  7     ecut=    60.00 Ry     beta= 0.01
     Davidson diagonalization with overlap
     ethr =  1.30E-06,  avg # of iterations =  2.0

     total cpu time spent up to now is      423.1 secs

     End of self-consistent calculation

          k = 0.0000 0.0000 0.0000 (  5961 PWs)   bands (ev):

    -6.3915   0.4184   0.4184   0.4184   2.3451   4.8785

          k =-0.1000 0.1000-0.1000 (  5895 PWs)   bands (ev):

    -6.3528   0.0816   0.3913   0.3913   2.6452   4.6437

          k =-0.2000 0.2000-0.2000 (  5892 PWs)   bands (ev):

    -6.2455  -0.5607   0.3246   0.3246   3.0501   4.5238

          k =-0.3000 0.3000-0.3000 (  5900 PWs)   bands (ev):

    -6.0984  -1.1757   0.2492   0.2492   3.0796   4.8643

          k =-0.4000 0.4000-0.4000 (  5882 PWs)   bands (ev):

    -5.9641  -1.6140   0.1931   0.1931   2.9723   4.6561

          k = 0.5000-0.5000 0.5000 (  5900 PWs)   bands (ev):

    -5.9082  -1.7746   0.1727   0.1727   2.9248   4.5779

          k = 0.0000 0.2000 0.0000 (  5885 PWs)   bands (ev):

    -6.3399   0.0850   0.3253   0.3253   2.7528   4.4543

          k =-0.1000 0.3000-0.1000 (  5902 PWs)   bands (ev):

    -6.2554  -0.3966   0.2309   0.2680   3.1524   4.2194

          k =-0.2000 0.4000-0.2000 (  5894 PWs)   bands (ev):

    -6.1207  -0.9831   0.1479   0.1739   3.3058   4.4265

          k =-0.3000 0.5000-0.3000 (  5871 PWs)   bands (ev):

    -5.9798  -1.4597   0.0597   0.1042   3.2245   4.2656

          k = 0.6000-0.4000 0.6000 (  5873 PWs)   bands (ev):

    -5.8948  -1.7057  -0.0316   0.1115   3.1755   4.1452

          k = 0.5000-0.3000 0.5000 (  5880 PWs)   bands (ev):

    -5.9135  -1.6530  -0.0712   0.1664   3.2099   4.2075

          k = 0.4000-0.2000 0.4000 (  5901 PWs)   bands (ev):

    -6.0246  -1.3187  -0.0444   0.2526   3.3109   4.4442

          k = 0.3000-0.1000 0.3000 (  5899 PWs)   bands (ev):

    -6.1698  -0.7989   0.0527   0.3415   3.3444   4.4209

          k = 0.2000 0.0000 0.2000 (  5891 PWs)   bands (ev):

    -6.2911  -0.2552   0.2187   0.3971   3.0016   4.4038

          k = 0.0000 0.4000 0.0000 (  5906 PWs)   bands (ev):

    -6.1969  -0.5051   0.1070   0.1070   3.3151   3.8315

          k =-0.1000 0.5000-0.1000 (  5901 PWs)   bands (ev):

    -6.0851  -0.8877  -0.0270   0.0029   3.3300   3.7279

          k =-0.2000 0.6000-0.2000 (  5878 PWs)   bands (ev):

    -5.9546  -1.2796  -0.2257  -0.0488   3.2334   3.9656

          k = 0.7000-0.3000 0.7000 (  5884 PWs)   bands (ev):

    -5.8579  -1.5284  -0.4237  -0.0348   3.2305   4.0719

          k = 0.6000-0.2000 0.6000 (  5885 PWs)   bands (ev):

    -5.8445  -1.5519  -0.5448   0.0407   3.3819   4.0658

          k = 0.5000-0.1000 0.5000 (  5882 PWs)   bands (ev):

    -5.9218  -1.3575  -0.5318   0.1564   3.6788   4.1091

          k = 0.4000 0.0000 0.4000 (  5887 PWs)   bands (ev):

    -6.0485  -1.0659  -0.3226   0.2733   3.8456   4.3149

          k = 0.0000 0.6000 0.0000 (  5890 PWs)   bands (ev):

    -6.0012  -1.0400  -0.1252  -0.1252   2.9754   3.3439

          k =-0.1000 0.7000-0.1000 (  5868 PWs)   bands (ev):

    -5.8953  -1.2704  -0.3159  -0.1967   2.8057   3.3465

          k = 0.8000-0.2000 0.8000 (  5877 PWs)   bands (ev):

    -5.8086  -1.3960  -0.6428  -0.1938   2.8149   3.7523

          k = 0.7000-0.1000 0.7000 (  5874 PWs)   bands (ev):

    -5.7813  -1.3497  -0.9461  -0.1175   2.9730   4.2902

          k = 0.6000-0.0000 0.6000 (  5880 PWs)   bands (ev):

    -5.8269  -1.2973  -0.9446   0.0128   3.2893   4.5625

          k = 0.0000 0.8000 0.0000 (  5862 PWs)   bands (ev):

    -5.8225  -1.4146  -0.2913  -0.2913   2.4537   3.0436

          k = 0.9000-0.1000 0.9000 (  5861 PWs)   bands (ev):

    -5.7655  -1.4838  -0.4892  -0.3091   2.4432   3.1546

          k = 0.8000 0.0000 0.8000 (  5874 PWs)   bands (ev):

    -5.7498  -1.3929  -0.8444  -0.2464   2.6459   3.6798

          k = 0.0000-1.0000 0.0000 (  5874 PWs)   bands (ev):

    -5.7481  -1.5521  -0.3506  -0.3506   2.2574   2.9425

          k =-0.2000 0.4000 0.0000 (  5899 PWs)   bands (ev):

    -6.1568  -0.7331  -0.0267   0.2372   3.4949   4.0294

          k =-0.3000 0.5000-0.1000 (  5899 PWs)   bands (ev):

    -6.0231  -1.1502  -0.2321   0.1517   3.5976   4.1552

          k = 0.6000-0.4000 0.8000 (  5881 PWs)   bands (ev):

    -5.9029  -1.4902  -0.3365   0.0558   3.5489   3.8955

          k = 0.5000-0.3000 0.7000 (  5876 PWs)   bands (ev):

    -5.8534  -1.6204  -0.3664   0.0145   3.5491   3.7687

          k =-0.2000 0.6000 0.0000 (  5884 PWs)   bands (ev):

    -5.9752  -1.1299  -0.2828  -0.0630   3.2429   3.6329

          k = 0.7000-0.3000 0.9000 (  5876 PWs)   bands (ev):

    -5.8650  -1.3388  -0.5288  -0.1616   3.2193   3.9084

          k = 0.6000-0.2000 0.8000 (  5867 PWs)   bands (ev):

    -5.8027  -1.4312  -0.7282  -0.1789   3.2842   4.1273

          k = 0.5000-0.1000 0.7000 (  5874 PWs)   bands (ev):

    -5.8202  -1.3817  -0.7945  -0.0977   3.4766   4.1466

          k = 0.4000 0.0000 0.6000 (  5891 PWs)   bands (ev):

    -5.9078  -1.2727  -0.6189   0.0377   3.7590   4.1694

          k = 0.8000-0.2000 1.0000 (  5871 PWs)   bands (ev):

    -5.8123  -1.3846  -0.4634  -0.3326   2.7467   3.3713

          k = 0.7000-0.1000 0.9000 (  5873 PWs)   bands (ev):

    -5.7607  -1.3621  -0.7852  -0.3616   2.8960   3.7870

          k = 0.6000 0.0000 0.8000 (  5870 PWs)   bands (ev):

    -5.7642  -1.1645  -1.1302  -0.2624   3.1336   4.3288

          k =-0.2000-1.0000 0.0000 (  5862 PWs)   bands (ev):

    -5.7455  -1.4721  -0.5276  -0.4409   2.5649   3.2815

          k = 0.6000-0.2000 1.0000 (  5887 PWs)   bands (ev):

    -5.7882  -1.2976  -0.8227  -0.3457   3.3509   4.1769

          k = 0.5000-0.1000 0.9000 (  5884 PWs)   bands (ev):

    -5.7577  -1.2188  -0.9875  -0.4338   3.3872   4.3914

          k =-0.4000-1.0000 0.0000 (  5876 PWs)   bands (ev):

    -5.7411  -1.2410  -0.8943  -0.5673   3.2099   4.1199

     the Fermi energy is    -1.6721 ev

!    total energy              =      -3.97316247 Ry
     estimated scf accuracy    <       0.00000060 Ry
     smearing contrib. (-TS)   =      -0.08831099 Ry
     internal energy E=F+TS    =      -3.88485149 Ry

     The total energy is F=E-TS. E is the sum of the following terms:
     one-electron contribution =      -0.31937541 Ry
     hartree contribution      =       0.46490661 Ry
     xc contribution           =      -1.16854248 Ry
     ewald contribution        =      -2.86184020 Ry

     convergence has been achieved in   7 iterations
     Writing meta-gga kinetic term

     Writing all to output data dir ./input_pw/Al/7/pwscf.save/
     Writing meta-gga kinetic term
 
     init_run     :     13.90s CPU     27.55s WALL (       1 calls)
     electrons    :    261.35s CPU    395.55s WALL (       1 calls)

     Called by init_run:
     wfcinit      :     13.61s CPU     26.89s WALL (       1 calls)
     potinit      :      0.15s CPU      0.37s WALL (       1 calls)
     hinit0       :      0.08s CPU      0.15s WALL (       1 calls)

     Called by electrons:
     c_bands      :    214.50s CPU    324.79s WALL (       8 calls)
     sum_band     :     44.52s CPU     67.18s WALL (       8 calls)
     v_of_rho     :      1.14s CPU      1.86s WALL (       8 calls)
     mix_rho      :      1.25s CPU      1.93s WALL (       8 calls)

     Called by c_bands:
     init_us_2    :      0.63s CPU      0.93s WALL (     799 calls)
     init_us_2:cp :      0.62s CPU      0.93s WALL (     799 calls)
     cegterg      :    213.78s CPU    323.56s WALL (     376 calls)

     Called by *egterg:
     cdiaghg      :      0.18s CPU      0.30s WALL (    1279 calls)
     h_psi        :    224.36s CPU    345.76s WALL (    1373 calls)
     g_psi        :      0.11s CPU      0.18s WALL (     950 calls)

     Called by h_psi:
     h_psi:calbec :      0.58s CPU      0.84s WALL (    1373 calls)
     vloc_psi     :     55.07s CPU     85.14s WALL (    1373 calls)
     add_vuspsi   :      0.31s CPU      0.46s WALL (    1373 calls)
     h_psi_meta   :    168.18s CPU    259.01s WALL (    1373 calls)

     General routines
     calbec       :      0.57s CPU      0.84s WALL (    1373 calls)
     fft          :      0.29s CPU      0.50s WALL (      95 calls)
     ffts         :      0.44s CPU      0.68s WALL (     138 calls)
     fftw         :    201.60s CPU    312.24s WALL (   63360 calls)
     interpolate  :      0.00s CPU      0.00s WALL (       8 calls)
 
     Parallel routines
 
     PWSCF        :   4m35.33s CPU   7m 3.23s WALL

 
   This run was terminated on:  13:18:39  21Mar2023            

=------------------------------------------------------------------------------=
   JOB DONE.
=------------------------------------------------------------------------------=
