
     Program PWSCF v.7.0 starts on  4Apr2023 at  8:56:52 

     This program is part of the open-source Quantum ESPRESSO suite
     for quantum simulation of materials; please cite
         "P. Giannozzi et al., J. Phys.:Condens. Matter 21 395502 (2009);
         "P. Giannozzi et al., J. Phys.:Condens. Matter 29 465901 (2017);
         "P. Giannozzi et al., J. Chem. Phys. 152 154105 (2020);
          URL http://www.quantum-espresso.org", 
     in publications or presentations arising from this work. More details at
     http://www.quantum-espresso.org/quote

     Parallel version (MPI), running on     1 processors

     MPI processes distributed on     1 nodes
     19157 MiB available memory on the printing compute node when the environment starts
 
     Waiting for input...
     Reading input from standard input
Warning: card &CELL ignored
Warning: card / ignored

     Current dimensions of program PWSCF are:
     Max number of different atomic species (ntypx) = 10
     Max number of k-points (npk) =  40000
     Max angular momentum in pseudopotentials (lmaxx) =  4
     file Al.SCAN.UPF2: wavefunction(s)  0D renormalized

     WARNING: the MGGA functional with ID    5 has been 
     read together with other dft terms, but it should 
     stand alone in order to work properly. The other 
     terms will be ignored.

     Subspace diagonalization in iterative solution of the eigenvalue problem:
     a serial algorithm will be used

 
     G-vector sticks info
     --------------------
     sticks:   dense  smooth     PW     G-vecs:    dense   smooth      PW
     Sum        1039    1039    313                22123    22123    3647
 
     Using Slab Decomposition
 


     bravais-lattice index     =            2
     lattice parameter (alat)  =      11.1872  a.u.
     unit-cell volume          =     350.0271 (a.u.)^3
     number of atoms/cell      =            1
     number of atomic types    =            1
     number of electrons       =         3.00
     number of Kohn-Sham states=            6
     kinetic-energy cutoff     =      60.0000  Ry
     charge density cutoff     =     240.0000  Ry
     scf convergence threshold =      1.0E-06
     mixing beta               =       0.0100
     number of iterations used =            8  local-TF  mixing
     Exchange-correlation= SLA  PW   SCAN SCAN
                           (   0   0   0   0   0 263 267)

     celldm(1)=  11.187179  celldm(2)=   0.000000  celldm(3)=   0.000000
     celldm(4)=   0.000000  celldm(5)=   0.000000  celldm(6)=   0.000000

     crystal axes: (cart. coord. in units of alat)
               a(1) = (  -0.500000   0.000000   0.500000 )  
               a(2) = (   0.000000   0.500000   0.500000 )  
               a(3) = (  -0.500000   0.500000   0.000000 )  

     reciprocal axes: (cart. coord. in units 2 pi/alat)
               b(1) = ( -1.000000 -1.000000  1.000000 )  
               b(2) = (  1.000000  1.000000  1.000000 )  
               b(3) = ( -1.000000  1.000000 -1.000000 )  


     PseudoPot. # 1 for Al read from file:
     ~/Documents/TA/PWDFT.jl/pseudopotentials/scan_upf/Al.SCAN.UPF2
     MD5 check sum: Not computed, couldn't open file
     Pseudo is Norm-conserving, Zval =  3.0
     Generated by new atomic code, or converted to UPF format
     Using radial grid of 1467 points,  2 beta functions with: 
                l(1) =   0
                l(2) =   1

     atomic species   valence    mass     pseudopotential
        Al             3.00    26.98154     Al( 1.00)

     48 Sym. Ops., with inversion, found



   Cartesian axes

     site n.     atom                  positions (alat units)
         1           Al  tau(   1) = (   0.0000000   0.0000000   0.0000000  )

     number of k points=    47  Gaussian smearing, width (Ry)=  0.1000
                       cart. coord. in units 2pi/alat
        k(    1) = (   0.0000000   0.0000000   0.0000000), wk =   0.0020000
        k(    2) = (  -0.1000000   0.1000000  -0.1000000), wk =   0.0160000
        k(    3) = (  -0.2000000   0.2000000  -0.2000000), wk =   0.0160000
        k(    4) = (  -0.3000000   0.3000000  -0.3000000), wk =   0.0160000
        k(    5) = (  -0.4000000   0.4000000  -0.4000000), wk =   0.0160000
        k(    6) = (   0.5000000  -0.5000000   0.5000000), wk =   0.0080000
        k(    7) = (   0.0000000   0.2000000   0.0000000), wk =   0.0120000
        k(    8) = (  -0.1000000   0.3000000  -0.1000000), wk =   0.0480000
        k(    9) = (  -0.2000000   0.4000000  -0.2000000), wk =   0.0480000
        k(   10) = (  -0.3000000   0.5000000  -0.3000000), wk =   0.0480000
        k(   11) = (   0.6000000  -0.4000000   0.6000000), wk =   0.0480000
        k(   12) = (   0.5000000  -0.3000000   0.5000000), wk =   0.0480000
        k(   13) = (   0.4000000  -0.2000000   0.4000000), wk =   0.0480000
        k(   14) = (   0.3000000  -0.1000000   0.3000000), wk =   0.0480000
        k(   15) = (   0.2000000   0.0000000   0.2000000), wk =   0.0240000
        k(   16) = (   0.0000000   0.4000000   0.0000000), wk =   0.0120000
        k(   17) = (  -0.1000000   0.5000000  -0.1000000), wk =   0.0480000
        k(   18) = (  -0.2000000   0.6000000  -0.2000000), wk =   0.0480000
        k(   19) = (   0.7000000  -0.3000000   0.7000000), wk =   0.0480000
        k(   20) = (   0.6000000  -0.2000000   0.6000000), wk =   0.0480000
        k(   21) = (   0.5000000  -0.1000000   0.5000000), wk =   0.0480000
        k(   22) = (   0.4000000   0.0000000   0.4000000), wk =   0.0240000
        k(   23) = (   0.0000000   0.6000000   0.0000000), wk =   0.0120000
        k(   24) = (  -0.1000000   0.7000000  -0.1000000), wk =   0.0480000
        k(   25) = (   0.8000000  -0.2000000   0.8000000), wk =   0.0480000
        k(   26) = (   0.7000000  -0.1000000   0.7000000), wk =   0.0480000
        k(   27) = (   0.6000000  -0.0000000   0.6000000), wk =   0.0240000
        k(   28) = (   0.0000000   0.8000000   0.0000000), wk =   0.0120000
        k(   29) = (   0.9000000  -0.1000000   0.9000000), wk =   0.0480000
        k(   30) = (   0.8000000   0.0000000   0.8000000), wk =   0.0240000
        k(   31) = (   0.0000000  -1.0000000   0.0000000), wk =   0.0060000
        k(   32) = (  -0.2000000   0.4000000   0.0000000), wk =   0.0480000
        k(   33) = (  -0.3000000   0.5000000  -0.1000000), wk =   0.0960000
        k(   34) = (   0.6000000  -0.4000000   0.8000000), wk =   0.0960000
        k(   35) = (   0.5000000  -0.3000000   0.7000000), wk =   0.0480000
        k(   36) = (  -0.2000000   0.6000000   0.0000000), wk =   0.0480000
        k(   37) = (   0.7000000  -0.3000000   0.9000000), wk =   0.0960000
        k(   38) = (   0.6000000  -0.2000000   0.8000000), wk =   0.0960000
        k(   39) = (   0.5000000  -0.1000000   0.7000000), wk =   0.0960000
        k(   40) = (   0.4000000   0.0000000   0.6000000), wk =   0.0480000
        k(   41) = (   0.8000000  -0.2000000   1.0000000), wk =   0.0480000
        k(   42) = (   0.7000000  -0.1000000   0.9000000), wk =   0.0960000
        k(   43) = (   0.6000000   0.0000000   0.8000000), wk =   0.0480000
        k(   44) = (  -0.2000000  -1.0000000   0.0000000), wk =   0.0240000
        k(   45) = (   0.6000000  -0.2000000   1.0000000), wk =   0.0480000
        k(   46) = (   0.5000000  -0.1000000   0.9000000), wk =   0.0480000
        k(   47) = (  -0.4000000  -1.0000000   0.0000000), wk =   0.0240000

     Dense  grid:    22123 G-vectors     FFT dimensions: (  40,  40,  40)

     Estimated max dynamical RAM per process >      44.73 MB

     WARNING: libxc functional with ID  263 depends
      on external parameters: check the user_guide of
      QE if you need to modify them or to check their
      default values.

     Initial potential from superposition of free atoms

     starting charge       2.9979, renormalised to       3.0000
     Starting wfcs are    9 randomized atomic wfcs

     total cpu time spent up to now is        5.9 secs

     Self-consistent Calculation

     iteration #  1     ecut=    60.00 Ry     beta= 0.01
     Davidson diagonalization with overlap
     ethr =  1.00E-02,  avg # of iterations =  3.0

     Threshold (ethr) on eigenvalues was too large:
     Diagonalizing with lowered threshold

     Davidson diagonalization with overlap
     ethr =  1.32E-04,  avg # of iterations =  2.1

     total cpu time spent up to now is       30.2 secs

     total energy              =      -4.02446078 Ry
     estimated scf accuracy    <       0.00374507 Ry

     iteration #  2     ecut=    60.00 Ry     beta= 0.01
     Davidson diagonalization with overlap
     ethr =  1.25E-04,  avg # of iterations =  1.0

     total cpu time spent up to now is       39.2 secs

     total energy              =      -4.02736675 Ry
     estimated scf accuracy    <       0.00365852 Ry

     iteration #  3     ecut=    60.00 Ry     beta= 0.01
     Davidson diagonalization with overlap
     ethr =  1.22E-04,  avg # of iterations =  2.0

     total cpu time spent up to now is       50.4 secs

     total energy              =      -4.02834049 Ry
     estimated scf accuracy    <       0.00027249 Ry

     iteration #  4     ecut=    60.00 Ry     beta= 0.01
     Davidson diagonalization with overlap
     ethr =  9.08E-06,  avg # of iterations =  2.7

     total cpu time spent up to now is       64.4 secs

     total energy              =      -4.02844057 Ry
     estimated scf accuracy    <       0.00007143 Ry

     iteration #  5     ecut=    60.00 Ry     beta= 0.01
     Davidson diagonalization with overlap
     ethr =  2.38E-06,  avg # of iterations =  1.4

     total cpu time spent up to now is       74.4 secs

     total energy              =      -4.02842630 Ry
     estimated scf accuracy    <       0.00007024 Ry

     iteration #  6     ecut=    60.00 Ry     beta= 0.01
     Davidson diagonalization with overlap
     ethr =  2.34E-06,  avg # of iterations =  1.0

     total cpu time spent up to now is       83.8 secs

     total energy              =      -4.02843320 Ry
     estimated scf accuracy    <       0.00008408 Ry

     iteration #  7     ecut=    60.00 Ry     beta= 0.01
     Davidson diagonalization with overlap
     ethr =  2.34E-06,  avg # of iterations =  2.0

     total cpu time spent up to now is       94.8 secs

     total energy              =      -4.02845723 Ry
     estimated scf accuracy    <       0.00000729 Ry

     iteration #  8     ecut=    60.00 Ry     beta= 0.01
     Davidson diagonalization with overlap
     ethr =  2.43E-07,  avg # of iterations =  1.3

     total cpu time spent up to now is      101.1 secs

     total energy              =      -4.02845614 Ry
     estimated scf accuracy    <       0.00000496 Ry

     iteration #  9     ecut=    60.00 Ry     beta= 0.01
     Davidson diagonalization with overlap
     ethr =  1.65E-07,  avg # of iterations =  1.0

     total cpu time spent up to now is      106.1 secs

     total energy              =      -4.02845218 Ry
     estimated scf accuracy    <       0.00000387 Ry

     iteration # 10     ecut=    60.00 Ry     beta= 0.01
     Davidson diagonalization with overlap
     ethr =  1.29E-07,  avg # of iterations =  2.0

     total cpu time spent up to now is      112.0 secs

     End of self-consistent calculation

          k = 0.0000 0.0000 0.0000 (  2733 PWs)   bands (ev):

    -5.7284   5.0466   5.0466   5.0466   8.7497   8.7497

          k =-0.1000 0.1000-0.1000 (  2728 PWs)   bands (ev):

    -5.6089   4.2043   4.9346   4.9346   8.4072   8.9764

          k =-0.2000 0.2000-0.2000 (  2740 PWs)   bands (ev):

    -5.2569   2.6083   4.6954   4.6954   7.8541   9.2113

          k =-0.3000 0.3000-0.3000 (  2740 PWs)   bands (ev):

    -4.7000   0.9994   4.4690   4.4690   7.4501   8.8323

          k =-0.4000 0.4000-0.4000 (  2752 PWs)   bands (ev):

    -4.0360  -0.3334   4.3224   4.3224   7.2209   8.4243

          k = 0.5000-0.5000 0.5000 (  2764 PWs)   bands (ev):

    -3.6498  -0.9472   4.2729   4.2729   7.1480   8.2725

          k = 0.0000 0.2000 0.0000 (  2733 PWs)   bands (ev):

    -5.5690   4.4351   4.6391   4.6391   8.0161   9.3605

          k =-0.1000 0.3000-0.1000 (  2748 PWs)   bands (ev):

    -5.2940   3.1543   4.3031   4.5104   7.7832   9.1632

          k =-0.2000 0.4000-0.2000 (  2740 PWs)   bands (ev):

    -4.8026   1.5748   4.0605   4.1966   7.6307   8.6762

          k =-0.3000 0.5000-0.3000 (  2753 PWs)   bands (ev):

    -4.1585   0.1490   3.8516   3.9651   7.4016   8.3308

          k = 0.6000-0.4000 0.6000 (  2748 PWs)   bands (ev):

    -3.6119  -0.7661   3.5793   4.0255   7.3661   8.1568

          k = 0.5000-0.3000 0.5000 (  2759 PWs)   bands (ev):

    -3.7504  -0.5519   3.4326   4.2218   7.5722   8.1640

          k = 0.4000-0.2000 0.4000 (  2760 PWs)   bands (ev):

    -4.3832   0.5942   3.4475   4.5099   7.9043   8.4492

          k = 0.3000-0.1000 0.3000 (  2753 PWs)   bands (ev):

    -4.9891   2.0923   3.6529   4.8133   8.2349   8.9817

          k = 0.2000 0.0000 0.2000 (  2741 PWs)   bands (ev):

    -5.4117   3.5091   4.1594   5.0031   8.4564   9.0266

          k = 0.0000 0.4000 0.0000 (  2750 PWs)   bands (ev):

    -5.0979   3.1961   3.8860   3.8860   6.9462   7.9560

          k =-0.1000 0.5000-0.1000 (  2745 PWs)   bands (ev):

    -4.6814   2.0861   3.4823   3.5875   6.8120   7.4744

          k =-0.2000 0.6000-0.2000 (  2747 PWs)   bands (ev):

    -4.0892   0.7673   2.9104   3.4629   6.5618   8.2741

          k = 0.7000-0.3000 0.7000 (  2738 PWs)   bands (ev):

    -3.4837  -0.2771   2.4131   3.5268   6.5157   9.1353

          k = 0.6000-0.2000 0.6000 (  2754 PWs)   bands (ev):

    -3.3634  -0.4499   2.0934   3.7680   6.7732   9.3450

          k = 0.5000-0.1000 0.5000 (  2748 PWs)   bands (ev):

    -3.8873   0.4078   2.0130   4.1455   7.3138   9.3431

          k = 0.4000 0.0000 0.4000 (  2742 PWs)   bands (ev):

    -4.5106   1.5085   2.4035   4.5608   8.0817   9.1068

          k = 0.0000 0.6000 0.0000 (  2758 PWs)   bands (ev):

    -4.3441   1.7748   3.2271   3.2271   6.1105   6.3383

          k =-0.1000 0.7000-0.1000 (  2759 PWs)   bands (ev):

    -3.8270   0.9519   2.5523   3.0463   5.8693   6.5565

          k = 0.8000-0.2000 0.8000 (  2746 PWs)   bands (ev):

    -3.2507   0.1989   1.6249   3.0660   5.7981   7.8578

          k = 0.7000-0.1000 0.7000 (  2746 PWs)   bands (ev):

    -2.9787  -0.0452   0.9645   3.2832   6.0308   9.4106

          k = 0.6000-0.0000 0.6000 (  2738 PWs)   bands (ev):

    -3.3165   0.3617   0.8791   3.6697   6.5480  10.6315

          k = 0.0000 0.8000 0.0000 (  2750 PWs)   bands (ev):

    -3.4084   0.3667   2.8030   2.8030   5.3734   5.5962

          k = 0.9000-0.1000 0.9000 (  2756 PWs)   bands (ev):

    -2.9598  -0.1245   2.0818   2.7626   5.3402   6.1793

          k = 0.8000 0.0000 0.8000 (  2748 PWs)   bands (ev):

    -2.7720  -0.0873   1.0647   2.9287   5.5489   7.7087

          k = 0.0000-1.0000 0.0000 (  2778 PWs)   bands (ev):

    -2.8017  -0.4152   2.6580   2.6580   5.0624   5.4232

          k =-0.2000 0.4000 0.0000 (  2752 PWs)   bands (ev):

    -4.9480   2.4429   3.3222   4.4214   7.7681   8.4072

          k =-0.3000 0.5000-0.1000 (  2746 PWs)   bands (ev):

    -4.4027   1.1781   2.8140   4.0897   7.7086   8.4261

          k = 0.6000-0.4000 0.8000 (  2755 PWs)   bands (ev):

    -3.7592  -0.0548   2.6574   3.7401   7.5131   8.2221

          k = 0.5000-0.3000 0.7000 (  2752 PWs)   bands (ev):

    -3.3920  -0.6314   2.6286   3.5928   7.4746   8.0542

          k =-0.2000 0.6000 0.0000 (  2754 PWs)   bands (ev):

    -4.2113   1.4229   2.6133   3.3400   6.9749   7.0236

          k = 0.7000-0.3000 0.9000 (  2749 PWs)   bands (ev):

    -3.6106   0.5061   2.0021   2.9677   6.8160   8.1009

          k = 0.6000-0.2000 0.8000 (  2737 PWs)   bands (ev):

    -3.1319  -0.1802   1.5948   2.9124   6.9136   8.9805

          k = 0.5000-0.1000 0.7000 (  2742 PWs)   bands (ev):

    -3.2643   0.0318   1.3851   3.1720   7.2407   8.9644

          k = 0.4000 0.0000 0.6000 (  2741 PWs)   bands (ev):

    -3.8371   0.7836   1.6519   3.6322   7.7035   8.8468

          k = 0.8000-0.2000 1.0000 (  2745 PWs)   bands (ev):

    -3.3156   0.3778   2.1633   2.4754   6.1796   6.5492

          k = 0.7000-0.1000 0.9000 (  2752 PWs)   bands (ev):

    -2.8759   0.0714   1.2393   2.3922   6.3858   7.8337

          k = 0.6000 0.0000 0.8000 (  2748 PWs)   bands (ev):

    -2.8627   0.3983   0.4700   2.6732   6.7192   9.3729

          k =-0.2000-1.0000 0.0000 (  2746 PWs)   bands (ev):

    -2.7628  -0.2510   2.0103   2.1827   5.9305   6.3881

          k = 0.6000-0.2000 1.0000 (  2739 PWs)   bands (ev):

    -3.0856   0.3548   1.1812   2.3107   7.5994   8.4564

          k = 0.5000-0.1000 0.9000 (  2740 PWs)   bands (ev):

    -2.8192   0.2436   0.8835   2.0446   7.7303   9.0438

          k =-0.4000-1.0000 0.0000 (  2748 PWs)   bands (ev):

    -2.6959   0.2360   1.0219   1.6585   7.5106   8.3161

     the Fermi energy is     0.2632 ev

!    total energy              =      -4.02845741 Ry
     estimated scf accuracy    <       0.00000007 Ry
     smearing contrib. (-TS)   =      -0.05663402 Ry
     internal energy E=F+TS    =      -3.97182339 Ry

     The total energy is F=E-TS. E is the sum of the following terms:
     one-electron contribution =       0.78960030 Ry
     hartree contribution      =       0.15758692 Ry
     xc contribution           =      -1.23052400 Ry
     ewald contribution        =      -3.68848661 Ry

     convergence has been achieved in  10 iterations
     Writing meta-gga kinetic term

     Writing all to output data dir ./input_pw/Al/7/pwscf.save/
     Writing meta-gga kinetic term
 
     init_run     :      2.97s CPU      5.80s WALL (       1 calls)
     electrons    :     62.77s CPU    106.16s WALL (       1 calls)

     Called by init_run:
     wfcinit      :      2.82s CPU      5.50s WALL (       1 calls)
     potinit      :      0.05s CPU      0.13s WALL (       1 calls)
     hinit0       :      0.07s CPU      0.13s WALL (       1 calls)

     Called by electrons:
     c_bands      :     50.15s CPU     84.57s WALL (      11 calls)
     sum_band     :     11.75s CPU     20.17s WALL (      11 calls)
     v_of_rho     :      0.51s CPU      0.87s WALL (      11 calls)
     mix_rho      :      0.38s CPU      0.60s WALL (      11 calls)

     Called by c_bands:
     init_us_2    :      0.35s CPU      0.71s WALL (    1081 calls)
     init_us_2:cp :      0.34s CPU      0.71s WALL (    1081 calls)
     cegterg      :     49.76s CPU     83.91s WALL (     517 calls)

     Called by *egterg:
     cdiaghg      :      0.15s CPU      0.26s WALL (    1392 calls)
     h_psi        :     51.47s CPU     87.47s WALL (    1486 calls)
     g_psi        :      0.04s CPU      0.05s WALL (     922 calls)

     Called by h_psi:
     h_psi:calbec :      0.19s CPU      0.34s WALL (    1486 calls)
     vloc_psi     :     12.83s CPU     21.61s WALL (    1486 calls)
     add_vuspsi   :      0.13s CPU      0.20s WALL (    1486 calls)
     h_psi_meta   :     38.24s CPU     65.13s WALL (    1486 calls)

     General routines
     calbec       :      0.18s CPU      0.33s WALL (    1486 calls)
     fft          :      0.10s CPU      0.18s WALL (     131 calls)
     ffts         :      0.12s CPU      0.22s WALL (     157 calls)
     fftw         :     50.34s CPU     86.29s WALL (   75192 calls)
     interpolate  :      0.00s CPU      0.00s WALL (      11 calls)
 
     Parallel routines
 
     PWSCF        :   1m 5.79s CPU   1m52.06s WALL

 
   This run was terminated on:   8:58:44   4Apr2023            

=------------------------------------------------------------------------------=
   JOB DONE.
=------------------------------------------------------------------------------=
