
     Program PWSCF v.7.0 starts on  7Jul2023 at 14:23:45 

     This program is part of the open-source Quantum ESPRESSO suite
     for quantum simulation of materials; please cite
         "P. Giannozzi et al., J. Phys.:Condens. Matter 21 395502 (2009);
         "P. Giannozzi et al., J. Phys.:Condens. Matter 29 465901 (2017);
         "P. Giannozzi et al., J. Chem. Phys. 152 154105 (2020);
          URL http://www.quantum-espresso.org", 
     in publications or presentations arising from this work. More details at
     http://www.quantum-espresso.org/quote

     Parallel version (MPI), running on     1 processors

     MPI processes distributed on     1 nodes
     27527 MiB available memory on the printing compute node when the environment starts
 
     Waiting for input...
     Reading input from standard input
Warning: card &CELL ignored
Warning: card / ignored

     Current dimensions of program PWSCF are:
     Max number of different atomic species (ntypx) = 10
     Max number of k-points (npk) =  40000
     Max angular momentum in pseudopotentials (lmaxx) =  4

     WARNING: the MGGA functional with ID    5 has been 
     read together with other dft terms, but it should 
     stand alone in order to work properly. The other 
     terms will be ignored.

     WARNING: the MGGA functional with ID    5 has been 
     read together with other dft terms, but it should 
     stand alone in order to work properly. The other 
     terms will be ignored.

     Subspace diagonalization in iterative solution of the eigenvalue problem:
     a serial algorithm will be used

 
     G-vector sticks info
     --------------------
     sticks:   dense  smooth     PW     G-vecs:    dense   smooth      PW
     Sum         367     367    121                 4693     4693     941
 
     Using Slab Decomposition
 


     bravais-lattice index     =            2
     lattice parameter (alat)  =       7.3674  a.u.
     unit-cell volume          =      99.9735 (a.u.)^3
     number of atoms/cell      =            2
     number of atomic types    =            2
     number of electrons       =         8.00
     number of Kohn-Sham states=            4
     kinetic-energy cutoff     =      50.0000  Ry
     charge density cutoff     =     200.0000  Ry
     scf convergence threshold =      2.0E-05
     mixing beta               =       0.2000
     number of iterations used =            8  local-TF  mixing
     Exchange-correlation= SLA  PW   SCAN SCAN
                           (   0   0   0   0   0 263 267)

     celldm(1)=   7.367412  celldm(2)=   0.000000  celldm(3)=   0.000000
     celldm(4)=   0.000000  celldm(5)=   0.000000  celldm(6)=   0.000000

     crystal axes: (cart. coord. in units of alat)
               a(1) = (  -0.500000   0.000000   0.500000 )  
               a(2) = (   0.000000   0.500000   0.500000 )  
               a(3) = (  -0.500000   0.500000   0.000000 )  

     reciprocal axes: (cart. coord. in units 2 pi/alat)
               b(1) = ( -1.000000 -1.000000  1.000000 )  
               b(2) = (  1.000000  1.000000  1.000000 )  
               b(3) = ( -1.000000  1.000000 -1.000000 )  


     PseudoPot. # 1 for Li read from file:
     ~/Documents/TA/PWDFT.jl/pseudopotentials/scan_upf/Li.SCAN.UPF2
     MD5 check sum: Not computed, couldn't open file
     Pseudo is Norm-conserving, Zval =  1.0
     Generated by new atomic code, or converted to UPF format
     Using radial grid of 1321 points,  1 beta functions with: 
                l(1) =   0

     PseudoPot. # 2 for F  read from file:
     ~/Documents/TA/PWDFT.jl/pseudopotentials/scan_upf/F.SCAN.UPF2
     MD5 check sum: Not computed, couldn't open file
     Pseudo is Norm-conserving, Zval =  7.0
     Generated by new atomic code, or converted to UPF format
     Using radial grid of 1431 points,  1 beta functions with: 
                l(1) =   0

     atomic species   valence    mass     pseudopotential
        Li             1.00     6.94100     Li( 1.00)
        F              7.00    18.99800     F ( 1.00)

     48 Sym. Ops., with inversion, found



   Cartesian axes

     site n.     atom                  positions (alat units)
         1           Li  tau(   1) = (   0.0000000   0.0000000   0.0000000  )
         2           F   tau(   2) = (   0.5000000   0.5000000   0.5000000  )

     number of k points=    47
                       cart. coord. in units 2pi/alat
        k(    1) = (   0.0000000   0.0000000   0.0000000), wk =   0.0020000
        k(    2) = (  -0.1000000   0.1000000  -0.1000000), wk =   0.0160000
        k(    3) = (  -0.2000000   0.2000000  -0.2000000), wk =   0.0160000
        k(    4) = (  -0.3000000   0.3000000  -0.3000000), wk =   0.0160000
        k(    5) = (  -0.4000000   0.4000000  -0.4000000), wk =   0.0160000
        k(    6) = (   0.5000000  -0.5000000   0.5000000), wk =   0.0080000
        k(    7) = (   0.0000000   0.2000000   0.0000000), wk =   0.0120000
        k(    8) = (  -0.1000000   0.3000000  -0.1000000), wk =   0.0480000
        k(    9) = (  -0.2000000   0.4000000  -0.2000000), wk =   0.0480000
        k(   10) = (  -0.3000000   0.5000000  -0.3000000), wk =   0.0480000
        k(   11) = (   0.6000000  -0.4000000   0.6000000), wk =   0.0480000
        k(   12) = (   0.5000000  -0.3000000   0.5000000), wk =   0.0480000
        k(   13) = (   0.4000000  -0.2000000   0.4000000), wk =   0.0480000
        k(   14) = (   0.3000000  -0.1000000   0.3000000), wk =   0.0480000
        k(   15) = (   0.2000000   0.0000000   0.2000000), wk =   0.0240000
        k(   16) = (   0.0000000   0.4000000   0.0000000), wk =   0.0120000
        k(   17) = (  -0.1000000   0.5000000  -0.1000000), wk =   0.0480000
        k(   18) = (  -0.2000000   0.6000000  -0.2000000), wk =   0.0480000
        k(   19) = (   0.7000000  -0.3000000   0.7000000), wk =   0.0480000
        k(   20) = (   0.6000000  -0.2000000   0.6000000), wk =   0.0480000
        k(   21) = (   0.5000000  -0.1000000   0.5000000), wk =   0.0480000
        k(   22) = (   0.4000000   0.0000000   0.4000000), wk =   0.0240000
        k(   23) = (   0.0000000   0.6000000   0.0000000), wk =   0.0120000
        k(   24) = (  -0.1000000   0.7000000  -0.1000000), wk =   0.0480000
        k(   25) = (   0.8000000  -0.2000000   0.8000000), wk =   0.0480000
        k(   26) = (   0.7000000  -0.1000000   0.7000000), wk =   0.0480000
        k(   27) = (   0.6000000  -0.0000000   0.6000000), wk =   0.0240000
        k(   28) = (   0.0000000   0.8000000   0.0000000), wk =   0.0120000
        k(   29) = (   0.9000000  -0.1000000   0.9000000), wk =   0.0480000
        k(   30) = (   0.8000000   0.0000000   0.8000000), wk =   0.0240000
        k(   31) = (   0.0000000  -1.0000000   0.0000000), wk =   0.0060000
        k(   32) = (  -0.2000000   0.4000000   0.0000000), wk =   0.0480000
        k(   33) = (  -0.3000000   0.5000000  -0.1000000), wk =   0.0960000
        k(   34) = (   0.6000000  -0.4000000   0.8000000), wk =   0.0960000
        k(   35) = (   0.5000000  -0.3000000   0.7000000), wk =   0.0480000
        k(   36) = (  -0.2000000   0.6000000   0.0000000), wk =   0.0480000
        k(   37) = (   0.7000000  -0.3000000   0.9000000), wk =   0.0960000
        k(   38) = (   0.6000000  -0.2000000   0.8000000), wk =   0.0960000
        k(   39) = (   0.5000000  -0.1000000   0.7000000), wk =   0.0960000
        k(   40) = (   0.4000000   0.0000000   0.6000000), wk =   0.0480000
        k(   41) = (   0.8000000  -0.2000000   1.0000000), wk =   0.0480000
        k(   42) = (   0.7000000  -0.1000000   0.9000000), wk =   0.0960000
        k(   43) = (   0.6000000   0.0000000   0.8000000), wk =   0.0480000
        k(   44) = (  -0.2000000  -1.0000000   0.0000000), wk =   0.0240000
        k(   45) = (   0.6000000  -0.2000000   1.0000000), wk =   0.0480000
        k(   46) = (   0.5000000  -0.1000000   0.9000000), wk =   0.0480000
        k(   47) = (  -0.4000000  -1.0000000   0.0000000), wk =   0.0240000

     Dense  grid:     4693 G-vectors     FFT dimensions: (  24,  24,  24)

     Estimated max dynamical RAM per process >       8.83 MB

     WARNING: libxc functional with ID  263 depends
      on external parameters: check the user_guide of
      QE if you need to modify them or to check their
      default values.

     Initial potential from superposition of free atoms

     starting charge       7.9953, renormalised to       8.0000
     Starting wfcs are    8 randomized atomic wfcs

     total cpu time spent up to now is        1.5 secs

     Self-consistent Calculation

     iteration #  1     ecut=    50.00 Ry     beta= 0.20
     Davidson diagonalization with overlap
     ethr =  1.00E-02,  avg # of iterations =  2.0

     total cpu time spent up to now is        3.2 secs

     total energy              =     -48.57262438 Ry
     estimated scf accuracy    <      17.66297672 Ry

     iteration #  2     ecut=    50.00 Ry     beta= 0.20
     Davidson diagonalization with overlap
     ethr =  1.00E-02,  avg # of iterations =  1.0

     total cpu time spent up to now is        4.6 secs

     total energy              =     -48.57354669 Ry
     estimated scf accuracy    <      11.42584879 Ry

     iteration #  3     ecut=    50.00 Ry     beta= 0.20
     Davidson diagonalization with overlap
     ethr =  1.00E-02,  avg # of iterations =  1.0

     total cpu time spent up to now is        5.9 secs

     total energy              =     -48.57609358 Ry
     estimated scf accuracy    <       0.01094022 Ry

     iteration #  4     ecut=    50.00 Ry     beta= 0.20
     Davidson diagonalization with overlap
     ethr =  1.37E-04,  avg # of iterations =  1.0

     total cpu time spent up to now is        7.3 secs

     total energy              =     -48.57650405 Ry
     estimated scf accuracy    <       0.00606100 Ry

     iteration #  5     ecut=    50.00 Ry     beta= 0.20
     Davidson diagonalization with overlap
     ethr =  7.58E-05,  avg # of iterations =  1.0

     total cpu time spent up to now is        8.7 secs

     total energy              =     -48.57673221 Ry
     estimated scf accuracy    <       0.00111527 Ry

     iteration #  6     ecut=    50.00 Ry     beta= 0.20
     Davidson diagonalization with overlap
     ethr =  1.39E-05,  avg # of iterations =  1.0

     total cpu time spent up to now is       10.0 secs

     total energy              =     -48.57675992 Ry
     estimated scf accuracy    <       0.00023306 Ry

     iteration #  7     ecut=    50.00 Ry     beta= 0.20
     Davidson diagonalization with overlap
     ethr =  2.91E-06,  avg # of iterations =  1.0

     total cpu time spent up to now is       11.4 secs

     total energy              =     -48.57675952 Ry
     estimated scf accuracy    <       0.00006782 Ry

     iteration #  8     ecut=    50.00 Ry     beta= 0.20
     Davidson diagonalization with overlap
     ethr =  8.48E-07,  avg # of iterations =  1.9

     total cpu time spent up to now is       12.5 secs

     total energy              =     -48.57676539 Ry
     estimated scf accuracy    <       0.00016842 Ry

     iteration #  9     ecut=    50.00 Ry     beta= 0.20
     Davidson diagonalization with overlap
     ethr =  8.48E-07,  avg # of iterations =  1.0

     total cpu time spent up to now is       13.4 secs

     total energy              =     -48.57676312 Ry
     estimated scf accuracy    <       0.00011324 Ry

     iteration # 10     ecut=    50.00 Ry     beta= 0.20
     Davidson diagonalization with overlap
     ethr =  8.48E-07,  avg # of iterations =  1.0

     total cpu time spent up to now is       14.5 secs

     End of self-consistent calculation

          k = 0.0000 0.0000 0.0000 (   609 PWs)   bands (ev):

   -21.6076   0.6758   0.6758   0.6758

          k =-0.1000 0.1000-0.1000 (   585 PWs)   bands (ev):

   -21.5500   0.5044   0.7532   0.7532

          k =-0.2000 0.2000-0.2000 (   582 PWs)   bands (ev):

   -21.4009  -0.3370   0.7168   0.7168

          k =-0.3000 0.3000-0.3000 (   601 PWs)   bands (ev):

   -21.2116  -1.3727   0.5666   0.5666

          k =-0.4000 0.4000-0.4000 (   601 PWs)   bands (ev):

   -21.0502  -2.0132   0.4833   0.4833

          k = 0.5000-0.5000 0.5000 (   580 PWs)   bands (ev):

   -20.9849  -2.1021   0.5233   0.5233

          k = 0.0000 0.2000 0.0000 (   585 PWs)   bands (ev):

   -21.5307   0.5491   0.6564   0.6564

          k =-0.1000 0.3000-0.1000 (   586 PWs)   bands (ev):

   -21.4110  -0.1158   0.5576   0.5905

          k =-0.2000 0.4000-0.2000 (   594 PWs)   bands (ev):

   -21.2312  -1.0789   0.4139   0.5202

          k =-0.3000 0.5000-0.3000 (   597 PWs)   bands (ev):

   -21.0565  -1.7964   0.3382   0.3400

          k = 0.6000-0.4000 0.6000 (   594 PWs)   bands (ev):

   -20.9579  -2.1289   0.1924   0.3764

          k = 0.5000-0.3000 0.5000 (   595 PWs)   bands (ev):

   -20.9801  -2.0547   0.1168   0.4803

          k = 0.4000-0.2000 0.4000 (   600 PWs)   bands (ev):

   -21.1128  -1.5991   0.1712   0.5789

          k = 0.3000-0.1000 0.3000 (   593 PWs)   bands (ev):

   -21.2976  -0.7533   0.2927   0.7345

          k = 0.2000 0.0000 0.2000 (   586 PWs)   bands (ev):

   -21.4626   0.0729   0.5537   0.7728

          k = 0.0000 0.4000 0.0000 (   584 PWs)   bands (ev):

   -21.3225  -0.3334   0.3736   0.3736

          k =-0.1000 0.5000-0.1000 (   595 PWs)   bands (ev):

   -21.1666  -1.0714   0.1460   0.1990

          k =-0.2000 0.6000-0.2000 (   600 PWs)   bands (ev):

   -20.9978  -1.7162  -0.1242   0.0831

          k = 0.7000-0.3000 0.7000 (   598 PWs)   bands (ev):

   -20.8829  -2.0399  -0.4107   0.1194

          k = 0.6000-0.2000 0.6000 (   597 PWs)   bands (ev):

   -20.8721  -1.9865  -0.6386   0.2750

          k = 0.5000-0.1000 0.5000 (   599 PWs)   bands (ev):

   -20.9702  -1.6423  -0.6267   0.4586

          k = 0.4000 0.0000 0.4000 (   596 PWs)   bands (ev):

   -21.1337  -1.1642  -0.2738   0.6340

          k = 0.0000 0.6000 0.0000 (   592 PWs)   bands (ev):

   -21.0381  -1.4982  -0.0195  -0.0195

          k =-0.1000 0.7000-0.1000 (   599 PWs)   bands (ev):

   -20.8936  -2.0051  -0.2972  -0.1948

          k = 0.8000-0.2000 0.8000 (   604 PWs)   bands (ev):

   -20.7880  -2.2141  -0.7355  -0.2056

          k = 0.7000-0.1000 0.7000 (   595 PWs)   bands (ev):

   -20.7650  -2.0008  -1.1421   0.0151

          k = 0.6000-0.0000 0.6000 (   602 PWs)   bands (ev):

   -20.8368  -1.4975  -1.4591   0.2084

          k = 0.0000 0.8000 0.0000 (   608 PWs)   bands (ev):

   -20.7833  -2.4677  -0.4067  -0.4067

          k = 0.9000-0.1000 0.9000 (   605 PWs)   bands (ev):

   -20.7088  -2.6529  -0.5868  -0.4224

          k = 0.8000 0.0000 0.8000 (   604 PWs)   bands (ev):

   -20.7022  -2.4659  -0.9424  -0.2666

          k = 0.0000-1.0000 0.0000 (   588 PWs)   bands (ev):

   -20.6762  -2.7738  -0.4166  -0.4166

          k =-0.2000 0.4000 0.0000 (   589 PWs)   bands (ev):

   -21.2730  -0.6794   0.2036   0.5687

          k =-0.3000 0.5000-0.1000 (   596 PWs)   bands (ev):

   -21.0965  -1.3903  -0.1382   0.4818

          k = 0.6000-0.4000 0.8000 (   597 PWs)   bands (ev):

   -20.9478  -1.8829  -0.3308   0.3317

          k = 0.5000-0.3000 0.7000 (   594 PWs)   bands (ev):

   -20.8893  -2.0720  -0.3639   0.2916

          k =-0.2000 0.6000 0.0000 (   596 PWs)   bands (ev):

   -21.0138  -1.5613  -0.2398   0.1113

          k = 0.7000-0.3000 0.9000 (   598 PWs)   bands (ev):

   -20.8721  -1.9051  -0.6632   0.0284

          k = 0.6000-0.2000 0.8000 (   595 PWs)   bands (ev):

   -20.7987  -1.9817  -0.9643   0.0498

          k = 0.5000-0.1000 0.7000 (   593 PWs)   bands (ev):

   -20.8256  -1.7573  -1.1092   0.1693

          k = 0.4000 0.0000 0.6000 (   605 PWs)   bands (ev):

   -20.9421  -1.5854  -0.8619   0.2966

          k = 0.8000-0.2000 1.0000 (   598 PWs)   bands (ev):

   -20.7804  -2.2884  -0.6271  -0.2418

          k = 0.7000-0.1000 0.9000 (   600 PWs)   bands (ev):

   -20.7204  -2.3160  -1.0172  -0.1846

          k = 0.6000 0.0000 0.8000 (   598 PWs)   bands (ev):

   -20.7380  -1.9277  -1.3938  -0.0465

          k =-0.2000-1.0000 0.0000 (   604 PWs)   bands (ev):

   -20.6854  -2.6563  -0.7533  -0.3719

          k = 0.6000-0.2000 1.0000 (   603 PWs)   bands (ev):

   -20.7684  -1.9303  -1.2454  -0.0833

          k = 0.5000-0.1000 0.9000 (   602 PWs)   bands (ev):

   -20.7280  -1.8355  -1.5511  -0.1156

          k =-0.4000-1.0000 0.0000 (   610 PWs)   bands (ev):

   -20.6983  -2.1446  -1.4241  -0.2460

     highest occupied level (ev):     0.7728

!    total energy              =     -48.57676398 Ry
     estimated scf accuracy    <       0.00000093 Ry

     The total energy is the sum of the following terms:
     one-electron contribution =     -21.13189817 Ry
     hartree contribution      =      15.65331689 Ry
     xc contribution           =      -9.91158254 Ry
     ewald contribution        =     -33.18660015 Ry

     convergence has been achieved in  10 iterations
     Writing meta-gga kinetic term

     Writing all to output data dir ./input_pw/LiF/4/pwscf.save/
     Writing meta-gga kinetic term
 
     init_run     :      0.60s CPU      1.42s WALL (       1 calls)
     electrons    :      6.80s CPU     12.98s WALL (       1 calls)

     Called by init_run:
     wfcinit      :      0.52s CPU      1.24s WALL (       1 calls)
     potinit      :      0.01s CPU      0.01s WALL (       1 calls)
     hinit0       :      0.06s CPU      0.15s WALL (       1 calls)

     Called by electrons:
     c_bands      :      5.33s CPU     10.20s WALL (      10 calls)
     sum_band     :      1.31s CPU      2.52s WALL (      10 calls)
     v_of_rho     :      0.09s CPU      0.15s WALL (      11 calls)
     mix_rho      :      0.07s CPU      0.12s WALL (      10 calls)

     Called by c_bands:
     init_us_2    :      0.03s CPU      0.07s WALL (     987 calls)
     init_us_2:cp :      0.03s CPU      0.07s WALL (     987 calls)
     cegterg      :      5.29s CPU     10.12s WALL (     470 calls)

     Called by *egterg:
     cdiaghg      :      0.05s CPU      0.08s WALL (    1031 calls)
     h_psi        :      5.67s CPU     11.08s WALL (    1078 calls)
     g_psi        :      0.00s CPU      0.01s WALL (     561 calls)

     Called by h_psi:
     h_psi:calbec :      0.01s CPU      0.02s WALL (    1078 calls)
     vloc_psi     :      1.39s CPU      2.71s WALL (    1078 calls)
     add_vuspsi   :      0.02s CPU      0.03s WALL (    1078 calls)
     h_psi_meta   :      4.22s CPU      8.29s WALL (    1078 calls)

     General routines
     calbec       :      0.01s CPU      0.02s WALL (    1078 calls)
     fft          :      0.02s CPU      0.05s WALL (     129 calls)
     ffts         :      0.04s CPU      0.06s WALL (     253 calls)
     fftw         :      6.21s CPU     12.15s WALL (   42232 calls)
     interpolate  :      0.00s CPU      0.00s WALL (      11 calls)
 
     Parallel routines
 
     PWSCF        :      7.45s CPU     14.60s WALL

 
   This run was terminated on:  14:23:59   7Jul2023            

=------------------------------------------------------------------------------=
   JOB DONE.
=------------------------------------------------------------------------------=
