
     Program PWSCF v.7.0 starts on 10Apr2023 at  9:43:44 

     This program is part of the open-source Quantum ESPRESSO suite
     for quantum simulation of materials; please cite
         "P. Giannozzi et al., J. Phys.:Condens. Matter 21 395502 (2009);
         "P. Giannozzi et al., J. Phys.:Condens. Matter 29 465901 (2017);
         "P. Giannozzi et al., J. Chem. Phys. 152 154105 (2020);
          URL http://www.quantum-espresso.org", 
     in publications or presentations arising from this work. More details at
     http://www.quantum-espresso.org/quote

     Parallel version (MPI), running on     1 processors

     MPI processes distributed on     1 nodes
     19530 MiB available memory on the printing compute node when the environment starts
 
     Waiting for input...
     Reading input from standard input
Warning: card &CELL ignored
Warning: card / ignored

     Current dimensions of program PWSCF are:
     Max number of different atomic species (ntypx) = 10
     Max number of k-points (npk) =  40000
     Max angular momentum in pseudopotentials (lmaxx) =  4

     WARNING: the MGGA functional with ID    5 has been 
     read together with other dft terms, but it should 
     stand alone in order to work properly. The other 
     terms will be ignored.

     WARNING: the MGGA functional with ID    5 has been 
     read together with other dft terms, but it should 
     stand alone in order to work properly. The other 
     terms will be ignored.

     Subspace diagonalization in iterative solution of the eigenvalue problem:
     a serial algorithm will be used

 
     G-vector sticks info
     --------------------
     sticks:   dense  smooth     PW     G-vecs:    dense   smooth      PW
     Sum         313     313    109                 3527     3527     725
 
     Using Slab Decomposition
 


     bravais-lattice index     =            2
     lattice parameter (alat)  =       6.6821  a.u.
     unit-cell volume          =      74.5888 (a.u.)^3
     number of atoms/cell      =            2
     number of atomic types    =            2
     number of electrons       =         8.00
     number of Kohn-Sham states=            4
     kinetic-energy cutoff     =      50.0000  Ry
     charge density cutoff     =     200.0000  Ry
     scf convergence threshold =      1.0E-06
     mixing beta               =       0.0100
     number of iterations used =            8  local-TF  mixing
     Exchange-correlation= SLA  PW   SCAN SCAN
                           (   0   0   0   0   0 263 267)

     celldm(1)=   6.682072  celldm(2)=   0.000000  celldm(3)=   0.000000
     celldm(4)=   0.000000  celldm(5)=   0.000000  celldm(6)=   0.000000

     crystal axes: (cart. coord. in units of alat)
               a(1) = (  -0.500000   0.000000   0.500000 )  
               a(2) = (   0.000000   0.500000   0.500000 )  
               a(3) = (  -0.500000   0.500000   0.000000 )  

     reciprocal axes: (cart. coord. in units 2 pi/alat)
               b(1) = ( -1.000000 -1.000000  1.000000 )  
               b(2) = (  1.000000  1.000000  1.000000 )  
               b(3) = ( -1.000000  1.000000 -1.000000 )  


     PseudoPot. # 1 for Li read from file:
     ~/Documents/TA/PWDFT.jl/pseudopotentials/scan_upf/Li.SCAN.UPF2
     MD5 check sum: Not computed, couldn't open file
     Pseudo is Norm-conserving, Zval =  1.0
     Generated by new atomic code, or converted to UPF format
     Using radial grid of 1321 points,  1 beta functions with: 
                l(1) =   0

     PseudoPot. # 2 for F  read from file:
     ~/Documents/TA/PWDFT.jl/pseudopotentials/scan_upf/F.SCAN.UPF2
     MD5 check sum: Not computed, couldn't open file
     Pseudo is Norm-conserving, Zval =  7.0
     Generated by new atomic code, or converted to UPF format
     Using radial grid of 1431 points,  1 beta functions with: 
                l(1) =   0

     atomic species   valence    mass     pseudopotential
        Li             1.00     6.94100     Li( 1.00)
        F              7.00    18.99800     F ( 1.00)

     48 Sym. Ops., with inversion, found



   Cartesian axes

     site n.     atom                  positions (alat units)
         1           Li  tau(   1) = (   0.0000000   0.0000000   0.0000000  )
         2           F   tau(   2) = (   0.5000000   0.5000000   0.5000000  )

     number of k points=    47
                       cart. coord. in units 2pi/alat
        k(    1) = (   0.0000000   0.0000000   0.0000000), wk =   0.0020000
        k(    2) = (  -0.1000000   0.1000000  -0.1000000), wk =   0.0160000
        k(    3) = (  -0.2000000   0.2000000  -0.2000000), wk =   0.0160000
        k(    4) = (  -0.3000000   0.3000000  -0.3000000), wk =   0.0160000
        k(    5) = (  -0.4000000   0.4000000  -0.4000000), wk =   0.0160000
        k(    6) = (   0.5000000  -0.5000000   0.5000000), wk =   0.0080000
        k(    7) = (   0.0000000   0.2000000   0.0000000), wk =   0.0120000
        k(    8) = (  -0.1000000   0.3000000  -0.1000000), wk =   0.0480000
        k(    9) = (  -0.2000000   0.4000000  -0.2000000), wk =   0.0480000
        k(   10) = (  -0.3000000   0.5000000  -0.3000000), wk =   0.0480000
        k(   11) = (   0.6000000  -0.4000000   0.6000000), wk =   0.0480000
        k(   12) = (   0.5000000  -0.3000000   0.5000000), wk =   0.0480000
        k(   13) = (   0.4000000  -0.2000000   0.4000000), wk =   0.0480000
        k(   14) = (   0.3000000  -0.1000000   0.3000000), wk =   0.0480000
        k(   15) = (   0.2000000   0.0000000   0.2000000), wk =   0.0240000
        k(   16) = (   0.0000000   0.4000000   0.0000000), wk =   0.0120000
        k(   17) = (  -0.1000000   0.5000000  -0.1000000), wk =   0.0480000
        k(   18) = (  -0.2000000   0.6000000  -0.2000000), wk =   0.0480000
        k(   19) = (   0.7000000  -0.3000000   0.7000000), wk =   0.0480000
        k(   20) = (   0.6000000  -0.2000000   0.6000000), wk =   0.0480000
        k(   21) = (   0.5000000  -0.1000000   0.5000000), wk =   0.0480000
        k(   22) = (   0.4000000   0.0000000   0.4000000), wk =   0.0240000
        k(   23) = (   0.0000000   0.6000000   0.0000000), wk =   0.0120000
        k(   24) = (  -0.1000000   0.7000000  -0.1000000), wk =   0.0480000
        k(   25) = (   0.8000000  -0.2000000   0.8000000), wk =   0.0480000
        k(   26) = (   0.7000000  -0.1000000   0.7000000), wk =   0.0480000
        k(   27) = (   0.6000000  -0.0000000   0.6000000), wk =   0.0240000
        k(   28) = (   0.0000000   0.8000000   0.0000000), wk =   0.0120000
        k(   29) = (   0.9000000  -0.1000000   0.9000000), wk =   0.0480000
        k(   30) = (   0.8000000   0.0000000   0.8000000), wk =   0.0240000
        k(   31) = (   0.0000000  -1.0000000   0.0000000), wk =   0.0060000
        k(   32) = (  -0.2000000   0.4000000   0.0000000), wk =   0.0480000
        k(   33) = (  -0.3000000   0.5000000  -0.1000000), wk =   0.0960000
        k(   34) = (   0.6000000  -0.4000000   0.8000000), wk =   0.0960000
        k(   35) = (   0.5000000  -0.3000000   0.7000000), wk =   0.0480000
        k(   36) = (  -0.2000000   0.6000000   0.0000000), wk =   0.0480000
        k(   37) = (   0.7000000  -0.3000000   0.9000000), wk =   0.0960000
        k(   38) = (   0.6000000  -0.2000000   0.8000000), wk =   0.0960000
        k(   39) = (   0.5000000  -0.1000000   0.7000000), wk =   0.0960000
        k(   40) = (   0.4000000   0.0000000   0.6000000), wk =   0.0480000
        k(   41) = (   0.8000000  -0.2000000   1.0000000), wk =   0.0480000
        k(   42) = (   0.7000000  -0.1000000   0.9000000), wk =   0.0960000
        k(   43) = (   0.6000000   0.0000000   0.8000000), wk =   0.0480000
        k(   44) = (  -0.2000000  -1.0000000   0.0000000), wk =   0.0240000
        k(   45) = (   0.6000000  -0.2000000   1.0000000), wk =   0.0480000
        k(   46) = (   0.5000000  -0.1000000   0.9000000), wk =   0.0480000
        k(   47) = (  -0.4000000  -1.0000000   0.0000000), wk =   0.0240000

     Dense  grid:     3527 G-vectors     FFT dimensions: (  24,  24,  24)

     Estimated max dynamical RAM per process >       7.02 MB

     WARNING: libxc functional with ID  263 depends
      on external parameters: check the user_guide of
      QE if you need to modify them or to check their
      default values.

     Initial potential from superposition of free atoms

     starting charge       7.9953, renormalised to       8.0000
     Starting wfcs are    8 randomized atomic wfcs

     total cpu time spent up to now is        1.5 secs

     Self-consistent Calculation

     iteration #  1     ecut=    50.00 Ry     beta= 0.01
     Davidson diagonalization with overlap
     ethr =  1.00E-02,  avg # of iterations =  2.0

     total cpu time spent up to now is        3.1 secs

     total energy              =     -48.37788980 Ry
     estimated scf accuracy    <      18.09690578 Ry

     iteration #  2     ecut=    50.00 Ry     beta= 0.01
     Davidson diagonalization with overlap
     ethr =  1.00E-02,  avg # of iterations =  1.0

     total cpu time spent up to now is        4.6 secs

     total energy              =     -48.43944652 Ry
     estimated scf accuracy    <      17.62958185 Ry

     iteration #  3     ecut=    50.00 Ry     beta= 0.01
     Davidson diagonalization with overlap
     ethr =  1.00E-02,  avg # of iterations =  1.0

     total cpu time spent up to now is        6.1 secs

     total energy              =     -48.44774896 Ry
     estimated scf accuracy    <       2.05169676 Ry

     iteration #  4     ecut=    50.00 Ry     beta= 0.01
     Davidson diagonalization with overlap
     ethr =  1.00E-02,  avg # of iterations =  1.0

     total cpu time spent up to now is        7.4 secs

     total energy              =     -48.44812406 Ry
     estimated scf accuracy    <       0.00411801 Ry

     iteration #  5     ecut=    50.00 Ry     beta= 0.01
     Davidson diagonalization with overlap
     ethr =  5.15E-05,  avg # of iterations =  1.0

     total cpu time spent up to now is        8.7 secs

     total energy              =     -48.44814604 Ry
     estimated scf accuracy    <       0.00385885 Ry

     iteration #  6     ecut=    50.00 Ry     beta= 0.01
     Davidson diagonalization with overlap
     ethr =  4.82E-05,  avg # of iterations =  1.0

     total cpu time spent up to now is       10.2 secs

     total energy              =     -48.44743088 Ry
     estimated scf accuracy    <       0.00399601 Ry

     iteration #  7     ecut=    50.00 Ry     beta= 0.01
     Davidson diagonalization with overlap
     ethr =  4.82E-05,  avg # of iterations =  2.0

     total cpu time spent up to now is       12.0 secs

     total energy              =     -48.44895952 Ry
     estimated scf accuracy    <       0.03216989 Ry

     iteration #  8     ecut=    50.00 Ry     beta= 0.01
     Davidson diagonalization with overlap
     ethr =  4.82E-05,  avg # of iterations =  1.0

     total cpu time spent up to now is       13.5 secs

     total energy              =     -48.44910284 Ry
     estimated scf accuracy    <       0.03458611 Ry

     iteration #  9     ecut=    50.00 Ry     beta= 0.01
     Davidson diagonalization with overlap
     ethr =  4.82E-05,  avg # of iterations =  1.0

     total cpu time spent up to now is       14.8 secs

     total energy              =     -48.44896995 Ry
     estimated scf accuracy    <       0.04017613 Ry

     iteration # 10     ecut=    50.00 Ry     beta= 0.01
     Davidson diagonalization with overlap
     ethr =  4.82E-05,  avg # of iterations =  1.0

     total cpu time spent up to now is       16.1 secs

     total energy              =     -48.45394746 Ry
     estimated scf accuracy    <       0.03467463 Ry

     iteration # 11     ecut=    50.00 Ry     beta= 0.01
     Davidson diagonalization with overlap
     ethr =  4.82E-05,  avg # of iterations =  2.0

     total cpu time spent up to now is       17.8 secs

     total energy              =     -48.45564158 Ry
     estimated scf accuracy    <       0.32577471 Ry

     iteration # 12     ecut=    50.00 Ry     beta= 0.01
     Davidson diagonalization with overlap
     ethr =  4.82E-05,  avg # of iterations =  1.0

     total cpu time spent up to now is       19.1 secs

     total energy              =     -48.45401275 Ry
     estimated scf accuracy    <       0.31058827 Ry

     iteration # 13     ecut=    50.00 Ry     beta= 0.01
     Davidson diagonalization with overlap
     ethr =  4.82E-05,  avg # of iterations =  1.0

     total cpu time spent up to now is       20.4 secs

     total energy              =     -48.44757112 Ry
     estimated scf accuracy    <       0.25317017 Ry

     iteration # 14     ecut=    50.00 Ry     beta= 0.01
     Davidson diagonalization with overlap
     ethr =  4.82E-05,  avg # of iterations =  2.0

     total cpu time spent up to now is       22.1 secs

     total energy              =     -48.44913302 Ry
     estimated scf accuracy    <       0.02668111 Ry

     iteration # 15     ecut=    50.00 Ry     beta= 0.01
     Davidson diagonalization with overlap
     ethr =  4.82E-05,  avg # of iterations =  1.0

     total cpu time spent up to now is       22.9 secs

     total energy              =     -48.44906846 Ry
     estimated scf accuracy    <       0.02916488 Ry

     iteration # 16     ecut=    50.00 Ry     beta= 0.01
     Davidson diagonalization with overlap
     ethr =  4.82E-05,  avg # of iterations =  1.0

     total cpu time spent up to now is       23.9 secs

     total energy              =     -48.44808604 Ry
     estimated scf accuracy    <       0.02564239 Ry

     iteration # 17     ecut=    50.00 Ry     beta= 0.01
     Davidson diagonalization with overlap
     ethr =  4.82E-05,  avg # of iterations =  1.9

     total cpu time spent up to now is       25.0 secs

     total energy              =     -48.44845727 Ry
     estimated scf accuracy    <       0.00003311 Ry

     iteration # 18     ecut=    50.00 Ry     beta= 0.01
     Davidson diagonalization with overlap
     ethr =  4.14E-07,  avg # of iterations =  1.9

     total cpu time spent up to now is       26.0 secs

     total energy              =     -48.44845812 Ry
     estimated scf accuracy    <       0.00004515 Ry

     iteration # 19     ecut=    50.00 Ry     beta= 0.01
     Davidson diagonalization with overlap
     ethr =  4.14E-07,  avg # of iterations =  1.0

     total cpu time spent up to now is       26.9 secs

     End of self-consistent calculation

          k = 0.0000 0.0000 0.0000 (   459 PWs)   bands (ev):

   -19.8418   3.6727   3.6727   3.6727

          k =-0.1000 0.1000-0.1000 (   444 PWs)   bands (ev):

   -19.7516   3.3364   3.7356   3.7356

          k =-0.2000 0.2000-0.2000 (   459 PWs)   bands (ev):

   -19.5128   2.0825   3.5320   3.5320

          k =-0.3000 0.3000-0.3000 (   450 PWs)   bands (ev):

   -19.1948   0.9837   3.3889   3.3889

          k =-0.4000 0.4000-0.4000 (   443 PWs)   bands (ev):

   -18.9184   0.0573   3.3199   3.3199

          k = 0.5000-0.5000 0.5000 (   434 PWs)   bands (ev):

   -18.8071  -0.3775   3.4246   3.4246

          k = 0.0000 0.2000 0.0000 (   443 PWs)   bands (ev):

   -19.7202   3.3522   3.6286   3.6286

          k =-0.1000 0.3000-0.1000 (   456 PWs)   bands (ev):

   -19.5258   2.3924   3.3285   3.4550

          k =-0.2000 0.4000-0.2000 (   449 PWs)   bands (ev):

   -19.2235   1.3058   3.1823   3.2412

          k =-0.3000 0.5000-0.3000 (   446 PWs)   bands (ev):

   -18.9223   0.2921   3.0318   3.0485

          k = 0.6000-0.4000 0.6000 (   445 PWs)   bands (ev):

   -18.7496  -0.3144   2.8596   3.1247

          k = 0.5000-0.3000 0.5000 (   445 PWs)   bands (ev):

   -18.7892  -0.1585   2.7224   3.2808

          k = 0.4000-0.2000 0.4000 (   443 PWs)   bands (ev):

   -19.0209   0.6509   2.7614   3.5054

          k = 0.3000-0.1000 0.3000 (   451 PWs)   bands (ev):

   -19.3372   1.7113   2.9415   3.6637

          k = 0.2000 0.0000 0.2000 (   449 PWs)   bands (ev):

   -19.6108   2.7000   3.3553   3.8006

          k = 0.0000 0.4000 0.0000 (   443 PWs)   bands (ev):

   -19.3717   2.2884   3.0802   3.0802

          k =-0.1000 0.5000-0.1000 (   449 PWs)   bands (ev):

   -19.0997   1.3098   2.7006   2.7742

          k =-0.2000 0.6000-0.2000 (   444 PWs)   bands (ev):

   -18.7973   0.3383   2.3795   2.6650

          k = 0.7000-0.3000 0.7000 (   445 PWs)   bands (ev):

   -18.5901  -0.2304   1.9294   2.7239

          k = 0.6000-0.2000 0.6000 (   440 PWs)   bands (ev):

   -18.5734  -0.1713   1.6845   2.9675

          k = 0.5000-0.1000 0.5000 (   444 PWs)   bands (ev):

   -18.7571   0.4830   1.5886   3.2450

          k = 0.4000 0.0000 0.4000 (   449 PWs)   bands (ev):

   -19.0527   1.2243   2.0278   3.5087

          k = 0.0000 0.6000 0.0000 (   444 PWs)   bands (ev):

   -18.8592   0.6241   2.4327   2.4327

          k =-0.1000 0.7000-0.1000 (   444 PWs)   bands (ev):

   -18.5837  -0.2112   2.0708   2.2547

          k = 0.8000-0.2000 0.8000 (   445 PWs)   bands (ev):

   -18.3832  -0.6582   1.5632   2.2617

          k = 0.7000-0.1000 0.7000 (   446 PWs)   bands (ev):

   -18.3490  -0.4570   0.9530   2.5221

          k = 0.6000-0.0000 0.6000 (   441 PWs)   bands (ev):

   -18.4964   0.3591   0.6357   2.9024

          k = 0.0000 0.8000 0.0000 (   452 PWs)   bands (ev):

   -18.3571  -1.0396   1.9597   1.9597

          k = 0.9000-0.1000 0.9000 (   454 PWs)   bands (ev):

   -18.2080  -1.3816   1.6304   1.9137

          k = 0.8000 0.0000 0.8000 (   442 PWs)   bands (ev):

   -18.2040  -1.0881   1.2909   2.1359

          k = 0.0000-1.0000 0.0000 (   444 PWs)   bands (ev):

   -18.1369  -1.6044   1.8183   1.8183

          k =-0.2000 0.4000 0.0000 (   451 PWs)   bands (ev):

   -19.2916   1.8249   2.7170   3.3867

          k =-0.3000 0.5000-0.1000 (   445 PWs)   bands (ev):

   -18.9834   0.8879   2.2905   3.2513

          k = 0.6000-0.4000 0.8000 (   443 PWs)   bands (ev):

   -18.7169   0.0735   2.0451   3.0696

          k = 0.5000-0.3000 0.7000 (   446 PWs)   bands (ev):

   -18.6110  -0.3064   1.9896   2.9806

          k =-0.2000 0.6000 0.0000 (   447 PWs)   bands (ev):

   -18.8206   0.5503   2.0911   2.6756

          k = 0.7000-0.3000 0.9000 (   442 PWs)   bands (ev):

   -18.5557  -0.0695   1.5294   2.6491

          k = 0.6000-0.2000 0.8000 (   442 PWs)   bands (ev):

   -18.4189  -0.2812   1.0897   2.6689

          k = 0.5000-0.1000 0.7000 (   437 PWs)   bands (ev):

   -18.4746   0.0400   0.9151   2.9197

          k = 0.4000 0.0000 0.6000 (   442 PWs)   bands (ev):

   -18.6966   0.5760   1.2815   3.0583

          k = 0.8000-0.2000 1.0000 (   445 PWs)   bands (ev):

   -18.3607  -0.7971   1.5993   2.2193

          k = 0.7000-0.1000 0.9000 (   446 PWs)   bands (ev):

   -18.2454  -0.8683   1.0325   2.2892

          k = 0.6000 0.0000 0.8000 (   449 PWs)   bands (ev):

   -18.2916  -0.3798   0.5383   2.4750

          k =-0.2000-1.0000 0.0000 (   450 PWs)   bands (ev):

   -18.1621  -1.3962   1.3819   2.0305

          k = 0.6000-0.2000 1.0000 (   446 PWs)   bands (ev):

   -18.3504  -0.2515   0.6588   2.5631

          k = 0.5000-0.1000 0.9000 (   444 PWs)   bands (ev):

   -18.2687  -0.1250   0.1911   2.5264

          k =-0.4000-1.0000 0.0000 (   446 PWs)   bands (ev):

   -18.2008  -0.6074   0.4201   2.3995

     highest occupied level (ev):     3.8006

!    total energy              =     -48.44845749 Ry
     estimated scf accuracy    <       0.00000072 Ry

     The total energy is the sum of the following terms:
     one-electron contribution =     -15.31827224 Ry
     hartree contribution      =      13.50844040 Ry
     xc contribution           =     -10.04827165 Ry
     ewald contribution        =     -36.59035400 Ry

     convergence has been achieved in  19 iterations
     Writing meta-gga kinetic term

     Writing all to output data dir ./input_pw/LiF/4/pwscf.save/
     Writing meta-gga kinetic term
 
     init_run     :      0.56s CPU      1.40s WALL (       1 calls)
     electrons    :     13.00s CPU     25.40s WALL (       1 calls)

     Called by init_run:
     wfcinit      :      0.48s CPU      1.17s WALL (       1 calls)
     potinit      :      0.01s CPU      0.04s WALL (       1 calls)
     hinit0       :      0.06s CPU      0.17s WALL (       1 calls)

     Called by electrons:
     c_bands      :     10.32s CPU     19.95s WALL (      19 calls)
     sum_band     :      2.40s CPU      4.93s WALL (      19 calls)
     v_of_rho     :      0.16s CPU      0.33s WALL (      20 calls)
     mix_rho      :      0.12s CPU      0.20s WALL (      19 calls)

     Called by c_bands:
     init_us_2    :      0.05s CPU      0.10s WALL (    1833 calls)
     init_us_2:cp :      0.04s CPU      0.10s WALL (    1833 calls)
     cegterg      :     10.27s CPU     19.83s WALL (     893 calls)

     Called by *egterg:
     cdiaghg      :      0.08s CPU      0.12s WALL (    2058 calls)
     h_psi        :     10.52s CPU     20.65s WALL (    2105 calls)
     g_psi        :      0.01s CPU      0.01s WALL (    1165 calls)

     Called by h_psi:
     h_psi:calbec :      0.02s CPU      0.02s WALL (    2105 calls)
     vloc_psi     :      2.60s CPU      5.36s WALL (    2105 calls)
     add_vuspsi   :      0.03s CPU      0.04s WALL (    2105 calls)
     h_psi_meta   :      7.84s CPU     15.18s WALL (    2105 calls)

     General routines
     calbec       :      0.01s CPU      0.01s WALL (    2105 calls)
     fft          :      0.03s CPU      0.12s WALL (     237 calls)
     ffts         :      0.07s CPU      0.10s WALL (     478 calls)
     fftw         :     11.58s CPU     22.96s WALL (   81264 calls)
     interpolate  :      0.00s CPU      0.00s WALL (      20 calls)
 
     Parallel routines
 
     PWSCF        :     13.61s CPU     26.92s WALL

 
   This run was terminated on:   9:44:11  10Apr2023            

=------------------------------------------------------------------------------=
   JOB DONE.
=------------------------------------------------------------------------------=
