
     Program PWSCF v.7.0 starts on 14Mar2023 at 12: 2:31 

     This program is part of the open-source Quantum ESPRESSO suite
     for quantum simulation of materials; please cite
         "P. Giannozzi et al., J. Phys.:Condens. Matter 21 395502 (2009);
         "P. Giannozzi et al., J. Phys.:Condens. Matter 29 465901 (2017);
         "P. Giannozzi et al., J. Chem. Phys. 152 154105 (2020);
          URL http://www.quantum-espresso.org", 
     in publications or presentations arising from this work. More details at
     http://www.quantum-espresso.org/quote

     Parallel version (MPI), running on     1 processors

     MPI processes distributed on     1 nodes
     27346 MiB available memory on the printing compute node when the environment starts
 
     Waiting for input...
     Reading input from standard input
Warning: card &CELL ignored
Warning: card / ignored

     Current dimensions of program PWSCF are:
     Max number of different atomic species (ntypx) = 10
     Max number of k-points (npk) =  40000
     Max angular momentum in pseudopotentials (lmaxx) =  4
     file Si.SCAN.UPF2: wavefunction(s)  0D renormalized

     WARNING: the MGGA functional with ID    5 has been 
     read together with other dft terms, but it should 
     stand alone in order to work properly. The other 
     terms will be ignored.

     WARNING: the MGGA functional with ID    5 has been 
     read together with other dft terms, but it should 
     stand alone in order to work properly. The other 
     terms will be ignored.

     Subspace diagonalization in iterative solution of the eigenvalue problem:
     a serial algorithm will be used

 
     G-vector sticks info
     --------------------
     sticks:   dense  smooth     PW     G-vecs:    dense   smooth      PW
     Sum         499     499    163                 7391     7391    1363
 
     Using Slab Decomposition
 


     bravais-lattice index     =            2
     lattice parameter (alat)  =       8.5530  a.u.
     unit-cell volume          =     156.4211 (a.u.)^3
     number of atoms/cell      =            2
     number of atomic types    =            2
     number of electrons       =         8.00
     number of Kohn-Sham states=            4
     kinetic-energy cutoff     =      50.0000  Ry
     charge density cutoff     =     200.0000  Ry
     scf convergence threshold =      1.0E-06
     mixing beta               =       0.0100
     number of iterations used =            8  local-TF  mixing
     Exchange-correlation= SLA  PW   SCAN SCAN
                           (   0   0   0   0   0 263 267)

     celldm(1)=   8.553000  celldm(2)=   0.000000  celldm(3)=   0.000000
     celldm(4)=   0.000000  celldm(5)=   0.000000  celldm(6)=   0.000000

     crystal axes: (cart. coord. in units of alat)
               a(1) = (  -0.500000   0.000000   0.500000 )  
               a(2) = (   0.000000   0.500000   0.500000 )  
               a(3) = (  -0.500000   0.500000   0.000000 )  

     reciprocal axes: (cart. coord. in units 2 pi/alat)
               b(1) = ( -1.000000 -1.000000  1.000000 )  
               b(2) = (  1.000000  1.000000  1.000000 )  
               b(3) = ( -1.000000  1.000000 -1.000000 )  


     PseudoPot. # 1 for Si read from file:
     ~/Documents/TA/PWDFT.jl/pseudopotentials/scan_upf/Si.SCAN.UPF2
     MD5 check sum: Not computed, couldn't open file
     Pseudo is Norm-conserving, Zval =  4.0
     Generated by new atomic code, or converted to UPF format
     Using radial grid of 1475 points,  2 beta functions with: 
                l(1) =   0
                l(2) =   1

     PseudoPot. # 2 for C  read from file:
     ~/Documents/TA/PWDFT.jl/pseudopotentials/scan_upf/C.SCAN.UPF2
     MD5 check sum: Not computed, couldn't open file
     Pseudo is Norm-conserving, Zval =  4.0
     Generated by new atomic code, or converted to UPF format
     Using radial grid of 1389 points,  1 beta functions with: 
                l(1) =   0

     atomic species   valence    mass     pseudopotential
        Si             4.00    28.08550     Si( 1.00)
        C              4.00    12.01100     C ( 1.00)

     24 Sym. Ops. (no inversion) found



   Cartesian axes

     site n.     atom                  positions (alat units)
         1           Si  tau(   1) = (   0.0000000   0.0000000   0.0000000  )
         2           C   tau(   2) = (   0.2500000   0.2500000   0.2500000  )

     number of k points=    47
                       cart. coord. in units 2pi/alat
        k(    1) = (   0.0000000   0.0000000   0.0000000), wk =   0.0020000
        k(    2) = (  -0.1000000   0.1000000  -0.1000000), wk =   0.0160000
        k(    3) = (  -0.2000000   0.2000000  -0.2000000), wk =   0.0160000
        k(    4) = (  -0.3000000   0.3000000  -0.3000000), wk =   0.0160000
        k(    5) = (  -0.4000000   0.4000000  -0.4000000), wk =   0.0160000
        k(    6) = (   0.5000000  -0.5000000   0.5000000), wk =   0.0080000
        k(    7) = (   0.0000000   0.2000000   0.0000000), wk =   0.0120000
        k(    8) = (  -0.1000000   0.3000000  -0.1000000), wk =   0.0480000
        k(    9) = (  -0.2000000   0.4000000  -0.2000000), wk =   0.0480000
        k(   10) = (  -0.3000000   0.5000000  -0.3000000), wk =   0.0480000
        k(   11) = (   0.6000000  -0.4000000   0.6000000), wk =   0.0480000
        k(   12) = (   0.5000000  -0.3000000   0.5000000), wk =   0.0480000
        k(   13) = (   0.4000000  -0.2000000   0.4000000), wk =   0.0480000
        k(   14) = (   0.3000000  -0.1000000   0.3000000), wk =   0.0480000
        k(   15) = (   0.2000000   0.0000000   0.2000000), wk =   0.0240000
        k(   16) = (   0.0000000   0.4000000   0.0000000), wk =   0.0120000
        k(   17) = (  -0.1000000   0.5000000  -0.1000000), wk =   0.0480000
        k(   18) = (  -0.2000000   0.6000000  -0.2000000), wk =   0.0480000
        k(   19) = (   0.7000000  -0.3000000   0.7000000), wk =   0.0480000
        k(   20) = (   0.6000000  -0.2000000   0.6000000), wk =   0.0480000
        k(   21) = (   0.5000000  -0.1000000   0.5000000), wk =   0.0480000
        k(   22) = (   0.4000000   0.0000000   0.4000000), wk =   0.0240000
        k(   23) = (   0.0000000   0.6000000   0.0000000), wk =   0.0120000
        k(   24) = (  -0.1000000   0.7000000  -0.1000000), wk =   0.0480000
        k(   25) = (   0.8000000  -0.2000000   0.8000000), wk =   0.0480000
        k(   26) = (   0.7000000  -0.1000000   0.7000000), wk =   0.0480000
        k(   27) = (   0.6000000  -0.0000000   0.6000000), wk =   0.0240000
        k(   28) = (   0.0000000   0.8000000   0.0000000), wk =   0.0120000
        k(   29) = (   0.9000000  -0.1000000   0.9000000), wk =   0.0480000
        k(   30) = (   0.8000000   0.0000000   0.8000000), wk =   0.0240000
        k(   31) = (   0.0000000  -1.0000000   0.0000000), wk =   0.0060000
        k(   32) = (  -0.2000000   0.4000000   0.0000000), wk =   0.0480000
        k(   33) = (  -0.3000000   0.5000000  -0.1000000), wk =   0.0960000
        k(   34) = (   0.6000000  -0.4000000   0.8000000), wk =   0.0960000
        k(   35) = (   0.5000000  -0.3000000   0.7000000), wk =   0.0480000
        k(   36) = (  -0.2000000   0.6000000   0.0000000), wk =   0.0480000
        k(   37) = (   0.7000000  -0.3000000   0.9000000), wk =   0.0960000
        k(   38) = (   0.6000000  -0.2000000   0.8000000), wk =   0.0960000
        k(   39) = (   0.5000000  -0.1000000   0.7000000), wk =   0.0960000
        k(   40) = (   0.4000000   0.0000000   0.6000000), wk =   0.0480000
        k(   41) = (   0.8000000  -0.2000000   1.0000000), wk =   0.0480000
        k(   42) = (   0.7000000  -0.1000000   0.9000000), wk =   0.0960000
        k(   43) = (   0.6000000   0.0000000   0.8000000), wk =   0.0480000
        k(   44) = (  -0.2000000  -1.0000000   0.0000000), wk =   0.0240000
        k(   45) = (   0.6000000  -0.2000000   1.0000000), wk =   0.0480000
        k(   46) = (   0.5000000  -0.1000000   0.9000000), wk =   0.0480000
        k(   47) = (  -0.4000000  -1.0000000   0.0000000), wk =   0.0240000

     Dense  grid:     7391 G-vectors     FFT dimensions: (  27,  27,  27)

     Estimated max dynamical RAM per process >      13.85 MB

     WARNING: libxc functional with ID  263 depends
      on external parameters: check the user_guide of
      QE if you need to modify them or to check their
      default values.

     Initial potential from superposition of free atoms

     starting charge       7.9995, renormalised to       8.0000
     Starting wfcs are   13 randomized atomic wfcs

     total cpu time spent up to now is        3.0 secs

     Self-consistent Calculation

     iteration #  1     ecut=    50.00 Ry     beta= 0.01
     Davidson diagonalization with overlap
     ethr =  1.00E-02,  avg # of iterations =  2.0

     total cpu time spent up to now is        6.1 secs

     total energy              =     -19.30209750 Ry
     estimated scf accuracy    <       1.89486141 Ry

     iteration #  2     ecut=    50.00 Ry     beta= 0.01
     Davidson diagonalization with overlap
     ethr =  1.00E-02,  avg # of iterations =  1.0

     total cpu time spent up to now is        8.5 secs

     total energy              =     -19.21270366 Ry
     estimated scf accuracy    <       1.86210224 Ry

     iteration #  3     ecut=    50.00 Ry     beta= 0.01
     Davidson diagonalization with overlap
     ethr =  1.00E-02,  avg # of iterations =  1.0

     total cpu time spent up to now is       11.0 secs

     total energy              =     -19.27204718 Ry
     estimated scf accuracy    <       0.03484926 Ry

     iteration #  4     ecut=    50.00 Ry     beta= 0.01
     Davidson diagonalization with overlap
     ethr =  4.36E-04,  avg # of iterations =  2.0

     total cpu time spent up to now is       14.1 secs

     total energy              =     -19.27765142 Ry
     estimated scf accuracy    <       0.03204826 Ry

     iteration #  5     ecut=    50.00 Ry     beta= 0.01
     Davidson diagonalization with overlap
     ethr =  4.01E-04,  avg # of iterations =  1.0

     total cpu time spent up to now is       16.6 secs

     total energy              =     -19.27895931 Ry
     estimated scf accuracy    <       0.07101878 Ry

     iteration #  6     ecut=    50.00 Ry     beta= 0.01
     Davidson diagonalization with overlap
     ethr =  4.01E-04,  avg # of iterations =  1.0

     total cpu time spent up to now is       19.1 secs

     total energy              =     -19.27966978 Ry
     estimated scf accuracy    <       0.07378817 Ry

     iteration #  7     ecut=    50.00 Ry     beta= 0.01
     Davidson diagonalization with overlap
     ethr =  4.01E-04,  avg # of iterations =  1.0

     total cpu time spent up to now is       21.5 secs

     total energy              =     -19.28260368 Ry
     estimated scf accuracy    <       0.03237512 Ry

     iteration #  8     ecut=    50.00 Ry     beta= 0.01
     Davidson diagonalization with overlap
     ethr =  4.01E-04,  avg # of iterations =  1.0

     total cpu time spent up to now is       23.8 secs

     total energy              =     -19.28384332 Ry
     estimated scf accuracy    <       0.00254431 Ry

     iteration #  9     ecut=    50.00 Ry     beta= 0.01
     Davidson diagonalization with overlap
     ethr =  3.18E-05,  avg # of iterations =  1.1

     total cpu time spent up to now is       26.2 secs

     total energy              =     -19.28383319 Ry
     estimated scf accuracy    <       0.00440963 Ry

     iteration # 10     ecut=    50.00 Ry     beta= 0.01
     Davidson diagonalization with overlap
     ethr =  3.18E-05,  avg # of iterations =  1.0

     total cpu time spent up to now is       28.6 secs

     total energy              =     -19.28371812 Ry
     estimated scf accuracy    <       0.00388841 Ry

     iteration # 11     ecut=    50.00 Ry     beta= 0.01
     Davidson diagonalization with overlap
     ethr =  3.18E-05,  avg # of iterations =  1.0

     total cpu time spent up to now is       31.0 secs

     total energy              =     -19.28363697 Ry
     estimated scf accuracy    <       0.00492372 Ry

     iteration # 12     ecut=    50.00 Ry     beta= 0.01
     Davidson diagonalization with overlap
     ethr =  3.18E-05,  avg # of iterations =  1.0

     total cpu time spent up to now is       33.5 secs

     total energy              =     -19.28375356 Ry
     estimated scf accuracy    <       0.00063610 Ry

     iteration # 13     ecut=    50.00 Ry     beta= 0.01
     Davidson diagonalization with overlap
     ethr =  7.95E-06,  avg # of iterations =  1.0

     total cpu time spent up to now is       35.8 secs

     total energy              =     -19.28376588 Ry
     estimated scf accuracy    <       0.00050585 Ry

     iteration # 14     ecut=    50.00 Ry     beta= 0.01
     Davidson diagonalization with overlap
     ethr =  6.32E-06,  avg # of iterations =  1.0

     total cpu time spent up to now is       38.4 secs

     total energy              =     -19.28375611 Ry
     estimated scf accuracy    <       0.00029438 Ry

     iteration # 15     ecut=    50.00 Ry     beta= 0.01
     Davidson diagonalization with overlap
     ethr =  3.68E-06,  avg # of iterations =  1.0

     total cpu time spent up to now is       40.8 secs

     total energy              =     -19.28376327 Ry
     estimated scf accuracy    <       0.00006948 Ry

     iteration # 16     ecut=    50.00 Ry     beta= 0.01
     Davidson diagonalization with overlap
     ethr =  8.69E-07,  avg # of iterations =  1.0

     total cpu time spent up to now is       43.2 secs

     total energy              =     -19.28371009 Ry
     estimated scf accuracy    <       0.00008907 Ry

     iteration # 17     ecut=    50.00 Ry     beta= 0.01
     Davidson diagonalization with overlap
     ethr =  8.69E-07,  avg # of iterations =  1.9

     total cpu time spent up to now is       45.9 secs

     total energy              =     -19.28371839 Ry
     estimated scf accuracy    <       0.00004007 Ry

     iteration # 18     ecut=    50.00 Ry     beta= 0.01
     Davidson diagonalization with overlap
     ethr =  5.01E-07,  avg # of iterations =  1.0

     total cpu time spent up to now is       48.1 secs

     total energy              =     -19.28371713 Ry
     estimated scf accuracy    <       0.00003399 Ry

     iteration # 19     ecut=    50.00 Ry     beta= 0.01
     Davidson diagonalization with overlap
     ethr =  4.25E-07,  avg # of iterations =  1.0

     total cpu time spent up to now is       50.1 secs

     total energy              =     -19.28372651 Ry
     estimated scf accuracy    <       0.00007255 Ry

     iteration # 20     ecut=    50.00 Ry     beta= 0.01
     Davidson diagonalization with overlap
     ethr =  4.25E-07,  avg # of iterations =  2.0

     total cpu time spent up to now is       53.1 secs

     total energy              =     -19.28373049 Ry
     estimated scf accuracy    <       0.00022144 Ry

     iteration # 21     ecut=    50.00 Ry     beta= 0.01
     Davidson diagonalization with overlap
     ethr =  4.25E-07,  avg # of iterations =  1.0

     total cpu time spent up to now is       55.5 secs

     total energy              =     -19.28372436 Ry
     estimated scf accuracy    <       0.00022077 Ry

     iteration # 22     ecut=    50.00 Ry     beta= 0.01
     Davidson diagonalization with overlap
     ethr =  4.25E-07,  avg # of iterations =  1.0

     total cpu time spent up to now is       57.7 secs

     total energy              =     -19.28370636 Ry
     estimated scf accuracy    <       0.00019813 Ry

     iteration # 23     ecut=    50.00 Ry     beta= 0.01
     Davidson diagonalization with overlap
     ethr =  4.25E-07,  avg # of iterations =  2.0

     total cpu time spent up to now is       60.2 secs

     total energy              =     -19.28370385 Ry
     estimated scf accuracy    <       0.00005472 Ry

     iteration # 24     ecut=    50.00 Ry     beta= 0.01
     Davidson diagonalization with overlap
     ethr =  4.25E-07,  avg # of iterations =  1.7

     total cpu time spent up to now is       62.2 secs

     total energy              =     -19.28370753 Ry
     estimated scf accuracy    <       0.00001293 Ry

     iteration # 25     ecut=    50.00 Ry     beta= 0.01
     Davidson diagonalization with overlap
     ethr =  1.62E-07,  avg # of iterations =  1.0

     total cpu time spent up to now is       64.2 secs

     total energy              =     -19.28370634 Ry
     estimated scf accuracy    <       0.00001191 Ry

     iteration # 26     ecut=    50.00 Ry     beta= 0.01
     Davidson diagonalization with overlap
     ethr =  1.49E-07,  avg # of iterations =  1.0

     total cpu time spent up to now is       65.7 secs

     total energy              =     -19.28370820 Ry
     estimated scf accuracy    <       0.00000861 Ry

     iteration # 27     ecut=    50.00 Ry     beta= 0.01
     Davidson diagonalization with overlap
     ethr =  1.08E-07,  avg # of iterations =  1.0

     total cpu time spent up to now is       67.4 secs

     total energy              =     -19.28370591 Ry
     estimated scf accuracy    <       0.00002313 Ry

     iteration # 28     ecut=    50.00 Ry     beta= 0.01
     Davidson diagonalization with overlap
     ethr =  1.08E-07,  avg # of iterations =  1.0

     total cpu time spent up to now is       69.0 secs

     total energy              =     -19.28370583 Ry
     estimated scf accuracy    <       0.00000279 Ry

     iteration # 29     ecut=    50.00 Ry     beta= 0.01
     Davidson diagonalization with overlap
     ethr =  3.49E-08,  avg # of iterations =  2.0

     total cpu time spent up to now is       70.9 secs

     End of self-consistent calculation

          k = 0.0000 0.0000 0.0000 (   941 PWs)   bands (ev):

    -7.3276   7.9517   7.9517   7.9517

          k =-0.1000 0.1000-0.1000 (   929 PWs)   bands (ev):

    -7.1430   6.9213   7.8170   7.8170

          k =-0.2000 0.2000-0.2000 (   920 PWs)   bands (ev):

    -6.5996   4.8245   7.5064   7.5064

          k =-0.3000 0.3000-0.3000 (   932 PWs)   bands (ev):

    -5.7408   2.5936   7.1815   7.1815

          k =-0.4000 0.4000-0.4000 (   941 PWs)   bands (ev):

    -4.7150   0.6748   6.9553   6.9553

          k = 0.5000-0.5000 0.5000 (   912 PWs)   bands (ev):

    -4.1125  -0.2332   6.8807   6.8807

          k = 0.0000 0.2000 0.0000 (   933 PWs)   bands (ev):

    -7.0814   7.1280   7.4913   7.4913

          k =-0.1000 0.3000-0.1000 (   926 PWs)   bands (ev):

    -6.6570   5.5006   7.0697   7.3092

          k =-0.2000 0.4000-0.2000 (   936 PWs)   bands (ev):

    -5.8995   3.3683   6.7285   6.9301

          k =-0.3000 0.5000-0.3000 (   929 PWs)   bands (ev):

    -4.9062   1.3575   6.4896   6.5658

          k = 0.6000-0.4000 0.6000 (   928 PWs)   bands (ev):

    -4.0572   0.0196   6.1431   6.6078

          k = 0.5000-0.3000 0.5000 (   933 PWs)   bands (ev):

    -4.2736   0.3370   5.9738   6.8362

          k = 0.4000-0.2000 0.4000 (   936 PWs)   bands (ev):

    -5.2530   1.9924   6.0298   7.1984

          k = 0.3000-0.1000 0.3000 (   931 PWs)   bands (ev):

    -6.1869   4.0678   6.3412   7.5931

          k = 0.2000 0.0000 0.2000 (   923 PWs)   bands (ev):

    -6.8384   5.9528   6.9884   7.8547

          k = 0.0000 0.4000 0.0000 (   926 PWs)   bands (ev):

    -6.3548   5.4157   6.5458   6.5458

          k =-0.1000 0.5000-0.1000 (   933 PWs)   bands (ev):

    -5.7135   3.9405   6.0727   6.1369

          k =-0.2000 0.6000-0.2000 (   933 PWs)   bands (ev):

    -4.8018   2.1478   5.3851   5.9464

          k = 0.7000-0.3000 0.7000 (   932 PWs)   bands (ev):

    -3.8648   0.6687   4.7358   6.0076

          k = 0.6000-0.2000 0.6000 (   931 PWs)   bands (ev):

    -3.6770   0.4151   4.3228   6.3044

          k = 0.5000-0.1000 0.5000 (   930 PWs)   bands (ev):

    -4.4908   1.6267   4.2712   6.7725

          k = 0.4000 0.0000 0.4000 (   925 PWs)   bands (ev):

    -5.4503   3.1247   4.8691   7.2783

          k = 0.0000 0.6000 0.0000 (   938 PWs)   bands (ev):

    -5.1949   3.4435   5.6504   5.6504

          k =-0.1000 0.7000-0.1000 (   937 PWs)   bands (ev):

    -4.3987   2.2769   4.9199   5.3924

          k = 0.8000-0.2000 0.8000 (   939 PWs)   bands (ev):

    -3.5053   1.1697   3.8178   5.4052

          k = 0.7000-0.1000 0.7000 (   941 PWs)   bands (ev):

    -3.0782   0.7458   3.0008   5.6866

          k = 0.6000-0.0000 0.6000 (   937 PWs)   bands (ev):

    -3.6096   1.2591   2.9863   6.1849

          k = 0.0000 0.8000 0.0000 (   942 PWs)   bands (ev):

    -3.7494   1.4620   5.0544   5.0544

          k = 0.9000-0.1000 0.9000 (   946 PWs)   bands (ev):

    -3.0427   0.7078   4.2962   4.9923

          k = 0.8000 0.0000 0.8000 (   951 PWs)   bands (ev):

    -2.7444   0.6162   3.1523   5.2142

          k = 0.0000-1.0000 0.0000 (   934 PWs)   bands (ev):

    -2.7818   0.3015   4.8491   4.8491

          k =-0.2000 0.4000 0.0000 (   934 PWs)   bands (ev):

    -6.1237   4.4451   5.9732   7.1562

          k =-0.3000 0.5000-0.1000 (   928 PWs)   bands (ev):

    -5.2842   2.7382   5.2864   6.7679

          k = 0.6000-0.4000 0.8000 (   936 PWs)   bands (ev):

    -4.2916   1.0161   5.0299   6.3468

          k = 0.5000-0.3000 0.7000 (   938 PWs)   bands (ev):

    -3.7191   0.1766   4.9745   6.1669

          k =-0.2000 0.6000 0.0000 (   933 PWs)   bands (ev):

    -4.9905   2.9453   5.0367   5.8800

          k = 0.7000-0.3000 0.9000 (   931 PWs)   bands (ev):

    -4.0647   1.6616   4.2635   5.4497

          k = 0.6000-0.2000 0.8000 (   935 PWs)   bands (ev):

    -3.3189   0.6927   3.7131   5.3757

          k = 0.5000-0.1000 0.7000 (   932 PWs)   bands (ev):

    -3.5275   0.9749   3.4750   5.6994

          k = 0.4000 0.0000 0.6000 (   929 PWs)   bands (ev):

    -4.4144   2.0134   3.8998   6.2555

          k = 0.8000-0.2000 1.0000 (   932 PWs)   bands (ev):

    -3.6064   1.4152   4.4405   4.7951

          k = 0.7000-0.1000 0.9000 (   939 PWs)   bands (ev):

    -2.9147   0.8434   3.3967   4.6956

          k = 0.6000 0.0000 0.8000 (   930 PWs)   bands (ev):

    -2.8963   0.9146   2.7484   5.0681

          k =-0.2000-1.0000 0.0000 (   944 PWs)   bands (ev):

    -2.7255   0.4740   4.3127   4.3236

          k = 0.6000-0.2000 1.0000 (   936 PWs)   bands (ev):

    -3.2497   1.2058   3.3708   4.6835

          k = 0.5000-0.1000 0.9000 (   930 PWs)   bands (ev):

    -2.8281   0.9150   3.0873   4.3327

          k =-0.4000-1.0000 0.0000 (   940 PWs)   bands (ev):

    -2.6285   0.8439   3.4616   3.6680

     highest occupied level (ev):     7.9517

!    total energy              =     -19.28370633 Ry
     estimated scf accuracy    <       0.00000090 Ry

     The total energy is the sum of the following terms:
     one-electron contribution =       4.36310970 Ry
     hartree contribution      =       2.44849561 Ry
     xc contribution           =      -5.94126771 Ry
     ewald contribution        =     -20.15404393 Ry

     convergence has been achieved in  29 iterations
     Writing meta-gga kinetic term

     Writing all to output data dir ./input_pw/SiC/6/pwscf.save/
     Writing meta-gga kinetic term
 
     init_run     :      1.35s CPU      2.86s WALL (       1 calls)
     electrons    :     30.51s CPU     67.84s WALL (       1 calls)

     Called by init_run:
     wfcinit      :      1.24s CPU      2.42s WALL (       1 calls)
     potinit      :      0.01s CPU      0.09s WALL (       1 calls)
     hinit0       :      0.09s CPU      0.32s WALL (       1 calls)

     Called by electrons:
     c_bands      :     23.91s CPU     52.95s WALL (      29 calls)
     sum_band     :      5.92s CPU     13.27s WALL (      29 calls)
     v_of_rho     :      0.37s CPU      0.94s WALL (      30 calls)
     mix_rho      :      0.31s CPU      0.76s WALL (      29 calls)

     Called by c_bands:
     init_us_2    :      0.34s CPU      0.88s WALL (    2773 calls)
     init_us_2:cp :      0.33s CPU      0.87s WALL (    2773 calls)
     cegterg      :     23.58s CPU     52.15s WALL (    1363 calls)

     Called by *egterg:
     cdiaghg      :      0.16s CPU      0.41s WALL (    3039 calls)
     h_psi        :     24.21s CPU     53.32s WALL (    3086 calls)
     g_psi        :      0.02s CPU      0.03s WALL (    1676 calls)

     Called by h_psi:
     h_psi:calbec :      0.09s CPU      0.17s WALL (    3086 calls)
     vloc_psi     :      5.95s CPU     13.13s WALL (    3086 calls)
     add_vuspsi   :      0.09s CPU      0.21s WALL (    3086 calls)
     h_psi_meta   :     18.03s CPU     39.71s WALL (    3086 calls)

     General routines
     calbec       :      0.08s CPU      0.16s WALL (    3086 calls)
     fft          :      0.08s CPU      0.24s WALL (     357 calls)
     ffts         :      0.13s CPU      0.27s WALL (     578 calls)
     fftw         :     26.46s CPU     58.59s WALL (  121200 calls)
     interpolate  :      0.00s CPU      0.00s WALL (      30 calls)
 
     Parallel routines
 
     PWSCF        :     31.92s CPU   1m10.88s WALL

 
   This run was terminated on:  12: 3:42  14Mar2023            

=------------------------------------------------------------------------------=
   JOB DONE.
=------------------------------------------------------------------------------=
