
     Program PWSCF v.7.0 starts on  7Jul2023 at 14:30:57 

     This program is part of the open-source Quantum ESPRESSO suite
     for quantum simulation of materials; please cite
         "P. Giannozzi et al., J. Phys.:Condens. Matter 21 395502 (2009);
         "P. Giannozzi et al., J. Phys.:Condens. Matter 29 465901 (2017);
         "P. Giannozzi et al., J. Chem. Phys. 152 154105 (2020);
          URL http://www.quantum-espresso.org", 
     in publications or presentations arising from this work. More details at
     http://www.quantum-espresso.org/quote

     Parallel version (MPI), running on     1 processors

     MPI processes distributed on     1 nodes
     26875 MiB available memory on the printing compute node when the environment starts
 
     Waiting for input...
     Reading input from standard input
Warning: card &CELL ignored
Warning: card / ignored

     Current dimensions of program PWSCF are:
     Max number of different atomic species (ntypx) = 10
     Max number of k-points (npk) =  40000
     Max angular momentum in pseudopotentials (lmaxx) =  4
     file Si.SCAN.UPF2: wavefunction(s)  0D renormalized

     WARNING: the MGGA functional with ID    5 has been 
     read together with other dft terms, but it should 
     stand alone in order to work properly. The other 
     terms will be ignored.

     WARNING: the MGGA functional with ID    5 has been 
     read together with other dft terms, but it should 
     stand alone in order to work properly. The other 
     terms will be ignored.

     Subspace diagonalization in iterative solution of the eigenvalue problem:
     a serial algorithm will be used

 
     G-vector sticks info
     --------------------
     sticks:   dense  smooth     PW     G-vecs:    dense   smooth      PW
     Sum         451     451    151                 6423     6423    1243
 
     Using Slab Decomposition
 


     bravais-lattice index     =            2
     lattice parameter (alat)  =       8.1636  a.u.
     unit-cell volume          =     136.0153 (a.u.)^3
     number of atoms/cell      =            2
     number of atomic types    =            2
     number of electrons       =         8.00
     number of Kohn-Sham states=            4
     kinetic-energy cutoff     =      50.0000  Ry
     charge density cutoff     =     200.0000  Ry
     scf convergence threshold =      2.0E-05
     mixing beta               =       0.2000
     number of iterations used =            8  local-TF  mixing
     Exchange-correlation= SLA  PW   SCAN SCAN
                           (   0   0   0   0   0 263 267)

     celldm(1)=   8.163617  celldm(2)=   0.000000  celldm(3)=   0.000000
     celldm(4)=   0.000000  celldm(5)=   0.000000  celldm(6)=   0.000000

     crystal axes: (cart. coord. in units of alat)
               a(1) = (  -0.500000   0.000000   0.500000 )  
               a(2) = (   0.000000   0.500000   0.500000 )  
               a(3) = (  -0.500000   0.500000   0.000000 )  

     reciprocal axes: (cart. coord. in units 2 pi/alat)
               b(1) = ( -1.000000 -1.000000  1.000000 )  
               b(2) = (  1.000000  1.000000  1.000000 )  
               b(3) = ( -1.000000  1.000000 -1.000000 )  


     PseudoPot. # 1 for Si read from file:
     ~/Documents/TA/PWDFT.jl/pseudopotentials/scan_upf/Si.SCAN.UPF2
     MD5 check sum: Not computed, couldn't open file
     Pseudo is Norm-conserving, Zval =  4.0
     Generated by new atomic code, or converted to UPF format
     Using radial grid of 1475 points,  2 beta functions with: 
                l(1) =   0
                l(2) =   1

     PseudoPot. # 2 for C  read from file:
     ~/Documents/TA/PWDFT.jl/pseudopotentials/scan_upf/C.SCAN.UPF2
     MD5 check sum: Not computed, couldn't open file
     Pseudo is Norm-conserving, Zval =  4.0
     Generated by new atomic code, or converted to UPF format
     Using radial grid of 1389 points,  1 beta functions with: 
                l(1) =   0

     atomic species   valence    mass     pseudopotential
        Si             4.00    28.08550     Si( 1.00)
        C              4.00    12.01100     C ( 1.00)

     24 Sym. Ops. (no inversion) found



   Cartesian axes

     site n.     atom                  positions (alat units)
         1           Si  tau(   1) = (   0.0000000   0.0000000   0.0000000  )
         2           C   tau(   2) = (   0.2500000   0.2500000   0.2500000  )

     number of k points=    47
                       cart. coord. in units 2pi/alat
        k(    1) = (   0.0000000   0.0000000   0.0000000), wk =   0.0020000
        k(    2) = (  -0.1000000   0.1000000  -0.1000000), wk =   0.0160000
        k(    3) = (  -0.2000000   0.2000000  -0.2000000), wk =   0.0160000
        k(    4) = (  -0.3000000   0.3000000  -0.3000000), wk =   0.0160000
        k(    5) = (  -0.4000000   0.4000000  -0.4000000), wk =   0.0160000
        k(    6) = (   0.5000000  -0.5000000   0.5000000), wk =   0.0080000
        k(    7) = (   0.0000000   0.2000000   0.0000000), wk =   0.0120000
        k(    8) = (  -0.1000000   0.3000000  -0.1000000), wk =   0.0480000
        k(    9) = (  -0.2000000   0.4000000  -0.2000000), wk =   0.0480000
        k(   10) = (  -0.3000000   0.5000000  -0.3000000), wk =   0.0480000
        k(   11) = (   0.6000000  -0.4000000   0.6000000), wk =   0.0480000
        k(   12) = (   0.5000000  -0.3000000   0.5000000), wk =   0.0480000
        k(   13) = (   0.4000000  -0.2000000   0.4000000), wk =   0.0480000
        k(   14) = (   0.3000000  -0.1000000   0.3000000), wk =   0.0480000
        k(   15) = (   0.2000000   0.0000000   0.2000000), wk =   0.0240000
        k(   16) = (   0.0000000   0.4000000   0.0000000), wk =   0.0120000
        k(   17) = (  -0.1000000   0.5000000  -0.1000000), wk =   0.0480000
        k(   18) = (  -0.2000000   0.6000000  -0.2000000), wk =   0.0480000
        k(   19) = (   0.7000000  -0.3000000   0.7000000), wk =   0.0480000
        k(   20) = (   0.6000000  -0.2000000   0.6000000), wk =   0.0480000
        k(   21) = (   0.5000000  -0.1000000   0.5000000), wk =   0.0480000
        k(   22) = (   0.4000000   0.0000000   0.4000000), wk =   0.0240000
        k(   23) = (   0.0000000   0.6000000   0.0000000), wk =   0.0120000
        k(   24) = (  -0.1000000   0.7000000  -0.1000000), wk =   0.0480000
        k(   25) = (   0.8000000  -0.2000000   0.8000000), wk =   0.0480000
        k(   26) = (   0.7000000  -0.1000000   0.7000000), wk =   0.0480000
        k(   27) = (   0.6000000  -0.0000000   0.6000000), wk =   0.0240000
        k(   28) = (   0.0000000   0.8000000   0.0000000), wk =   0.0120000
        k(   29) = (   0.9000000  -0.1000000   0.9000000), wk =   0.0480000
        k(   30) = (   0.8000000   0.0000000   0.8000000), wk =   0.0240000
        k(   31) = (   0.0000000  -1.0000000   0.0000000), wk =   0.0060000
        k(   32) = (  -0.2000000   0.4000000   0.0000000), wk =   0.0480000
        k(   33) = (  -0.3000000   0.5000000  -0.1000000), wk =   0.0960000
        k(   34) = (   0.6000000  -0.4000000   0.8000000), wk =   0.0960000
        k(   35) = (   0.5000000  -0.3000000   0.7000000), wk =   0.0480000
        k(   36) = (  -0.2000000   0.6000000   0.0000000), wk =   0.0480000
        k(   37) = (   0.7000000  -0.3000000   0.9000000), wk =   0.0960000
        k(   38) = (   0.6000000  -0.2000000   0.8000000), wk =   0.0960000
        k(   39) = (   0.5000000  -0.1000000   0.7000000), wk =   0.0960000
        k(   40) = (   0.4000000   0.0000000   0.6000000), wk =   0.0480000
        k(   41) = (   0.8000000  -0.2000000   1.0000000), wk =   0.0480000
        k(   42) = (   0.7000000  -0.1000000   0.9000000), wk =   0.0960000
        k(   43) = (   0.6000000   0.0000000   0.8000000), wk =   0.0480000
        k(   44) = (  -0.2000000  -1.0000000   0.0000000), wk =   0.0240000
        k(   45) = (   0.6000000  -0.2000000   1.0000000), wk =   0.0480000
        k(   46) = (   0.5000000  -0.1000000   0.9000000), wk =   0.0480000
        k(   47) = (  -0.4000000  -1.0000000   0.0000000), wk =   0.0240000

     Dense  grid:     6423 G-vectors     FFT dimensions: (  25,  25,  25)

     Estimated max dynamical RAM per process >      11.90 MB

     WARNING: libxc functional with ID  263 depends
      on external parameters: check the user_guide of
      QE if you need to modify them or to check their
      default values.

     Initial potential from superposition of free atoms

     starting charge       7.9995, renormalised to       8.0000
     Starting wfcs are   13 randomized atomic wfcs

     total cpu time spent up to now is        2.2 secs

     Self-consistent Calculation

     iteration #  1     ecut=    50.00 Ry     beta= 0.20
     Davidson diagonalization with overlap
     ethr =  1.00E-02,  avg # of iterations =  2.0

     total cpu time spent up to now is        4.2 secs

     total energy              =     -19.35179629 Ry
     estimated scf accuracy    <       2.22599118 Ry

     iteration #  2     ecut=    50.00 Ry     beta= 0.20
     Davidson diagonalization with overlap
     ethr =  1.00E-02,  avg # of iterations =  1.0

     total cpu time spent up to now is        5.6 secs

     total energy              =     -19.22620942 Ry
     estimated scf accuracy    <       1.38554609 Ry

     iteration #  3     ecut=    50.00 Ry     beta= 0.20
     Davidson diagonalization with overlap
     ethr =  1.00E-02,  avg # of iterations =  1.0

     total cpu time spent up to now is        7.1 secs

     total energy              =     -19.28756078 Ry
     estimated scf accuracy    <       0.04669704 Ry

     iteration #  4     ecut=    50.00 Ry     beta= 0.20
     Davidson diagonalization with overlap
     ethr =  5.84E-04,  avg # of iterations =  2.0

     total cpu time spent up to now is        9.2 secs

     total energy              =     -19.29753871 Ry
     estimated scf accuracy    <       0.01750301 Ry

     iteration #  5     ecut=    50.00 Ry     beta= 0.20
     Davidson diagonalization with overlap
     ethr =  2.19E-04,  avg # of iterations =  1.0

     total cpu time spent up to now is       10.7 secs

     total energy              =     -19.29576091 Ry
     estimated scf accuracy    <       0.03994994 Ry

     iteration #  6     ecut=    50.00 Ry     beta= 0.20
     Davidson diagonalization with overlap
     ethr =  2.19E-04,  avg # of iterations =  1.9

     total cpu time spent up to now is       12.4 secs

     total energy              =     -19.29747885 Ry
     estimated scf accuracy    <       0.00368137 Ry

     iteration #  7     ecut=    50.00 Ry     beta= 0.20
     Davidson diagonalization with overlap
     ethr =  4.60E-05,  avg # of iterations =  1.0

     total cpu time spent up to now is       13.7 secs

     total energy              =     -19.29754605 Ry
     estimated scf accuracy    <       0.00269430 Ry

     iteration #  8     ecut=    50.00 Ry     beta= 0.20
     Davidson diagonalization with overlap
     ethr =  3.37E-05,  avg # of iterations =  1.0

     total cpu time spent up to now is       14.6 secs

     total energy              =     -19.29762671 Ry
     estimated scf accuracy    <       0.00007374 Ry

     iteration #  9     ecut=    50.00 Ry     beta= 0.20
     Davidson diagonalization with overlap
     ethr =  9.22E-07,  avg # of iterations =  1.9

     total cpu time spent up to now is       15.8 secs

     total energy              =     -19.29763718 Ry
     estimated scf accuracy    <       0.00002647 Ry

     iteration # 10     ecut=    50.00 Ry     beta= 0.20
     Davidson diagonalization with overlap
     ethr =  3.31E-07,  avg # of iterations =  1.0

     total cpu time spent up to now is       16.6 secs

     End of self-consistent calculation

          k = 0.0000 0.0000 0.0000 (   869 PWs)   bands (ev):

    -6.7331   9.6255   9.6255   9.6255

          k =-0.1000 0.1000-0.1000 (   821 PWs)   bands (ev):

    -6.5259   8.5921   9.4932   9.4932

          k =-0.2000 0.2000-0.2000 (   812 PWs)   bands (ev):

    -5.9151   6.3684   9.1697   9.1697

          k =-0.3000 0.3000-0.3000 (   818 PWs)   bands (ev):

    -4.9411   3.9305   8.8320   8.8320

          k =-0.4000 0.4000-0.4000 (   817 PWs)   bands (ev):

    -3.7475   1.7746   8.5980   8.5980

          k = 0.5000-0.5000 0.5000 (   796 PWs)   bands (ev):

    -3.0048   0.7005   8.5201   8.5201

          k = 0.0000 0.2000 0.0000 (   825 PWs)   bands (ev):

    -6.4570   8.8694   9.1326   9.1326

          k =-0.1000 0.3000-0.1000 (   818 PWs)   bands (ev):

    -5.9803   7.1265   8.6790   8.9890

          k =-0.2000 0.4000-0.2000 (   816 PWs)   bands (ev):

    -5.1242   4.8048   8.3177   8.6062

          k =-0.3000 0.5000-0.3000 (   809 PWs)   bands (ev):

    -3.9813   2.5631   8.1383   8.1528

          k = 0.6000-0.4000 0.6000 (   813 PWs)   bands (ev):

    -2.9556   1.0065   7.7555   8.2101

          k = 0.5000-0.3000 0.5000 (   810 PWs)   bands (ev):

    -3.2249   1.3856   7.5578   8.4693

          k = 0.4000-0.2000 0.4000 (   810 PWs)   bands (ev):

    -4.3837   3.2773   7.5998   8.8647

          k = 0.3000-0.1000 0.3000 (   820 PWs)   bands (ev):

    -5.4496   5.5728   7.9100   9.2844

          k = 0.2000 0.0000 0.2000 (   825 PWs)   bands (ev):

    -6.1841   7.6058   8.5871   9.5493

          k = 0.0000 0.4000 0.0000 (   829 PWs)   bands (ev):

    -5.6415   7.1642   8.0992   8.0992

          k =-0.1000 0.5000-0.1000 (   828 PWs)   bands (ev):

    -4.9179   5.5333   7.6441   7.6567

          k =-0.2000 0.6000-0.2000 (   810 PWs)   bands (ev):

    -3.8753   3.5196   6.9264   7.4584

          k = 0.7000-0.3000 0.7000 (   812 PWs)   bands (ev):

    -2.7637   1.8064   6.2166   7.5348

          k = 0.6000-0.2000 0.6000 (   819 PWs)   bands (ev):

    -2.5264   1.4930   5.7458   7.8703

          k = 0.5000-0.1000 0.5000 (   809 PWs)   bands (ev):

    -3.5073   2.9154   5.6556   8.3942

          k = 0.4000 0.0000 0.4000 (   813 PWs)   bands (ev):

    -4.6143   4.6022   6.2749   8.9510

          k = 0.0000 0.6000 0.0000 (   821 PWs)   bands (ev):

    -4.3336   5.0940   7.1231   7.1231

          k =-0.1000 0.7000-0.1000 (   813 PWs)   bands (ev):

    -3.4245   3.8075   6.3152   6.8430

          k = 0.8000-0.2000 0.8000 (   805 PWs)   bands (ev):

    -2.3730   2.5360   5.0779   6.8647

          k = 0.7000-0.1000 0.7000 (   811 PWs)   bands (ev):

    -1.8348   2.0076   4.1502   7.1816

          k = 0.6000-0.0000 0.6000 (   804 PWs)   bands (ev):

    -2.4742   2.6065   4.1271   7.7407

          k = 0.0000 0.8000 0.0000 (   805 PWs)   bands (ev):

    -2.6803   2.9117   6.4715   6.4715

          k = 0.9000-0.1000 0.9000 (   804 PWs)   bands (ev):

    -1.8405   2.0491   5.5955   6.4062

          k = 0.8000 0.0000 0.8000 (   808 PWs)   bands (ev):

    -1.4574   1.9599   4.2416   6.6556

          k = 0.0000-1.0000 0.0000 (   790 PWs)   bands (ev):

    -1.5238   1.5565   6.2468   6.2468

          k =-0.2000 0.4000 0.0000 (   830 PWs)   bands (ev):

    -5.3797   6.0397   7.4812   8.8198

          k =-0.3000 0.5000-0.1000 (   817 PWs)   bands (ev):

    -4.4257   4.1539   6.7711   8.3941

          k = 0.6000-0.4000 0.8000 (   811 PWs)   bands (ev):

    -3.2685   2.1970   6.5359   7.9162

          k = 0.5000-0.3000 0.7000 (   814 PWs)   bands (ev):

    -2.5637   1.1991   6.4952   7.7051

          k =-0.2000 0.6000 0.0000 (   822 PWs)   bands (ev):

    -4.0972   4.4975   6.4544   7.3910

          k = 0.7000-0.3000 0.9000 (   805 PWs)   bands (ev):

    -3.0256   3.0469   5.6360   6.8877

          k = 0.6000-0.2000 0.8000 (   811 PWs)   bands (ev):

    -2.1205   1.8819   5.0450   6.8031

          k = 0.5000-0.1000 0.7000 (   814 PWs)   bands (ev):

    -2.3739   2.2193   4.7525   7.1775

          k = 0.4000 0.0000 0.6000 (   813 PWs)   bands (ev):

    -3.4260   3.4273   5.1910   7.8125

          k = 0.8000-0.2000 1.0000 (   801 PWs)   bands (ev):

    -2.5054   2.8661   5.7862   6.1361

          k = 0.7000-0.1000 0.9000 (   803 PWs)   bands (ev):

    -1.6673   2.2239   4.5453   6.0403

          k = 0.6000 0.0000 0.8000 (   815 PWs)   bands (ev):

    -1.6252   2.3170   3.7651   6.4630

          k =-0.2000-1.0000 0.0000 (   804 PWs)   bands (ev):

    -1.4482   1.7751   5.6183   5.6197

          k = 0.6000-0.2000 1.0000 (   804 PWs)   bands (ev):

    -2.0634   2.6237   4.5559   5.9973

          k = 0.5000-0.1000 0.9000 (   806 PWs)   bands (ev):

    -1.5466   2.3029   4.2082   5.5909

          k =-0.4000-1.0000 0.0000 (   804 PWs)   bands (ev):

    -1.3156   2.2859   4.5725   4.8411

     highest occupied level (ev):     9.6255

!    total energy              =     -19.29763817 Ry
     estimated scf accuracy    <       0.00001245 Ry

     The total energy is the sum of the following terms:
     one-electron contribution =       5.60801362 Ry
     hartree contribution      =       2.34996240 Ry
     xc contribution           =      -6.14027515 Ry
     ewald contribution        =     -21.11533904 Ry

     convergence has been achieved in  10 iterations
     Writing meta-gga kinetic term

     Writing all to output data dir ./input_pw/SiC/6/pwscf.save/
     Writing meta-gga kinetic term
 
     init_run     :      1.00s CPU      2.09s WALL (       1 calls)
     electrons    :      8.01s CPU     14.38s WALL (       1 calls)

     Called by init_run:
     wfcinit      :      0.89s CPU      1.90s WALL (       1 calls)
     potinit      :      0.01s CPU      0.02s WALL (       1 calls)
     hinit0       :      0.09s CPU      0.15s WALL (       1 calls)

     Called by electrons:
     c_bands      :      6.37s CPU     11.49s WALL (      10 calls)
     sum_band     :      1.48s CPU      2.59s WALL (      10 calls)
     v_of_rho     :      0.10s CPU      0.16s WALL (      11 calls)
     mix_rho      :      0.06s CPU      0.14s WALL (      10 calls)

     Called by c_bands:
     init_us_2    :      0.10s CPU      0.15s WALL (     987 calls)
     init_us_2:cp :      0.10s CPU      0.15s WALL (     987 calls)
     cegterg      :      6.28s CPU     11.32s WALL (     470 calls)

     Called by *egterg:
     cdiaghg      :      0.05s CPU      0.14s WALL (    1121 calls)
     h_psi        :      6.95s CPU     12.77s WALL (    1168 calls)
     g_psi        :      0.01s CPU      0.01s WALL (     651 calls)

     Called by h_psi:
     h_psi:calbec :      0.03s CPU      0.11s WALL (    1168 calls)
     vloc_psi     :      1.70s CPU      2.99s WALL (    1168 calls)
     add_vuspsi   :      0.03s CPU      0.04s WALL (    1168 calls)
     h_psi_meta   :      5.18s CPU      9.57s WALL (    1168 calls)

     General routines
     calbec       :      0.02s CPU      0.09s WALL (    1168 calls)
     fft          :      0.02s CPU      0.06s WALL (     129 calls)
     ffts         :      0.03s CPU      0.08s WALL (     179 calls)
     fftw         :      7.40s CPU     13.42s WALL (   46296 calls)
     interpolate  :      0.00s CPU      0.00s WALL (      11 calls)
 
     Parallel routines
 
     PWSCF        :      9.06s CPU     16.59s WALL

 
   This run was terminated on:  14:31:14   7Jul2023            

=------------------------------------------------------------------------------=
   JOB DONE.
=------------------------------------------------------------------------------=
