
     Program PWSCF v.7.0 starts on 29Mar2023 at 12:56: 4 

     This program is part of the open-source Quantum ESPRESSO suite
     for quantum simulation of materials; please cite
         "P. Giannozzi et al., J. Phys.:Condens. Matter 21 395502 (2009);
         "P. Giannozzi et al., J. Phys.:Condens. Matter 29 465901 (2017);
         "P. Giannozzi et al., J. Chem. Phys. 152 154105 (2020);
          URL http://www.quantum-espresso.org", 
     in publications or presentations arising from this work. More details at
     http://www.quantum-espresso.org/quote

     Parallel version (MPI), running on     1 processors

     MPI processes distributed on     1 nodes
     23092 MiB available memory on the printing compute node when the environment starts
 
     Waiting for input...
     Reading input from standard input
Warning: card &CELL ignored
Warning: card / ignored

     Current dimensions of program PWSCF are:
     Max number of different atomic species (ntypx) = 10
     Max number of k-points (npk) =  40000
     Max angular momentum in pseudopotentials (lmaxx) =  4
     file Si.SCAN.UPF2: wavefunction(s)  0D renormalized

     WARNING: the MGGA functional with ID    5 has been 
     read together with other dft terms, but it should 
     stand alone in order to work properly. The other 
     terms will be ignored.

     WARNING: the MGGA functional with ID    5 has been 
     read together with other dft terms, but it should 
     stand alone in order to work properly. The other 
     terms will be ignored.

     Subspace diagonalization in iterative solution of the eigenvalue problem:
     a serial algorithm will be used

 
     G-vector sticks info
     --------------------
     sticks:   dense  smooth     PW     G-vecs:    dense   smooth      PW
     Sum         451     451    151                 6423     6423    1243
 
     Using Slab Decomposition
 


     bravais-lattice index     =            2
     lattice parameter (alat)  =       8.1636  a.u.
     unit-cell volume          =     136.0153 (a.u.)^3
     number of atoms/cell      =            2
     number of atomic types    =            2
     number of electrons       =         8.00
     number of Kohn-Sham states=            4
     kinetic-energy cutoff     =      50.0000  Ry
     charge density cutoff     =     200.0000  Ry
     scf convergence threshold =      1.0E-06
     mixing beta               =       0.0100
     number of iterations used =            8  local-TF  mixing
     Exchange-correlation= SLA  PW   SCAN SCAN
                           (   0   0   0   0   0 263 267)

     celldm(1)=   8.163617  celldm(2)=   0.000000  celldm(3)=   0.000000
     celldm(4)=   0.000000  celldm(5)=   0.000000  celldm(6)=   0.000000

     crystal axes: (cart. coord. in units of alat)
               a(1) = (  -0.500000   0.000000   0.500000 )  
               a(2) = (   0.000000   0.500000   0.500000 )  
               a(3) = (  -0.500000   0.500000   0.000000 )  

     reciprocal axes: (cart. coord. in units 2 pi/alat)
               b(1) = ( -1.000000 -1.000000  1.000000 )  
               b(2) = (  1.000000  1.000000  1.000000 )  
               b(3) = ( -1.000000  1.000000 -1.000000 )  


     PseudoPot. # 1 for Si read from file:
     ~/Documents/TA/PWDFT.jl/pseudopotentials/scan_upf/Si.SCAN.UPF2
     MD5 check sum: Not computed, couldn't open file
     Pseudo is Norm-conserving, Zval =  4.0
     Generated by new atomic code, or converted to UPF format
     Using radial grid of 1475 points,  2 beta functions with: 
                l(1) =   0
                l(2) =   1

     PseudoPot. # 2 for C  read from file:
     ~/Documents/TA/PWDFT.jl/pseudopotentials/scan_upf/C.SCAN.UPF2
     MD5 check sum: Not computed, couldn't open file
     Pseudo is Norm-conserving, Zval =  4.0
     Generated by new atomic code, or converted to UPF format
     Using radial grid of 1389 points,  1 beta functions with: 
                l(1) =   0

     atomic species   valence    mass     pseudopotential
        Si             4.00    28.08550     Si( 1.00)
        C              4.00    12.01100     C ( 1.00)

     24 Sym. Ops. (no inversion) found



   Cartesian axes

     site n.     atom                  positions (alat units)
         1           Si  tau(   1) = (   0.0000000   0.0000000   0.0000000  )
         2           C   tau(   2) = (   0.2500000   0.2500000   0.2500000  )

     number of k points=    47
                       cart. coord. in units 2pi/alat
        k(    1) = (   0.0000000   0.0000000   0.0000000), wk =   0.0020000
        k(    2) = (  -0.1000000   0.1000000  -0.1000000), wk =   0.0160000
        k(    3) = (  -0.2000000   0.2000000  -0.2000000), wk =   0.0160000
        k(    4) = (  -0.3000000   0.3000000  -0.3000000), wk =   0.0160000
        k(    5) = (  -0.4000000   0.4000000  -0.4000000), wk =   0.0160000
        k(    6) = (   0.5000000  -0.5000000   0.5000000), wk =   0.0080000
        k(    7) = (   0.0000000   0.2000000   0.0000000), wk =   0.0120000
        k(    8) = (  -0.1000000   0.3000000  -0.1000000), wk =   0.0480000
        k(    9) = (  -0.2000000   0.4000000  -0.2000000), wk =   0.0480000
        k(   10) = (  -0.3000000   0.5000000  -0.3000000), wk =   0.0480000
        k(   11) = (   0.6000000  -0.4000000   0.6000000), wk =   0.0480000
        k(   12) = (   0.5000000  -0.3000000   0.5000000), wk =   0.0480000
        k(   13) = (   0.4000000  -0.2000000   0.4000000), wk =   0.0480000
        k(   14) = (   0.3000000  -0.1000000   0.3000000), wk =   0.0480000
        k(   15) = (   0.2000000   0.0000000   0.2000000), wk =   0.0240000
        k(   16) = (   0.0000000   0.4000000   0.0000000), wk =   0.0120000
        k(   17) = (  -0.1000000   0.5000000  -0.1000000), wk =   0.0480000
        k(   18) = (  -0.2000000   0.6000000  -0.2000000), wk =   0.0480000
        k(   19) = (   0.7000000  -0.3000000   0.7000000), wk =   0.0480000
        k(   20) = (   0.6000000  -0.2000000   0.6000000), wk =   0.0480000
        k(   21) = (   0.5000000  -0.1000000   0.5000000), wk =   0.0480000
        k(   22) = (   0.4000000   0.0000000   0.4000000), wk =   0.0240000
        k(   23) = (   0.0000000   0.6000000   0.0000000), wk =   0.0120000
        k(   24) = (  -0.1000000   0.7000000  -0.1000000), wk =   0.0480000
        k(   25) = (   0.8000000  -0.2000000   0.8000000), wk =   0.0480000
        k(   26) = (   0.7000000  -0.1000000   0.7000000), wk =   0.0480000
        k(   27) = (   0.6000000  -0.0000000   0.6000000), wk =   0.0240000
        k(   28) = (   0.0000000   0.8000000   0.0000000), wk =   0.0120000
        k(   29) = (   0.9000000  -0.1000000   0.9000000), wk =   0.0480000
        k(   30) = (   0.8000000   0.0000000   0.8000000), wk =   0.0240000
        k(   31) = (   0.0000000  -1.0000000   0.0000000), wk =   0.0060000
        k(   32) = (  -0.2000000   0.4000000   0.0000000), wk =   0.0480000
        k(   33) = (  -0.3000000   0.5000000  -0.1000000), wk =   0.0960000
        k(   34) = (   0.6000000  -0.4000000   0.8000000), wk =   0.0960000
        k(   35) = (   0.5000000  -0.3000000   0.7000000), wk =   0.0480000
        k(   36) = (  -0.2000000   0.6000000   0.0000000), wk =   0.0480000
        k(   37) = (   0.7000000  -0.3000000   0.9000000), wk =   0.0960000
        k(   38) = (   0.6000000  -0.2000000   0.8000000), wk =   0.0960000
        k(   39) = (   0.5000000  -0.1000000   0.7000000), wk =   0.0960000
        k(   40) = (   0.4000000   0.0000000   0.6000000), wk =   0.0480000
        k(   41) = (   0.8000000  -0.2000000   1.0000000), wk =   0.0480000
        k(   42) = (   0.7000000  -0.1000000   0.9000000), wk =   0.0960000
        k(   43) = (   0.6000000   0.0000000   0.8000000), wk =   0.0480000
        k(   44) = (  -0.2000000  -1.0000000   0.0000000), wk =   0.0240000
        k(   45) = (   0.6000000  -0.2000000   1.0000000), wk =   0.0480000
        k(   46) = (   0.5000000  -0.1000000   0.9000000), wk =   0.0480000
        k(   47) = (  -0.4000000  -1.0000000   0.0000000), wk =   0.0240000

     Dense  grid:     6423 G-vectors     FFT dimensions: (  25,  25,  25)

     Estimated max dynamical RAM per process >      11.90 MB

     WARNING: libxc functional with ID  263 depends
      on external parameters: check the user_guide of
      QE if you need to modify them or to check their
      default values.

     Initial potential from superposition of free atoms

     starting charge       7.9995, renormalised to       8.0000
     Starting wfcs are   13 randomized atomic wfcs

     total cpu time spent up to now is        2.1 secs

     Self-consistent Calculation

     iteration #  1     ecut=    50.00 Ry     beta= 0.01
     Davidson diagonalization with overlap
     ethr =  1.00E-02,  avg # of iterations =  2.0

     total cpu time spent up to now is        4.1 secs

     total energy              =     -19.34400229 Ry
     estimated scf accuracy    <       2.22599118 Ry

     iteration #  2     ecut=    50.00 Ry     beta= 0.01
     Davidson diagonalization with overlap
     ethr =  1.00E-02,  avg # of iterations =  1.0

     total cpu time spent up to now is        5.6 secs

     total energy              =     -19.23885131 Ry
     estimated scf accuracy    <       2.17884168 Ry

     iteration #  3     ecut=    50.00 Ry     beta= 0.01
     Davidson diagonalization with overlap
     ethr =  1.00E-02,  avg # of iterations =  1.0

     total cpu time spent up to now is        7.1 secs

     total energy              =     -19.28235427 Ry
     estimated scf accuracy    <       0.04393570 Ry

     iteration #  4     ecut=    50.00 Ry     beta= 0.01
     Davidson diagonalization with overlap
     ethr =  5.49E-04,  avg # of iterations =  2.0

     total cpu time spent up to now is        8.9 secs

     total energy              =     -19.28919738 Ry
     estimated scf accuracy    <       0.03995622 Ry

     iteration #  5     ecut=    50.00 Ry     beta= 0.01
     Davidson diagonalization with overlap
     ethr =  4.99E-04,  avg # of iterations =  1.0

     total cpu time spent up to now is       10.4 secs

     total energy              =     -19.29004645 Ry
     estimated scf accuracy    <       0.06372348 Ry

     iteration #  6     ecut=    50.00 Ry     beta= 0.01
     Davidson diagonalization with overlap
     ethr =  4.99E-04,  avg # of iterations =  1.0

     total cpu time spent up to now is       11.9 secs

     total energy              =     -19.29515752 Ry
     estimated scf accuracy    <       0.06988817 Ry

     iteration #  7     ecut=    50.00 Ry     beta= 0.01
     Davidson diagonalization with overlap
     ethr =  4.99E-04,  avg # of iterations =  1.5

     total cpu time spent up to now is       13.5 secs

     total energy              =     -19.29802724 Ry
     estimated scf accuracy    <       0.04911844 Ry

     iteration #  8     ecut=    50.00 Ry     beta= 0.01
     Davidson diagonalization with overlap
     ethr =  4.99E-04,  avg # of iterations =  1.0

     total cpu time spent up to now is       15.0 secs

     total energy              =     -19.29839405 Ry
     estimated scf accuracy    <       0.01241273 Ry

     iteration #  9     ecut=    50.00 Ry     beta= 0.01
     Davidson diagonalization with overlap
     ethr =  1.55E-04,  avg # of iterations =  1.0

     total cpu time spent up to now is       16.5 secs

     total energy              =     -19.29750070 Ry
     estimated scf accuracy    <       0.01569160 Ry

     iteration # 10     ecut=    50.00 Ry     beta= 0.01
     Davidson diagonalization with overlap
     ethr =  1.55E-04,  avg # of iterations =  1.0

     total cpu time spent up to now is       18.0 secs

     total energy              =     -19.29726687 Ry
     estimated scf accuracy    <       0.00200709 Ry

     iteration # 11     ecut=    50.00 Ry     beta= 0.01
     Davidson diagonalization with overlap
     ethr =  2.51E-05,  avg # of iterations =  2.0

     total cpu time spent up to now is       19.9 secs

     total energy              =     -19.29758739 Ry
     estimated scf accuracy    <       0.00009775 Ry

     iteration # 12     ecut=    50.00 Ry     beta= 0.01
     Davidson diagonalization with overlap
     ethr =  1.22E-06,  avg # of iterations =  2.0

     total cpu time spent up to now is       21.8 secs

     total energy              =     -19.29760273 Ry
     estimated scf accuracy    <       0.00017658 Ry

     iteration # 13     ecut=    50.00 Ry     beta= 0.01
     Davidson diagonalization with overlap
     ethr =  1.22E-06,  avg # of iterations =  1.0

     total cpu time spent up to now is       23.3 secs

     total energy              =     -19.29762474 Ry
     estimated scf accuracy    <       0.00011463 Ry

     iteration # 14     ecut=    50.00 Ry     beta= 0.01
     Davidson diagonalization with overlap
     ethr =  1.22E-06,  avg # of iterations =  2.0

     total cpu time spent up to now is       25.0 secs

     End of self-consistent calculation

          k = 0.0000 0.0000 0.0000 (   869 PWs)   bands (ev):

    -6.7305   9.6306   9.6306   9.6306

          k =-0.1000 0.1000-0.1000 (   821 PWs)   bands (ev):

    -6.5233   8.5967   9.4982   9.4982

          k =-0.2000 0.2000-0.2000 (   812 PWs)   bands (ev):

    -5.9123   6.3721   9.1743   9.1743

          k =-0.3000 0.3000-0.3000 (   818 PWs)   bands (ev):

    -4.9381   3.9333   8.8363   8.8363

          k =-0.4000 0.4000-0.4000 (   817 PWs)   bands (ev):

    -3.7440   1.7767   8.6021   8.6021

          k = 0.5000-0.5000 0.5000 (   796 PWs)   bands (ev):

    -3.0006   0.7018   8.5242   8.5242

          k = 0.0000 0.2000 0.0000 (   825 PWs)   bands (ev):

    -6.4543   8.8744   9.1373   9.1373

          k =-0.1000 0.3000-0.1000 (   818 PWs)   bands (ev):

    -5.9776   7.1305   8.6833   8.9935

          k =-0.2000 0.4000-0.2000 (   816 PWs)   bands (ev):

    -5.1213   4.8080   8.3217   8.6104

          k =-0.3000 0.5000-0.3000 (   809 PWs)   bands (ev):

    -3.9780   2.5654   8.1422   8.1567

          k = 0.6000-0.4000 0.6000 (   813 PWs)   bands (ev):

    -2.9515   1.0080   7.7591   8.2140

          k = 0.5000-0.3000 0.5000 (   810 PWs)   bands (ev):

    -3.2211   1.3873   7.5613   8.4733

          k = 0.4000-0.2000 0.4000 (   810 PWs)   bands (ev):

    -4.3805   3.2800   7.6033   8.8690

          k = 0.3000-0.1000 0.3000 (   820 PWs)   bands (ev):

    -5.4468   5.5763   7.9136   9.2891

          k = 0.2000 0.0000 0.2000 (   825 PWs)   bands (ev):

    -6.1814   7.6101   8.5912   9.5543

          k = 0.0000 0.4000 0.0000 (   829 PWs)   bands (ev):

    -5.6387   7.1687   8.1030   8.1030

          k =-0.1000 0.5000-0.1000 (   828 PWs)   bands (ev):

    -4.9149   5.5370   7.6477   7.6603

          k =-0.2000 0.6000-0.2000 (   810 PWs)   bands (ev):

    -3.8720   3.5224   6.9296   7.4619

          k = 0.7000-0.3000 0.7000 (   812 PWs)   bands (ev):

    -2.7597   1.8082   6.2196   7.5383

          k = 0.6000-0.2000 0.6000 (   819 PWs)   bands (ev):

    -2.5220   1.4945   5.7485   7.8739

          k = 0.5000-0.1000 0.5000 (   809 PWs)   bands (ev):

    -3.5037   2.9179   5.6581   8.3982

          k = 0.4000 0.0000 0.4000 (   813 PWs)   bands (ev):

    -4.6112   4.6057   6.2775   8.9553

          k = 0.0000 0.6000 0.0000 (   821 PWs)   bands (ev):

    -4.3304   5.0977   7.1264   7.1264

          k =-0.1000 0.7000-0.1000 (   813 PWs)   bands (ev):

    -3.4209   3.8106   6.3180   6.8461

          k = 0.8000-0.2000 0.8000 (   805 PWs)   bands (ev):

    -2.3688   2.5381   5.0802   6.8678

          k = 0.7000-0.1000 0.7000 (   811 PWs)   bands (ev):

    -1.8298   2.0088   4.1523   7.1849

          k = 0.6000-0.0000 0.6000 (   804 PWs)   bands (ev):

    -2.4700   2.6087   4.1290   7.7443

          k = 0.0000 0.8000 0.0000 (   805 PWs)   bands (ev):

    -2.6764   2.9141   6.4746   6.4746

          k = 0.9000-0.1000 0.9000 (   804 PWs)   bands (ev):

    -1.8357   2.0506   5.5980   6.4092

          k = 0.8000 0.0000 0.8000 (   808 PWs)   bands (ev):

    -1.4521   1.9608   4.2436   6.6587

          k = 0.0000-1.0000 0.0000 (   790 PWs)   bands (ev):

    -1.5185   1.5574   6.2497   6.2497

          k =-0.2000 0.4000 0.0000 (   830 PWs)   bands (ev):

    -5.3769   6.0436   7.4845   8.8241

          k =-0.3000 0.5000-0.1000 (   817 PWs)   bands (ev):

    -4.4225   4.1570   6.7742   8.3981

          k = 0.6000-0.4000 0.8000 (   811 PWs)   bands (ev):

    -3.2648   2.1991   6.5390   7.9198

          k = 0.5000-0.3000 0.7000 (   814 PWs)   bands (ev):

    -2.5593   1.2004   6.4983   7.7086

          k =-0.2000 0.6000 0.0000 (   822 PWs)   bands (ev):

    -4.0940   4.5009   6.4572   7.3943

          k = 0.7000-0.3000 0.9000 (   805 PWs)   bands (ev):

    -3.0218   3.0494   5.6385   6.8907

          k = 0.6000-0.2000 0.8000 (   811 PWs)   bands (ev):

    -2.1159   1.8834   5.0474   6.8061

          k = 0.5000-0.1000 0.7000 (   814 PWs)   bands (ev):

    -2.3696   2.2211   4.7547   7.1807

          k = 0.4000 0.0000 0.6000 (   813 PWs)   bands (ev):

    -3.4224   3.4302   5.1932   7.8161

          k = 0.8000-0.2000 1.0000 (   801 PWs)   bands (ev):

    -2.5013   2.8685   5.7888   6.1389

          k = 0.7000-0.1000 0.9000 (   803 PWs)   bands (ev):

    -1.6623   2.2253   4.5474   6.0430

          k = 0.6000 0.0000 0.8000 (   815 PWs)   bands (ev):

    -1.6201   2.3183   3.7670   6.4659

          k =-0.2000-1.0000 0.0000 (   804 PWs)   bands (ev):

    -1.4428   1.7760   5.6209   5.6222

          k = 0.6000-0.2000 1.0000 (   804 PWs)   bands (ev):

    -2.0589   2.6257   4.5580   5.9998

          k = 0.5000-0.1000 0.9000 (   806 PWs)   bands (ev):

    -1.5414   2.3040   4.2102   5.5933

          k =-0.4000-1.0000 0.0000 (   804 PWs)   bands (ev):

    -1.3101   2.2869   4.5747   4.8433

     highest occupied level (ev):     9.6306

!    total energy              =     -19.29763709 Ry
     estimated scf accuracy    <       0.00000065 Ry

     The total energy is the sum of the following terms:
     one-electron contribution =       5.60767602 Ry
     hartree contribution      =       2.35040517 Ry
     xc contribution           =      -6.14037925 Ry
     ewald contribution        =     -21.11533904 Ry

     convergence has been achieved in  14 iterations
     Writing meta-gga kinetic term

     Writing all to output data dir ./input_pw/SiC/6/pwscf.save/
     Writing meta-gga kinetic term
 
     init_run     :      1.00s CPU      1.98s WALL (       1 calls)
     electrons    :     11.23s CPU     22.96s WALL (       1 calls)

     Called by init_run:
     wfcinit      :      0.89s CPU      1.78s WALL (       1 calls)
     potinit      :      0.01s CPU      0.04s WALL (       1 calls)
     hinit0       :      0.09s CPU      0.15s WALL (       1 calls)

     Called by electrons:
     c_bands      :      8.96s CPU     18.26s WALL (      14 calls)
     sum_band     :      2.05s CPU      4.23s WALL (      14 calls)
     v_of_rho     :      0.14s CPU      0.31s WALL (      15 calls)
     mix_rho      :      0.09s CPU      0.19s WALL (      14 calls)

     Called by c_bands:
     init_us_2    :      0.14s CPU      0.28s WALL (    1363 calls)
     init_us_2:cp :      0.14s CPU      0.25s WALL (    1363 calls)
     cegterg      :      8.83s CPU     17.96s WALL (     658 calls)

     Called by *egterg:
     cdiaghg      :      0.07s CPU      0.18s WALL (    1575 calls)
     h_psi        :      9.43s CPU     19.11s WALL (    1622 calls)
     g_psi        :      0.01s CPU      0.03s WALL (     917 calls)

     Called by h_psi:
     h_psi:calbec :      0.04s CPU      0.07s WALL (    1622 calls)
     vloc_psi     :      2.32s CPU      4.82s WALL (    1622 calls)
     add_vuspsi   :      0.04s CPU      0.09s WALL (    1622 calls)
     h_psi_meta   :      7.01s CPU     14.08s WALL (    1622 calls)

     General routines
     calbec       :      0.03s CPU      0.05s WALL (    1622 calls)
     fft          :      0.03s CPU      0.11s WALL (     177 calls)
     ffts         :      0.04s CPU      0.11s WALL (     261 calls)
     fftw         :     10.07s CPU     20.56s WALL (   63432 calls)
     interpolate  :      0.00s CPU      0.00s WALL (      15 calls)
 
     Parallel routines
 
     PWSCF        :     12.29s CPU     25.10s WALL

 
   This run was terminated on:  12:56:29  29Mar2023            

=------------------------------------------------------------------------------=
   JOB DONE.
=------------------------------------------------------------------------------=
