
     Program PWSCF v.7.0 starts on 29Mar2023 at 11:31: 6 

     This program is part of the open-source Quantum ESPRESSO suite
     for quantum simulation of materials; please cite
         "P. Giannozzi et al., J. Phys.:Condens. Matter 21 395502 (2009);
         "P. Giannozzi et al., J. Phys.:Condens. Matter 29 465901 (2017);
         "P. Giannozzi et al., J. Chem. Phys. 152 154105 (2020);
          URL http://www.quantum-espresso.org", 
     in publications or presentations arising from this work. More details at
     http://www.quantum-espresso.org/quote

     Parallel version (MPI), running on     1 processors

     MPI processes distributed on     1 nodes
     23451 MiB available memory on the printing compute node when the environment starts
 
     Waiting for input...
     Reading input from standard input
Warning: card &CELL ignored
Warning: card / ignored

     Current dimensions of program PWSCF are:
     Max number of different atomic species (ntypx) = 10
     Max number of k-points (npk) =  40000
     Max angular momentum in pseudopotentials (lmaxx) =  4
     file Si.SCAN.UPF2: wavefunction(s)  0D renormalized

     WARNING: the MGGA functional with ID    5 has been 
     read together with other dft terms, but it should 
     stand alone in order to work properly. The other 
     terms will be ignored.

     Subspace diagonalization in iterative solution of the eigenvalue problem:
     a serial algorithm will be used

 
     G-vector sticks info
     --------------------
     sticks:   dense  smooth     PW     G-vecs:    dense   smooth      PW
     Sum         871     871    265                17153    17153    2891
 
     Using Slab Decomposition
 


     bravais-lattice index     =            2
     lattice parameter (alat)  =      11.2995  a.u.
     unit-cell volume          =     360.6767 (a.u.)^3
     number of atoms/cell      =            2
     number of atomic types    =            1
     number of electrons       =         8.00
     number of Kohn-Sham states=            4
     kinetic-energy cutoff     =      50.0000  Ry
     charge density cutoff     =     200.0000  Ry
     scf convergence threshold =      1.0E-06
     mixing beta               =       0.0100
     number of iterations used =            8  local-TF  mixing
     Exchange-correlation= SLA  PW   SCAN SCAN
                           (   0   0   0   0   0 263 267)

     celldm(1)=  11.299504  celldm(2)=   0.000000  celldm(3)=   0.000000
     celldm(4)=   0.000000  celldm(5)=   0.000000  celldm(6)=   0.000000

     crystal axes: (cart. coord. in units of alat)
               a(1) = (  -0.500000   0.000000   0.500000 )  
               a(2) = (   0.000000   0.500000   0.500000 )  
               a(3) = (  -0.500000   0.500000   0.000000 )  

     reciprocal axes: (cart. coord. in units 2 pi/alat)
               b(1) = ( -1.000000 -1.000000  1.000000 )  
               b(2) = (  1.000000  1.000000  1.000000 )  
               b(3) = ( -1.000000  1.000000 -1.000000 )  


     PseudoPot. # 1 for Si read from file:
     ~/Documents/TA/PWDFT.jl/pseudopotentials/scan_upf/Si.SCAN.UPF2
     MD5 check sum: Not computed, couldn't open file
     Pseudo is Norm-conserving, Zval =  4.0
     Generated by new atomic code, or converted to UPF format
     Using radial grid of 1475 points,  2 beta functions with: 
                l(1) =   0
                l(2) =   1

     atomic species   valence    mass     pseudopotential
        Si             4.00    28.08550     Si( 1.00)

     48 Sym. Ops., with inversion, found (24 have fractional translation)



   Cartesian axes

     site n.     atom                  positions (alat units)
         1           Si  tau(   1) = (   0.0000000   0.0000000   0.0000000  )
         2           Si  tau(   2) = (   0.2500000   0.2500000   0.2500000  )

     number of k points=    47
                       cart. coord. in units 2pi/alat
        k(    1) = (   0.0000000   0.0000000   0.0000000), wk =   0.0020000
        k(    2) = (  -0.1000000   0.1000000  -0.1000000), wk =   0.0160000
        k(    3) = (  -0.2000000   0.2000000  -0.2000000), wk =   0.0160000
        k(    4) = (  -0.3000000   0.3000000  -0.3000000), wk =   0.0160000
        k(    5) = (  -0.4000000   0.4000000  -0.4000000), wk =   0.0160000
        k(    6) = (   0.5000000  -0.5000000   0.5000000), wk =   0.0080000
        k(    7) = (   0.0000000   0.2000000   0.0000000), wk =   0.0120000
        k(    8) = (  -0.1000000   0.3000000  -0.1000000), wk =   0.0480000
        k(    9) = (  -0.2000000   0.4000000  -0.2000000), wk =   0.0480000
        k(   10) = (  -0.3000000   0.5000000  -0.3000000), wk =   0.0480000
        k(   11) = (   0.6000000  -0.4000000   0.6000000), wk =   0.0480000
        k(   12) = (   0.5000000  -0.3000000   0.5000000), wk =   0.0480000
        k(   13) = (   0.4000000  -0.2000000   0.4000000), wk =   0.0480000
        k(   14) = (   0.3000000  -0.1000000   0.3000000), wk =   0.0480000
        k(   15) = (   0.2000000   0.0000000   0.2000000), wk =   0.0240000
        k(   16) = (   0.0000000   0.4000000   0.0000000), wk =   0.0120000
        k(   17) = (  -0.1000000   0.5000000  -0.1000000), wk =   0.0480000
        k(   18) = (  -0.2000000   0.6000000  -0.2000000), wk =   0.0480000
        k(   19) = (   0.7000000  -0.3000000   0.7000000), wk =   0.0480000
        k(   20) = (   0.6000000  -0.2000000   0.6000000), wk =   0.0480000
        k(   21) = (   0.5000000  -0.1000000   0.5000000), wk =   0.0480000
        k(   22) = (   0.4000000   0.0000000   0.4000000), wk =   0.0240000
        k(   23) = (   0.0000000   0.6000000   0.0000000), wk =   0.0120000
        k(   24) = (  -0.1000000   0.7000000  -0.1000000), wk =   0.0480000
        k(   25) = (   0.8000000  -0.2000000   0.8000000), wk =   0.0480000
        k(   26) = (   0.7000000  -0.1000000   0.7000000), wk =   0.0480000
        k(   27) = (   0.6000000  -0.0000000   0.6000000), wk =   0.0240000
        k(   28) = (   0.0000000   0.8000000   0.0000000), wk =   0.0120000
        k(   29) = (   0.9000000  -0.1000000   0.9000000), wk =   0.0480000
        k(   30) = (   0.8000000   0.0000000   0.8000000), wk =   0.0240000
        k(   31) = (   0.0000000  -1.0000000   0.0000000), wk =   0.0060000
        k(   32) = (  -0.2000000   0.4000000   0.0000000), wk =   0.0480000
        k(   33) = (  -0.3000000   0.5000000  -0.1000000), wk =   0.0960000
        k(   34) = (   0.6000000  -0.4000000   0.8000000), wk =   0.0960000
        k(   35) = (   0.5000000  -0.3000000   0.7000000), wk =   0.0480000
        k(   36) = (  -0.2000000   0.6000000   0.0000000), wk =   0.0480000
        k(   37) = (   0.7000000  -0.3000000   0.9000000), wk =   0.0960000
        k(   38) = (   0.6000000  -0.2000000   0.8000000), wk =   0.0960000
        k(   39) = (   0.5000000  -0.1000000   0.7000000), wk =   0.0960000
        k(   40) = (   0.4000000   0.0000000   0.6000000), wk =   0.0480000
        k(   41) = (   0.8000000  -0.2000000   1.0000000), wk =   0.0480000
        k(   42) = (   0.7000000  -0.1000000   0.9000000), wk =   0.0960000
        k(   43) = (   0.6000000   0.0000000   0.8000000), wk =   0.0480000
        k(   44) = (  -0.2000000  -1.0000000   0.0000000), wk =   0.0240000
        k(   45) = (   0.6000000  -0.2000000   1.0000000), wk =   0.0480000
        k(   46) = (   0.5000000  -0.1000000   0.9000000), wk =   0.0480000
        k(   47) = (  -0.4000000  -1.0000000   0.0000000), wk =   0.0240000

     Dense  grid:    17153 G-vectors     FFT dimensions: (  36,  36,  36)

     Estimated max dynamical RAM per process >      31.44 MB

     WARNING: libxc functional with ID  263 depends
      on external parameters: check the user_guide of
      QE if you need to modify them or to check their
      default values.

     Initial potential from superposition of free atoms

     starting charge       7.9990, renormalised to       8.0000
     Starting wfcs are   18 randomized atomic wfcs

     total cpu time spent up to now is        8.7 secs

     Self-consistent Calculation

     iteration #  1     ecut=    50.00 Ry     beta= 0.01
     Davidson diagonalization with overlap
     ethr =  1.00E-02,  avg # of iterations =  1.5

     Threshold (ethr) on eigenvalues was too large:
     Diagonalizing with lowered threshold

     Davidson diagonalization with overlap
     ethr =  5.04E-04,  avg # of iterations =  1.9

     total cpu time spent up to now is       20.4 secs

     total energy              =     -15.62923709 Ry
     estimated scf accuracy    <       0.04265540 Ry

     iteration #  2     ecut=    50.00 Ry     beta= 0.01
     Davidson diagonalization with overlap
     ethr =  5.33E-04,  avg # of iterations =  1.0

     total cpu time spent up to now is       25.4 secs

     total energy              =     -15.63369624 Ry
     estimated scf accuracy    <       0.04262872 Ry

     iteration #  3     ecut=    50.00 Ry     beta= 0.01
     Davidson diagonalization with overlap
     ethr =  5.33E-04,  avg # of iterations =  1.0

     total cpu time spent up to now is       30.3 secs

     total energy              =     -15.68358652 Ry
     estimated scf accuracy    <       0.03974330 Ry

     iteration #  4     ecut=    50.00 Ry     beta= 0.01
     Davidson diagonalization with overlap
     ethr =  4.97E-04,  avg # of iterations =  1.0

     total cpu time spent up to now is       35.4 secs

     total energy              =     -15.68548748 Ry
     estimated scf accuracy    <       0.00368183 Ry

     iteration #  5     ecut=    50.00 Ry     beta= 0.01
     Davidson diagonalization with overlap
     ethr =  4.60E-05,  avg # of iterations =  2.1

     total cpu time spent up to now is       39.5 secs

     total energy              =     -15.68596033 Ry
     estimated scf accuracy    <       0.00426387 Ry

     iteration #  6     ecut=    50.00 Ry     beta= 0.01
     Davidson diagonalization with overlap
     ethr =  4.60E-05,  avg # of iterations =  1.0

     total cpu time spent up to now is       43.0 secs

     total energy              =     -15.68511134 Ry
     estimated scf accuracy    <       0.00495089 Ry

     iteration #  7     ecut=    50.00 Ry     beta= 0.01
     Davidson diagonalization with overlap
     ethr =  4.60E-05,  avg # of iterations =  2.0

     total cpu time spent up to now is       46.9 secs

     total energy              =     -15.68554147 Ry
     estimated scf accuracy    <       0.00018747 Ry

     iteration #  8     ecut=    50.00 Ry     beta= 0.01
     Davidson diagonalization with overlap
     ethr =  2.34E-06,  avg # of iterations =  2.5

     total cpu time spent up to now is       50.4 secs

     total energy              =     -15.68561069 Ry
     estimated scf accuracy    <       0.00013854 Ry

     iteration #  9     ecut=    50.00 Ry     beta= 0.01
     Davidson diagonalization with overlap
     ethr =  1.73E-06,  avg # of iterations =  1.0

     total cpu time spent up to now is       52.9 secs

     total energy              =     -15.68563514 Ry
     estimated scf accuracy    <       0.00012979 Ry

     iteration # 10     ecut=    50.00 Ry     beta= 0.01
     Davidson diagonalization with overlap
     ethr =  1.62E-06,  avg # of iterations =  1.0

     total cpu time spent up to now is       55.4 secs

     total energy              =     -15.68568789 Ry
     estimated scf accuracy    <       0.00009734 Ry

     iteration # 11     ecut=    50.00 Ry     beta= 0.01
     Davidson diagonalization with overlap
     ethr =  1.22E-06,  avg # of iterations =  2.0

     total cpu time spent up to now is       58.6 secs

     total energy              =     -15.68570694 Ry
     estimated scf accuracy    <       0.00000273 Ry

     iteration # 12     ecut=    50.00 Ry     beta= 0.01
     Davidson diagonalization with overlap
     ethr =  3.42E-08,  avg # of iterations =  2.3

     total cpu time spent up to now is       62.2 secs

     total energy              =     -15.68570689 Ry
     estimated scf accuracy    <       0.00000382 Ry

     iteration # 13     ecut=    50.00 Ry     beta= 0.01
     Davidson diagonalization with overlap
     ethr =  3.42E-08,  avg # of iterations =  1.0

     total cpu time spent up to now is       64.7 secs

     total energy              =     -15.68570654 Ry
     estimated scf accuracy    <       0.00000294 Ry

     iteration # 14     ecut=    50.00 Ry     beta= 0.01
     Davidson diagonalization with overlap
     ethr =  3.42E-08,  avg # of iterations =  1.0

     total cpu time spent up to now is       67.2 secs

     total energy              =     -15.68570370 Ry
     estimated scf accuracy    <       0.00000345 Ry

     iteration # 15     ecut=    50.00 Ry     beta= 0.01
     Davidson diagonalization with overlap
     ethr =  3.42E-08,  avg # of iterations =  2.1

     total cpu time spent up to now is       70.2 secs

     total energy              =     -15.68570473 Ry
     estimated scf accuracy    <       0.00000151 Ry

     iteration # 16     ecut=    50.00 Ry     beta= 0.01
     Davidson diagonalization with overlap
     ethr =  1.89E-08,  avg # of iterations =  1.0

     total cpu time spent up to now is       71.4 secs

     total energy              =     -15.68570494 Ry
     estimated scf accuracy    <       0.00000159 Ry

     iteration # 17     ecut=    50.00 Ry     beta= 0.01
     Davidson diagonalization with overlap
     ethr =  1.89E-08,  avg # of iterations =  2.1

     total cpu time spent up to now is       73.2 secs

     End of self-consistent calculation

          k = 0.0000 0.0000 0.0000 (  2109 PWs)   bands (ev):

    -7.1796   3.3898   3.3898   3.3898

          k =-0.1000 0.1000-0.1000 (  2130 PWs)   bands (ev):

    -7.0729   2.1666   3.2438   3.2438

          k =-0.2000 0.2000-0.2000 (  2127 PWs)   bands (ev):

    -6.7599   0.5550   2.9422   2.9422

          k =-0.3000 0.3000-0.3000 (  2145 PWs)   bands (ev):

    -6.2699  -0.9256   2.6594   2.6594

          k =-0.4000 0.4000-0.4000 (  2144 PWs)   bands (ev):

    -5.7011  -2.1066   2.4731   2.4731

          k = 0.5000-0.5000 0.5000 (  2138 PWs)   bands (ev):

    -5.3863  -2.6281   2.4090   2.4090

          k = 0.0000 0.2000 0.0000 (  2141 PWs)   bands (ev):

    -7.0370   2.1442   2.9823   2.9823

          k =-0.1000 0.3000-0.1000 (  2142 PWs)   bands (ev):

    -6.7912   0.9099   2.6414   2.6999

          k =-0.2000 0.4000-0.2000 (  2144 PWs)   bands (ev):

    -6.3549  -0.5174   2.3297   2.3709

          k =-0.3000 0.5000-0.3000 (  2142 PWs)   bands (ev):

    -5.7917  -1.7757   1.9874   2.2308

          k = 0.6000-0.4000 0.6000 (  2159 PWs)   bands (ev):

    -5.3301  -2.5627   1.7579   2.2370

          k = 0.5000-0.3000 0.5000 (  2146 PWs)   bands (ev):

    -5.4458  -2.3799   1.6767   2.3829

          k = 0.4000-0.2000 0.4000 (  2151 PWs)   bands (ev):

    -5.9880  -1.3847   1.7638   2.6440

          k = 0.3000-0.1000 0.3000 (  2141 PWs)   bands (ev):

    -6.5210  -0.0597   2.0403   2.9661

          k = 0.2000 0.0000 0.2000 (  2151 PWs)   bands (ev):

    -6.8968   1.2804   2.5639   3.2292

          k = 0.0000 0.4000 0.0000 (  2137 PWs)   bands (ev):

    -6.6127   0.5468   2.2732   2.2732

          k =-0.1000 0.5000-0.1000 (  2139 PWs)   bands (ev):

    -6.2360  -0.4565   1.8471   1.9864

          k =-0.2000 0.6000-0.2000 (  2140 PWs)   bands (ev):

    -5.7014  -1.5752   1.3273   1.8433

          k = 0.7000-0.3000 0.7000 (  2154 PWs)   bands (ev):

    -5.1542  -2.4691   0.9126   1.8628

          k = 0.6000-0.2000 0.6000 (  2151 PWs)   bands (ev):

    -5.0520  -2.6138   0.6945   2.0392

          k = 0.5000-0.1000 0.5000 (  2152 PWs)   bands (ev):

    -5.5320  -1.8819   0.7350   2.3424

          k = 0.4000 0.0000 0.4000 (  2133 PWs)   bands (ev):

    -6.0926  -0.8924   1.1459   2.7012

          k = 0.0000 0.6000 0.0000 (  2149 PWs)   bands (ev):

    -5.9181  -1.0058   1.6708   1.6708

          k =-0.1000 0.7000-0.1000 (  2143 PWs)   bands (ev):

    -5.4254  -1.8368   1.2156   1.4982

          k = 0.8000-0.2000 0.8000 (  2155 PWs)   bands (ev):

    -4.8439  -2.6375   0.6092   1.4943

          k = 0.7000-0.1000 0.7000 (  2152 PWs)   bands (ev):

    -4.5553  -2.9782   0.2025   1.6582

          k = 0.6000-0.0000 0.6000 (  2153 PWs)   bands (ev):

    -4.9665  -2.5015   0.1918   1.9637

          k = 0.0000 0.8000 0.0000 (  2148 PWs)   bands (ev):

    -4.9739  -2.4728   1.2866   1.2866

          k = 0.9000-0.1000 0.9000 (  2161 PWs)   bands (ev):

    -4.3915  -3.1676   0.8922   1.2433

          k = 0.8000 0.0000 0.8000 (  2147 PWs)   bands (ev):

    -4.0646  -3.4823   0.3572   1.3736

          k = 0.0000-1.0000 0.0000 (  2164 PWs)   bands (ev):

    -3.8114  -3.8114   1.1557   1.1557

          k =-0.2000 0.4000 0.0000 (  2140 PWs)   bands (ev):

    -6.4808   0.0288   1.8495   2.6064

          k =-0.3000 0.5000-0.1000 (  2151 PWs)   bands (ev):

    -5.9934  -1.1080   1.3343   2.3282

          k = 0.6000-0.4000 0.8000 (  2153 PWs)   bands (ev):

    -5.4210  -2.1575   1.0838   2.0721

          k = 0.5000-0.3000 0.7000 (  2168 PWs)   bands (ev):

    -5.0966  -2.6524   1.0103   1.9730

          k =-0.2000 0.6000 0.0000 (  2144 PWs)   bands (ev):

    -5.8032  -1.2611   1.2677   1.7890

          k = 0.7000-0.3000 0.9000 (  2153 PWs)   bands (ev):

    -5.2378  -2.1490   0.7758   1.5576

          k = 0.6000-0.2000 0.8000 (  2162 PWs)   bands (ev):

    -4.7604  -2.7891   0.4468   1.5160

          k = 0.5000-0.1000 0.7000 (  2165 PWs)   bands (ev):

    -4.9114  -2.5955   0.3561   1.6913

          k = 0.4000 0.0000 0.6000 (  2154 PWs)   bands (ev):

    -5.4716  -1.8434   0.6170   2.0139

          k = 0.8000-0.2000 1.0000 (  2163 PWs)   bands (ev):

    -4.8904  -2.5516   0.9388   1.1932

          k = 0.7000-0.1000 0.9000 (  2162 PWs)   bands (ev):

    -4.3237  -3.1858   0.4564   1.1251

          k = 0.6000 0.0000 0.8000 (  2158 PWs)   bands (ev):

    -4.3629  -3.1327   0.1598   1.3285

          k =-0.2000-1.0000 0.0000 (  2154 PWs)   bands (ev):

    -3.7858  -3.7858   0.9073   0.9073

          k = 0.6000-0.2000 1.0000 (  2182 PWs)   bands (ev):

    -4.6640  -2.7892   0.4044   1.1563

          k = 0.5000-0.1000 0.9000 (  2168 PWs)   bands (ev):

    -4.2775  -3.2026   0.2953   0.9740

          k =-0.4000-1.0000 0.0000 (  2172 PWs)   bands (ev):

    -3.7426  -3.7426   0.5781   0.5781

     highest occupied level (ev):     3.3898

!    total energy              =     -15.68570604 Ry
     estimated scf accuracy    <       0.00000014 Ry

     The total energy is the sum of the following terms:
     one-electron contribution =       2.75214243 Ry
     hartree contribution      =       1.35803518 Ry
     xc contribution           =      -4.54056464 Ry
     ewald contribution        =     -15.25531901 Ry

     convergence has been achieved in  17 iterations
     Writing meta-gga kinetic term

     Writing all to output data dir ./input_pw/Si/11/pwscf.save/
     Writing meta-gga kinetic term
 
     init_run     :      4.27s CPU      8.65s WALL (       1 calls)
     electrons    :     47.40s CPU     64.56s WALL (       1 calls)

     Called by init_run:
     wfcinit      :      4.15s CPU      8.38s WALL (       1 calls)
     potinit      :      0.04s CPU      0.13s WALL (       1 calls)
     hinit0       :      0.06s CPU      0.11s WALL (       1 calls)

     Called by electrons:
     c_bands      :     38.06s CPU     51.80s WALL (      18 calls)
     sum_band     :      8.38s CPU     11.54s WALL (      18 calls)
     v_of_rho     :      0.53s CPU      0.73s WALL (      18 calls)
     mix_rho      :      0.44s CPU      0.56s WALL (      18 calls)

     Called by c_bands:
     init_us_2    :      0.44s CPU      0.69s WALL (    1739 calls)
     init_us_2:cp :      0.43s CPU      0.68s WALL (    1739 calls)
     cegterg      :     37.53s CPU     51.12s WALL (     846 calls)

     Called by *egterg:
     cdiaghg      :      0.14s CPU      0.16s WALL (    2095 calls)
     h_psi        :     40.83s CPU     58.13s WALL (    2189 calls)
     g_psi        :      0.03s CPU      0.06s WALL (    1296 calls)

     Called by h_psi:
     h_psi:calbec :      0.18s CPU      0.27s WALL (    2189 calls)
     vloc_psi     :     10.09s CPU     14.47s WALL (    2189 calls)
     add_vuspsi   :      0.14s CPU      0.18s WALL (    2189 calls)
     h_psi_meta   :     30.36s CPU     43.10s WALL (    2189 calls)

     General routines
     calbec       :      0.17s CPU      0.26s WALL (    2189 calls)
     fft          :      0.11s CPU      0.19s WALL (     215 calls)
     ffts         :      0.16s CPU      0.17s WALL (     310 calls)
     fftw         :     41.97s CPU     59.51s WALL (   85560 calls)
     interpolate  :      0.00s CPU      0.00s WALL (      18 calls)
 
     Parallel routines
 
     PWSCF        :     51.71s CPU   1m13.26s WALL

 
   This run was terminated on:  11:32:19  29Mar2023            

=------------------------------------------------------------------------------=
   JOB DONE.
=------------------------------------------------------------------------------=
