
     Program PWSCF v.7.0 starts on 21Feb2023 at 12:49:41 

     This program is part of the open-source Quantum ESPRESSO suite
     for quantum simulation of materials; please cite
         "P. Giannozzi et al., J. Phys.:Condens. Matter 21 395502 (2009);
         "P. Giannozzi et al., J. Phys.:Condens. Matter 29 465901 (2017);
         "P. Giannozzi et al., J. Chem. Phys. 152 154105 (2020);
          URL http://www.quantum-espresso.org", 
     in publications or presentations arising from this work. More details at
     http://www.quantum-espresso.org/quote

     Parallel version (MPI), running on     1 processors

     MPI processes distributed on     1 nodes
     2911 MiB available memory on the printing compute node when the environment starts
 
     Waiting for input...
     Reading input from standard input
Warning: card &CELL ignored
Warning: card / ignored

     Current dimensions of program PWSCF are:
     Max number of different atomic species (ntypx) = 10
     Max number of k-points (npk) =  40000
     Max angular momentum in pseudopotentials (lmaxx) =  4
     file Si.SCAN.UPF2: wavefunction(s)  0D renormalized

     WARNING: the MGGA functional with ID    5 has been 
     read together with other dft terms, but it should 
     stand alone in order to work properly. The other 
     terms will be ignored.

     Subspace diagonalization in iterative solution of the eigenvalue problem:
     a serial algorithm will be used

 
     G-vector sticks info
     --------------------
     sticks:   dense  smooth     PW     G-vecs:    dense   smooth      PW
     Sum         859     859    253                16865    16865    2741
 
     Using Slab Decomposition
 


     bravais-lattice index     =            2
     lattice parameter (alat)  =      11.2046  a.u.
     unit-cell volume          =     351.6649 (a.u.)^3
     number of atoms/cell      =            2
     number of atomic types    =            1
     number of electrons       =         8.00
     number of Kohn-Sham states=            4
     kinetic-energy cutoff     =      50.0000  Ry
     charge density cutoff     =     200.0000  Ry
     scf convergence threshold =      1.0E-06
     mixing beta               =       0.0100
     number of iterations used =            8  local-TF  mixing
     Exchange-correlation= SLA  PW   SCAN SCAN
                           (   0   0   0   0   0 263 267)

     celldm(1)=  11.204600  celldm(2)=   0.000000  celldm(3)=   0.000000
     celldm(4)=   0.000000  celldm(5)=   0.000000  celldm(6)=   0.000000

     crystal axes: (cart. coord. in units of alat)
               a(1) = (  -0.500000   0.000000   0.500000 )  
               a(2) = (   0.000000   0.500000   0.500000 )  
               a(3) = (  -0.500000   0.500000   0.000000 )  

     reciprocal axes: (cart. coord. in units 2 pi/alat)
               b(1) = ( -1.000000 -1.000000  1.000000 )  
               b(2) = (  1.000000  1.000000  1.000000 )  
               b(3) = ( -1.000000  1.000000 -1.000000 )  


     PseudoPot. # 1 for Si read from file:
     ~/Documents/TA/PWDFT.jl/pseudopotentials/scan_upf/Si.SCAN.UPF2
     MD5 check sum: Not computed, couldn't open file
     Pseudo is Norm-conserving, Zval =  4.0
     Generated by new atomic code, or converted to UPF format
     Using radial grid of 1475 points,  2 beta functions with: 
                l(1) =   0
                l(2) =   1

     atomic species   valence    mass     pseudopotential
        Si             4.00    28.08550     Si( 1.00)

     48 Sym. Ops., with inversion, found (24 have fractional translation)



   Cartesian axes

     site n.     atom                  positions (alat units)
         1           Si  tau(   1) = (   0.0000000   0.0000000   0.0000000  )
         2           Si  tau(   2) = (   0.2500000   0.2500000   0.2500000  )

     number of k points=    47
                       cart. coord. in units 2pi/alat
        k(    1) = (   0.0000000   0.0000000   0.0000000), wk =   0.0020000
        k(    2) = (  -0.1000000   0.1000000  -0.1000000), wk =   0.0160000
        k(    3) = (  -0.2000000   0.2000000  -0.2000000), wk =   0.0160000
        k(    4) = (  -0.3000000   0.3000000  -0.3000000), wk =   0.0160000
        k(    5) = (  -0.4000000   0.4000000  -0.4000000), wk =   0.0160000
        k(    6) = (   0.5000000  -0.5000000   0.5000000), wk =   0.0080000
        k(    7) = (   0.0000000   0.2000000   0.0000000), wk =   0.0120000
        k(    8) = (  -0.1000000   0.3000000  -0.1000000), wk =   0.0480000
        k(    9) = (  -0.2000000   0.4000000  -0.2000000), wk =   0.0480000
        k(   10) = (  -0.3000000   0.5000000  -0.3000000), wk =   0.0480000
        k(   11) = (   0.6000000  -0.4000000   0.6000000), wk =   0.0480000
        k(   12) = (   0.5000000  -0.3000000   0.5000000), wk =   0.0480000
        k(   13) = (   0.4000000  -0.2000000   0.4000000), wk =   0.0480000
        k(   14) = (   0.3000000  -0.1000000   0.3000000), wk =   0.0480000
        k(   15) = (   0.2000000   0.0000000   0.2000000), wk =   0.0240000
        k(   16) = (   0.0000000   0.4000000   0.0000000), wk =   0.0120000
        k(   17) = (  -0.1000000   0.5000000  -0.1000000), wk =   0.0480000
        k(   18) = (  -0.2000000   0.6000000  -0.2000000), wk =   0.0480000
        k(   19) = (   0.7000000  -0.3000000   0.7000000), wk =   0.0480000
        k(   20) = (   0.6000000  -0.2000000   0.6000000), wk =   0.0480000
        k(   21) = (   0.5000000  -0.1000000   0.5000000), wk =   0.0480000
        k(   22) = (   0.4000000   0.0000000   0.4000000), wk =   0.0240000
        k(   23) = (   0.0000000   0.6000000   0.0000000), wk =   0.0120000
        k(   24) = (  -0.1000000   0.7000000  -0.1000000), wk =   0.0480000
        k(   25) = (   0.8000000  -0.2000000   0.8000000), wk =   0.0480000
        k(   26) = (   0.7000000  -0.1000000   0.7000000), wk =   0.0480000
        k(   27) = (   0.6000000  -0.0000000   0.6000000), wk =   0.0240000
        k(   28) = (   0.0000000   0.8000000   0.0000000), wk =   0.0120000
        k(   29) = (   0.9000000  -0.1000000   0.9000000), wk =   0.0480000
        k(   30) = (   0.8000000   0.0000000   0.8000000), wk =   0.0240000
        k(   31) = (   0.0000000  -1.0000000   0.0000000), wk =   0.0060000
        k(   32) = (  -0.2000000   0.4000000   0.0000000), wk =   0.0480000
        k(   33) = (  -0.3000000   0.5000000  -0.1000000), wk =   0.0960000
        k(   34) = (   0.6000000  -0.4000000   0.8000000), wk =   0.0960000
        k(   35) = (   0.5000000  -0.3000000   0.7000000), wk =   0.0480000
        k(   36) = (  -0.2000000   0.6000000   0.0000000), wk =   0.0480000
        k(   37) = (   0.7000000  -0.3000000   0.9000000), wk =   0.0960000
        k(   38) = (   0.6000000  -0.2000000   0.8000000), wk =   0.0960000
        k(   39) = (   0.5000000  -0.1000000   0.7000000), wk =   0.0960000
        k(   40) = (   0.4000000   0.0000000   0.6000000), wk =   0.0480000
        k(   41) = (   0.8000000  -0.2000000   1.0000000), wk =   0.0480000
        k(   42) = (   0.7000000  -0.1000000   0.9000000), wk =   0.0960000
        k(   43) = (   0.6000000   0.0000000   0.8000000), wk =   0.0480000
        k(   44) = (  -0.2000000  -1.0000000   0.0000000), wk =   0.0240000
        k(   45) = (   0.6000000  -0.2000000   1.0000000), wk =   0.0480000
        k(   46) = (   0.5000000  -0.1000000   0.9000000), wk =   0.0480000
        k(   47) = (  -0.4000000  -1.0000000   0.0000000), wk =   0.0240000

     Dense  grid:    16865 G-vectors     FFT dimensions: (  36,  36,  36)

     Estimated max dynamical RAM per process >      30.95 MB

     WARNING: libxc functional with ID  263 depends
      on external parameters: check the user_guide of
      QE if you need to modify them or to check their
      default values.

     Initial potential from superposition of free atoms

     starting charge       7.9990, renormalised to       8.0000
     Starting wfcs are   18 randomized atomic wfcs

     total cpu time spent up to now is        8.7 secs

     Self-consistent Calculation

     iteration #  1     ecut=    50.00 Ry     beta= 0.01
     Davidson diagonalization with overlap
     ethr =  1.00E-02,  avg # of iterations =  1.5

     Threshold (ethr) on eigenvalues was too large:
     Diagonalizing with lowered threshold

     Davidson diagonalization with overlap
     ethr =  5.20E-04,  avg # of iterations =  1.9

     total cpu time spent up to now is       19.6 secs

     total energy              =     -15.63426656 Ry
     estimated scf accuracy    <       0.04404828 Ry

     iteration #  2     ecut=    50.00 Ry     beta= 0.01
     Davidson diagonalization with overlap
     ethr =  5.51E-04,  avg # of iterations =  1.0

     total cpu time spent up to now is       24.6 secs

     total energy              =     -15.63956380 Ry
     estimated scf accuracy    <       0.04400345 Ry

     iteration #  3     ecut=    50.00 Ry     beta= 0.01
     Davidson diagonalization with overlap
     ethr =  5.50E-04,  avg # of iterations =  1.0

     total cpu time spent up to now is       29.0 secs

     total energy              =     -15.69285317 Ry
     estimated scf accuracy    <       0.03937244 Ry

     iteration #  4     ecut=    50.00 Ry     beta= 0.01
     Davidson diagonalization with overlap
     ethr =  4.92E-04,  avg # of iterations =  1.0

     total cpu time spent up to now is       34.0 secs

     total energy              =     -15.69486458 Ry
     estimated scf accuracy    <       0.00375886 Ry

     iteration #  5     ecut=    50.00 Ry     beta= 0.01
     Davidson diagonalization with overlap
     ethr =  4.70E-05,  avg # of iterations =  2.1

     total cpu time spent up to now is       39.0 secs

     total energy              =     -15.69546940 Ry
     estimated scf accuracy    <       0.00425559 Ry

     iteration #  6     ecut=    50.00 Ry     beta= 0.01
     Davidson diagonalization with overlap
     ethr =  4.70E-05,  avg # of iterations =  1.0

     total cpu time spent up to now is       41.4 secs

     total energy              =     -15.69438501 Ry
     estimated scf accuracy    <       0.00540637 Ry

     iteration #  7     ecut=    50.00 Ry     beta= 0.01
     Davidson diagonalization with overlap
     ethr =  4.70E-05,  avg # of iterations =  2.0

     total cpu time spent up to now is       45.3 secs

     total energy              =     -15.69498752 Ry
     estimated scf accuracy    <       0.00007743 Ry

     iteration #  8     ecut=    50.00 Ry     beta= 0.01
     Davidson diagonalization with overlap
     ethr =  9.68E-07,  avg # of iterations =  2.8

     total cpu time spent up to now is       49.3 secs

     total energy              =     -15.69502415 Ry
     estimated scf accuracy    <       0.00009704 Ry

     iteration #  9     ecut=    50.00 Ry     beta= 0.01
     Davidson diagonalization with overlap
     ethr =  9.68E-07,  avg # of iterations =  1.0

     total cpu time spent up to now is       52.1 secs

     total energy              =     -15.69507928 Ry
     estimated scf accuracy    <       0.00009215 Ry

     iteration # 10     ecut=    50.00 Ry     beta= 0.01
     Davidson diagonalization with overlap
     ethr =  9.68E-07,  avg # of iterations =  2.0

     total cpu time spent up to now is       55.8 secs

     total energy              =     -15.69509871 Ry
     estimated scf accuracy    <       0.00001377 Ry

     iteration # 11     ecut=    50.00 Ry     beta= 0.01
     Davidson diagonalization with overlap
     ethr =  1.72E-07,  avg # of iterations =  2.0

     total cpu time spent up to now is       59.4 secs

     total energy              =     -15.69510077 Ry
     estimated scf accuracy    <       0.00000203 Ry

     iteration # 12     ecut=    50.00 Ry     beta= 0.01
     Davidson diagonalization with overlap
     ethr =  2.53E-08,  avg # of iterations =  1.0

     total cpu time spent up to now is       62.1 secs

     total energy              =     -15.69510050 Ry
     estimated scf accuracy    <       0.00000131 Ry

     iteration # 13     ecut=    50.00 Ry     beta= 0.01
     Davidson diagonalization with overlap
     ethr =  1.64E-08,  avg # of iterations =  2.1

     total cpu time spent up to now is       64.5 secs

     End of self-consistent calculation

          k = 0.0000 0.0000 0.0000 (  2085 PWs)   bands (ev):

    -7.1076   3.5926   3.5926   3.5926

          k =-0.1000 0.1000-0.1000 (  2091 PWs)   bands (ev):

    -6.9984   2.4031   3.4429   3.4429

          k =-0.2000 0.2000-0.2000 (  2094 PWs)   bands (ev):

    -6.6779   0.7647   3.1346   3.1346

          k =-0.3000 0.3000-0.3000 (  2093 PWs)   bands (ev):

    -6.1755  -0.7484   2.8465   2.8465

          k =-0.4000 0.4000-0.4000 (  2087 PWs)   bands (ev):

    -5.5899  -1.9592   2.6570   2.6570

          k = 0.5000-0.5000 0.5000 (  2120 PWs)   bands (ev):

    -5.2635  -2.4967   2.5919   2.5919

          k = 0.0000 0.2000 0.0000 (  2085 PWs)   bands (ev):

    -6.9616   2.4014   3.1730   3.1730

          k =-0.1000 0.3000-0.1000 (  2088 PWs)   bands (ev):

    -6.7101   1.1398   2.8240   2.8915

          k =-0.2000 0.4000-0.2000 (  2087 PWs)   bands (ev):

    -6.2630  -0.3228   2.5168   2.5484

          k =-0.3000 0.5000-0.3000 (  2097 PWs)   bands (ev):

    -5.6843  -1.6134   2.1685   2.4067

          k = 0.6000-0.4000 0.6000 (  2092 PWs)   bands (ev):

    -5.2070  -2.4238   1.9338   2.4143

          k = 0.5000-0.3000 0.5000 (  2098 PWs)   bands (ev):

    -5.3270  -2.2352   1.8486   2.5645

          k = 0.4000-0.2000 0.4000 (  2101 PWs)   bands (ev):

    -5.8863  -1.2121   1.9338   2.8320

          k = 0.3000-0.1000 0.3000 (  2095 PWs)   bands (ev):

    -6.4333   0.1463   2.2108   3.1613

          k = 0.2000 0.0000 0.2000 (  2095 PWs)   bands (ev):

    -6.8182   1.5145   2.7426   3.4299

          k = 0.0000 0.4000 0.0000 (  2073 PWs)   bands (ev):

    -6.5275   0.7883   2.4465   2.4465

          k =-0.1000 0.5000-0.1000 (  2086 PWs)   bands (ev):

    -6.1418  -0.2393   2.0132   2.1535

          k =-0.2000 0.6000-0.2000 (  2106 PWs)   bands (ev):

    -5.5933  -1.3889   1.4841   2.0082

          k = 0.7000-0.3000 0.7000 (  2098 PWs)   bands (ev):

    -5.0293  -2.3101   1.0609   2.0294

          k = 0.6000-0.2000 0.6000 (  2092 PWs)   bands (ev):

    -4.9230  -2.4601   0.8358   2.2109

          k = 0.5000-0.1000 0.5000 (  2100 PWs)   bands (ev):

    -5.4184  -1.7054   0.8719   2.5220

          k = 0.4000 0.0000 0.4000 (  2099 PWs)   bands (ev):

    -5.9942  -0.6920   1.2887   2.8901

          k = 0.0000 0.6000 0.0000 (  2089 PWs)   bands (ev):

    -5.8167  -0.7926   1.8306   1.8306

          k =-0.1000 0.7000-0.1000 (  2099 PWs)   bands (ev):

    -5.3119  -1.6421   1.3626   1.6546

          k = 0.8000-0.2000 0.8000 (  2105 PWs)   bands (ev):

    -4.7143  -2.4631   0.7382   1.6513

          k = 0.7000-0.1000 0.7000 (  2110 PWs)   bands (ev):

    -4.4148  -2.8155   0.3190   1.8197

          k = 0.6000-0.0000 0.6000 (  2101 PWs)   bands (ev):

    -4.8376  -2.3282   0.3074   2.1332

          k = 0.0000 0.8000 0.0000 (  2104 PWs)   bands (ev):

    -4.8503  -2.2910   1.4384   1.4384

          k = 0.9000-0.1000 0.9000 (  2101 PWs)   bands (ev):

    -4.2533  -3.0012   1.0301   1.3944

          k = 0.8000 0.0000 0.8000 (  2103 PWs)   bands (ev):

    -3.9139  -3.3257   0.4761   1.5280

          k = 0.0000-1.0000 0.0000 (  2100 PWs)   bands (ev):

    -3.6604  -3.6604   1.3047   1.3047

          k =-0.2000 0.4000 0.0000 (  2089 PWs)   bands (ev):

    -6.3923   0.2493   2.0106   2.7939

          k =-0.3000 0.5000-0.1000 (  2097 PWs)   bands (ev):

    -5.8925  -0.9148   1.4875   2.5077

          k = 0.6000-0.4000 0.8000 (  2103 PWs)   bands (ev):

    -5.3037  -1.9943   1.2375   2.2437

          k = 0.5000-0.3000 0.7000 (  2098 PWs)   bands (ev):

    -4.9677  -2.5055   1.1648   2.1414

          k =-0.2000 0.6000 0.0000 (  2096 PWs)   bands (ev):

    -5.6985  -1.0572   1.4151   1.9523

          k = 0.7000-0.3000 0.9000 (  2103 PWs)   bands (ev):

    -5.1181  -1.9664   0.9118   1.7133

          k = 0.6000-0.2000 0.8000 (  2101 PWs)   bands (ev):

    -4.6253  -2.6262   0.5752   1.6704

          k = 0.5000-0.1000 0.7000 (  2106 PWs)   bands (ev):

    -4.7808  -2.4269   0.4800   1.8510

          k = 0.4000 0.0000 0.6000 (  2099 PWs)   bands (ev):

    -5.3573  -1.6564   0.7457   2.1833

          k = 0.8000-0.2000 1.0000 (  2093 PWs)   bands (ev):

    -4.7637  -2.3712   1.0783   1.3389

          k = 0.7000-0.1000 0.9000 (  2117 PWs)   bands (ev):

    -4.1809  -3.0200   0.5789   1.2689

          k = 0.6000 0.0000 0.8000 (  2113 PWs)   bands (ev):

    -4.2183  -2.9683   0.2726   1.4780

          k =-0.2000-1.0000 0.0000 (  2108 PWs)   bands (ev):

    -3.6328  -3.6328   1.0456   1.0456

          k = 0.6000-0.2000 1.0000 (  2107 PWs)   bands (ev):

    -4.5291  -2.6150   0.5261   1.2985

          k = 0.5000-0.1000 0.9000 (  2120 PWs)   bands (ev):

    -4.1313  -3.0379   0.4130   1.1104

          k =-0.4000-1.0000 0.0000 (  2134 PWs)   bands (ev):

    -3.5861  -3.5861   0.7030   0.7030

     highest occupied level (ev):     3.5926

!    total energy              =     -15.69510085 Ry
     estimated scf accuracy    <       0.00000002 Ry

     The total energy is the sum of the following terms:
     one-electron contribution =       2.91960463 Ry
     hartree contribution      =       1.33466717 Ry
     xc contribution           =      -4.56483972 Ry
     ewald contribution        =     -15.38453294 Ry

     convergence has been achieved in  13 iterations
     Writing meta-gga kinetic term

     Writing all to output data dir ./input_pw/Si/11/pwscf.save/
     Writing meta-gga kinetic term
 
     init_run     :      4.15s CPU      8.66s WALL (       1 calls)
     electrons    :     37.42s CPU     55.73s WALL (       1 calls)

     Called by init_run:
     wfcinit      :      4.04s CPU      8.35s WALL (       1 calls)
     potinit      :      0.03s CPU      0.11s WALL (       1 calls)
     hinit0       :      0.06s CPU      0.16s WALL (       1 calls)

     Called by electrons:
     c_bands      :     30.04s CPU     45.01s WALL (      14 calls)
     sum_band     :      6.63s CPU      9.69s WALL (      14 calls)
     v_of_rho     :      0.42s CPU      0.64s WALL (      14 calls)
     mix_rho      :      0.33s CPU      0.47s WALL (      14 calls)

     Called by c_bands:
     init_us_2    :      0.34s CPU      0.57s WALL (    1363 calls)
     init_us_2:cp :      0.34s CPU      0.56s WALL (    1363 calls)
     cegterg      :     29.64s CPU     44.35s WALL (     658 calls)

     Called by *egterg:
     cdiaghg      :      0.11s CPU      0.18s WALL (    1666 calls)
     h_psi        :     32.99s CPU     51.45s WALL (    1760 calls)
     g_psi        :      0.02s CPU      0.05s WALL (    1055 calls)

     Called by h_psi:
     h_psi:calbec :      0.14s CPU      0.28s WALL (    1760 calls)
     vloc_psi     :      8.14s CPU     12.62s WALL (    1760 calls)
     add_vuspsi   :      0.11s CPU      0.13s WALL (    1760 calls)
     h_psi_meta   :     24.55s CPU     38.37s WALL (    1760 calls)

     General routines
     calbec       :      0.13s CPU      0.27s WALL (    1760 calls)
     fft          :      0.08s CPU      0.17s WALL (     167 calls)
     ffts         :      0.12s CPU      0.21s WALL (     234 calls)
     fftw         :     34.03s CPU     52.52s WALL (   68568 calls)
     interpolate  :      0.00s CPU      0.00s WALL (      14 calls)
 
     Parallel routines
 
     PWSCF        :     41.59s CPU   1m 4.47s WALL

 
   This run was terminated on:  12:50:45  21Feb2023            

=------------------------------------------------------------------------------=
   JOB DONE.
=------------------------------------------------------------------------------=
