
     Program PWSCF v.7.0 starts on 14Mar2023 at 12: 2:31 

     This program is part of the open-source Quantum ESPRESSO suite
     for quantum simulation of materials; please cite
         "P. Giannozzi et al., J. Phys.:Condens. Matter 21 395502 (2009);
         "P. Giannozzi et al., J. Phys.:Condens. Matter 29 465901 (2017);
         "P. Giannozzi et al., J. Chem. Phys. 152 154105 (2020);
          URL http://www.quantum-espresso.org", 
     in publications or presentations arising from this work. More details at
     http://www.quantum-espresso.org/quote

     Parallel version (MPI), running on     1 processors

     MPI processes distributed on     1 nodes
     26852 MiB available memory on the printing compute node when the environment starts
 
     Waiting for input...
     Reading input from standard input
Warning: card &CELL ignored
Warning: card / ignored

     Current dimensions of program PWSCF are:
     Max number of different atomic species (ntypx) = 10
     Max number of k-points (npk) =  40000
     Max angular momentum in pseudopotentials (lmaxx) =  4
     file Si.SCAN.UPF2: wavefunction(s)  0D renormalized

     WARNING: the MGGA functional with ID    5 has been 
     read together with other dft terms, but it should 
     stand alone in order to work properly. The other 
     terms will be ignored.

     WARNING: the MGGA functional with ID    5 has been 
     read together with other dft terms, but it should 
     stand alone in order to work properly. The other 
     terms will be ignored.

     Subspace diagonalization in iterative solution of the eigenvalue problem:
     a serial algorithm will be used

 
     G-vector sticks info
     --------------------
     sticks:   dense  smooth     PW     G-vecs:    dense   smooth      PW
     Sum        1201    1201    361                27581    27581    4477
 
     Using Slab Decomposition
 


     bravais-lattice index     =            2
     lattice parameter (alat)  =      13.2320  a.u.
     unit-cell volume          =     579.1839 (a.u.)^3
     number of atoms/cell      =            2
     number of atomic types    =            2
     number of electrons       =         8.00
     number of Kohn-Sham states=            4
     kinetic-energy cutoff     =      50.0000  Ry
     charge density cutoff     =     200.0000  Ry
     scf convergence threshold =      1.0E-06
     mixing beta               =       0.0100
     number of iterations used =            8  local-TF  mixing
     Exchange-correlation= SLA  PW   SCAN SCAN
                           (   0   0   0   0   0 263 267)

     celldm(1)=  13.232000  celldm(2)=   0.000000  celldm(3)=   0.000000
     celldm(4)=   0.000000  celldm(5)=   0.000000  celldm(6)=   0.000000

     crystal axes: (cart. coord. in units of alat)
               a(1) = (  -0.500000   0.000000   0.500000 )  
               a(2) = (   0.000000   0.500000   0.500000 )  
               a(3) = (  -0.500000   0.500000   0.000000 )  

     reciprocal axes: (cart. coord. in units 2 pi/alat)
               b(1) = ( -1.000000 -1.000000  1.000000 )  
               b(2) = (  1.000000  1.000000  1.000000 )  
               b(3) = ( -1.000000  1.000000 -1.000000 )  


     PseudoPot. # 1 for Si read from file:
     ~/Documents/TA/PWDFT.jl/pseudopotentials/scan_upf/Si.SCAN.UPF2
     MD5 check sum: Not computed, couldn't open file
     Pseudo is Norm-conserving, Zval =  4.0
     Generated by new atomic code, or converted to UPF format
     Using radial grid of 1475 points,  2 beta functions with: 
                l(1) =   0
                l(2) =   1

     PseudoPot. # 2 for C  read from file:
     ~/Documents/TA/PWDFT.jl/pseudopotentials/scan_upf/C.SCAN.UPF2
     MD5 check sum: Not computed, couldn't open file
     Pseudo is Norm-conserving, Zval =  4.0
     Generated by new atomic code, or converted to UPF format
     Using radial grid of 1389 points,  1 beta functions with: 
                l(1) =   0

     atomic species   valence    mass     pseudopotential
        Si             4.00    28.08550     Si( 1.00)
        C              4.00    12.01100     C ( 1.00)

     24 Sym. Ops. (no inversion) found



   Cartesian axes

     site n.     atom                  positions (alat units)
         1           Si  tau(   1) = (   0.0000000   0.0000000   0.0000000  )
         2           C   tau(   2) = (   0.2500000   0.2500000   0.2500000  )

     number of k points=    47
                       cart. coord. in units 2pi/alat
        k(    1) = (   0.0000000   0.0000000   0.0000000), wk =   0.0020000
        k(    2) = (  -0.1000000   0.1000000  -0.1000000), wk =   0.0160000
        k(    3) = (  -0.2000000   0.2000000  -0.2000000), wk =   0.0160000
        k(    4) = (  -0.3000000   0.3000000  -0.3000000), wk =   0.0160000
        k(    5) = (  -0.4000000   0.4000000  -0.4000000), wk =   0.0160000
        k(    6) = (   0.5000000  -0.5000000   0.5000000), wk =   0.0080000
        k(    7) = (   0.0000000   0.2000000   0.0000000), wk =   0.0120000
        k(    8) = (  -0.1000000   0.3000000  -0.1000000), wk =   0.0480000
        k(    9) = (  -0.2000000   0.4000000  -0.2000000), wk =   0.0480000
        k(   10) = (  -0.3000000   0.5000000  -0.3000000), wk =   0.0480000
        k(   11) = (   0.6000000  -0.4000000   0.6000000), wk =   0.0480000
        k(   12) = (   0.5000000  -0.3000000   0.5000000), wk =   0.0480000
        k(   13) = (   0.4000000  -0.2000000   0.4000000), wk =   0.0480000
        k(   14) = (   0.3000000  -0.1000000   0.3000000), wk =   0.0480000
        k(   15) = (   0.2000000   0.0000000   0.2000000), wk =   0.0240000
        k(   16) = (   0.0000000   0.4000000   0.0000000), wk =   0.0120000
        k(   17) = (  -0.1000000   0.5000000  -0.1000000), wk =   0.0480000
        k(   18) = (  -0.2000000   0.6000000  -0.2000000), wk =   0.0480000
        k(   19) = (   0.7000000  -0.3000000   0.7000000), wk =   0.0480000
        k(   20) = (   0.6000000  -0.2000000   0.6000000), wk =   0.0480000
        k(   21) = (   0.5000000  -0.1000000   0.5000000), wk =   0.0480000
        k(   22) = (   0.4000000   0.0000000   0.4000000), wk =   0.0240000
        k(   23) = (   0.0000000   0.6000000   0.0000000), wk =   0.0120000
        k(   24) = (  -0.1000000   0.7000000  -0.1000000), wk =   0.0480000
        k(   25) = (   0.8000000  -0.2000000   0.8000000), wk =   0.0480000
        k(   26) = (   0.7000000  -0.1000000   0.7000000), wk =   0.0480000
        k(   27) = (   0.6000000  -0.0000000   0.6000000), wk =   0.0240000
        k(   28) = (   0.0000000   0.8000000   0.0000000), wk =   0.0120000
        k(   29) = (   0.9000000  -0.1000000   0.9000000), wk =   0.0480000
        k(   30) = (   0.8000000   0.0000000   0.8000000), wk =   0.0240000
        k(   31) = (   0.0000000  -1.0000000   0.0000000), wk =   0.0060000
        k(   32) = (  -0.2000000   0.4000000   0.0000000), wk =   0.0480000
        k(   33) = (  -0.3000000   0.5000000  -0.1000000), wk =   0.0960000
        k(   34) = (   0.6000000  -0.4000000   0.8000000), wk =   0.0960000
        k(   35) = (   0.5000000  -0.3000000   0.7000000), wk =   0.0480000
        k(   36) = (  -0.2000000   0.6000000   0.0000000), wk =   0.0480000
        k(   37) = (   0.7000000  -0.3000000   0.9000000), wk =   0.0960000
        k(   38) = (   0.6000000  -0.2000000   0.8000000), wk =   0.0960000
        k(   39) = (   0.5000000  -0.1000000   0.7000000), wk =   0.0960000
        k(   40) = (   0.4000000   0.0000000   0.6000000), wk =   0.0480000
        k(   41) = (   0.8000000  -0.2000000   1.0000000), wk =   0.0480000
        k(   42) = (   0.7000000  -0.1000000   0.9000000), wk =   0.0960000
        k(   43) = (   0.6000000   0.0000000   0.8000000), wk =   0.0480000
        k(   44) = (  -0.2000000  -1.0000000   0.0000000), wk =   0.0240000
        k(   45) = (   0.6000000  -0.2000000   1.0000000), wk =   0.0480000
        k(   46) = (   0.5000000  -0.1000000   0.9000000), wk =   0.0480000
        k(   47) = (  -0.4000000  -1.0000000   0.0000000), wk =   0.0240000

     Dense  grid:    27581 G-vectors     FFT dimensions: (  45,  45,  45)

     Estimated max dynamical RAM per process >      53.11 MB

     WARNING: libxc functional with ID  263 depends
      on external parameters: check the user_guide of
      QE if you need to modify them or to check their
      default values.

     Initial potential from superposition of free atoms

     starting charge       7.9995, renormalised to       8.0000
     Starting wfcs are   13 randomized atomic wfcs

     total cpu time spent up to now is       16.4 secs

     Self-consistent Calculation

     iteration #  1     ecut=    50.00 Ry     beta= 0.01
     Davidson diagonalization with overlap
     ethr =  1.00E-02,  avg # of iterations =  1.0

     total cpu time spent up to now is       29.0 secs

     total energy              =     -18.55502927 Ry
     estimated scf accuracy    <       0.69693986 Ry

     iteration #  2     ecut=    50.00 Ry     beta= 0.01
     Davidson diagonalization with overlap
     ethr =  8.71E-03,  avg # of iterations =  1.0

     total cpu time spent up to now is       42.2 secs

     total energy              =     -18.52979062 Ry
     estimated scf accuracy    <       0.68160606 Ry

     iteration #  3     ecut=    50.00 Ry     beta= 0.01
     Davidson diagonalization with overlap
     ethr =  8.52E-03,  avg # of iterations =  1.0

     total cpu time spent up to now is       53.9 secs

     total energy              =     -18.53824368 Ry
     estimated scf accuracy    <       0.05444449 Ry

     iteration #  4     ecut=    50.00 Ry     beta= 0.01
     Davidson diagonalization with overlap
     ethr =  6.81E-04,  avg # of iterations =  4.0

     total cpu time spent up to now is       69.6 secs

     total energy              =     -18.56503360 Ry
     estimated scf accuracy    <       0.15076275 Ry

     iteration #  5     ecut=    50.00 Ry     beta= 0.01
     Davidson diagonalization with overlap
     ethr =  6.81E-04,  avg # of iterations =  1.0

     total cpu time spent up to now is       77.3 secs

     total energy              =     -18.56635247 Ry
     estimated scf accuracy    <       0.15911408 Ry

     iteration #  6     ecut=    50.00 Ry     beta= 0.01
     Davidson diagonalization with overlap
     ethr =  6.81E-04,  avg # of iterations =  1.0

     total cpu time spent up to now is       83.4 secs

     total energy              =     -18.56830726 Ry
     estimated scf accuracy    <       0.16973823 Ry

     iteration #  7     ecut=    50.00 Ry     beta= 0.01
     Davidson diagonalization with overlap
     ethr =  6.81E-04,  avg # of iterations =  1.0

     total cpu time spent up to now is       89.1 secs

     total energy              =     -18.54806803 Ry
     estimated scf accuracy    <       0.20582641 Ry

     iteration #  8     ecut=    50.00 Ry     beta= 0.01
     Davidson diagonalization with overlap
     ethr =  6.81E-04,  avg # of iterations =  1.0

     total cpu time spent up to now is       94.6 secs

     total energy              =     -18.54917476 Ry
     estimated scf accuracy    <       0.10354932 Ry

     iteration #  9     ecut=    50.00 Ry     beta= 0.01
     Davidson diagonalization with overlap
     ethr =  6.81E-04,  avg # of iterations =  1.0

     total cpu time spent up to now is       98.8 secs

     total energy              =     -18.55248630 Ry
     estimated scf accuracy    <       0.10077773 Ry

     iteration # 10     ecut=    50.00 Ry     beta= 0.01
     Davidson diagonalization with overlap
     ethr =  6.81E-04,  avg # of iterations =  1.0

     total cpu time spent up to now is      102.4 secs

     total energy              =     -18.54857042 Ry
     estimated scf accuracy    <       0.10245426 Ry

     iteration # 11     ecut=    50.00 Ry     beta= 0.01
     Davidson diagonalization with overlap
     ethr =  6.81E-04,  avg # of iterations =  1.0

     total cpu time spent up to now is      107.8 secs

     total energy              =     -18.54598479 Ry
     estimated scf accuracy    <       0.08140170 Ry

     iteration # 12     ecut=    50.00 Ry     beta= 0.01
     Davidson diagonalization with overlap
     ethr =  6.81E-04,  avg # of iterations =  1.0

     total cpu time spent up to now is      113.3 secs

     total energy              =     -18.54437572 Ry
     estimated scf accuracy    <       0.04388113 Ry

     iteration # 13     ecut=    50.00 Ry     beta= 0.01
     Davidson diagonalization with overlap
     ethr =  5.49E-04,  avg # of iterations =  1.0

     total cpu time spent up to now is      118.8 secs

     total energy              =     -18.54709082 Ry
     estimated scf accuracy    <       0.03866291 Ry

     iteration # 14     ecut=    50.00 Ry     beta= 0.01
     Davidson diagonalization with overlap
     ethr =  4.83E-04,  avg # of iterations =  2.3

     total cpu time spent up to now is      125.6 secs

     total energy              =     -18.55168235 Ry
     estimated scf accuracy    <       0.00917522 Ry

     iteration # 15     ecut=    50.00 Ry     beta= 0.01
     Davidson diagonalization with overlap
     ethr =  1.15E-04,  avg # of iterations =  2.5

     total cpu time spent up to now is      130.8 secs

     total energy              =     -18.55188374 Ry
     estimated scf accuracy    <       0.00455546 Ry

     iteration # 16     ecut=    50.00 Ry     beta= 0.01
     Davidson diagonalization with overlap
     ethr =  5.69E-05,  avg # of iterations =  2.3

     total cpu time spent up to now is      135.9 secs

     total energy              =     -18.55430531 Ry
     estimated scf accuracy    <       0.01004915 Ry

     iteration # 17     ecut=    50.00 Ry     beta= 0.01
     Davidson diagonalization with overlap
     ethr =  5.69E-05,  avg # of iterations =  1.0

     total cpu time spent up to now is      141.4 secs

     total energy              =     -18.55133175 Ry
     estimated scf accuracy    <       0.01336998 Ry

     iteration # 18     ecut=    50.00 Ry     beta= 0.01
     Davidson diagonalization with overlap
     ethr =  5.69E-05,  avg # of iterations =  5.0

     total cpu time spent up to now is      149.9 secs

     total energy              =     -18.55363058 Ry
     estimated scf accuracy    <       0.00443414 Ry

     iteration # 19     ecut=    50.00 Ry     beta= 0.01
     Davidson diagonalization with overlap
     ethr =  5.54E-05,  avg # of iterations =  1.1

     total cpu time spent up to now is      153.0 secs

     total energy              =     -18.55282642 Ry
     estimated scf accuracy    <       0.00775361 Ry

     iteration # 20     ecut=    50.00 Ry     beta= 0.01
     Davidson diagonalization with overlap
     ethr =  5.54E-05,  avg # of iterations =  1.0

     total cpu time spent up to now is      156.2 secs

     total energy              =     -18.55137289 Ry
     estimated scf accuracy    <       0.00682449 Ry

     iteration # 21     ecut=    50.00 Ry     beta= 0.01
     Davidson diagonalization with overlap
     ethr =  5.54E-05,  avg # of iterations =  1.0

     total cpu time spent up to now is      159.5 secs

     total energy              =     -18.56501238 Ry
     estimated scf accuracy    <       0.00508410 Ry

     iteration # 22     ecut=    50.00 Ry     beta= 0.01
     Davidson diagonalization with overlap
     ethr =  5.54E-05,  avg # of iterations =  6.3

     total cpu time spent up to now is      167.1 secs

     total energy              =     -18.57127987 Ry
     estimated scf accuracy    <       0.24401955 Ry

     iteration # 23     ecut=    50.00 Ry     beta= 0.01
     Davidson diagonalization with overlap
     ethr =  5.54E-05,  avg # of iterations =  1.9

     total cpu time spent up to now is      172.6 secs

     total energy              =     -18.57334102 Ry
     estimated scf accuracy    <       0.18815423 Ry

     iteration # 24     ecut=    50.00 Ry     beta= 0.01
     Davidson diagonalization with overlap
     ethr =  5.54E-05,  avg # of iterations =  1.0

     total cpu time spent up to now is      175.9 secs

     total energy              =     -18.56402429 Ry
     estimated scf accuracy    <       0.19181603 Ry

     iteration # 25     ecut=    50.00 Ry     beta= 0.01
     Davidson diagonalization with overlap
     ethr =  5.54E-05,  avg # of iterations =  2.7

     total cpu time spent up to now is      180.2 secs

     total energy              =     -18.56981170 Ry
     estimated scf accuracy    <       0.10978337 Ry

     iteration # 26     ecut=    50.00 Ry     beta= 0.01
     Davidson diagonalization with overlap
     ethr =  5.54E-05,  avg # of iterations =  1.0

     total cpu time spent up to now is      183.5 secs

     total energy              =     -18.58095851 Ry
     estimated scf accuracy    <       0.13118057 Ry

     iteration # 27     ecut=    50.00 Ry     beta= 0.01
     Davidson diagonalization with overlap
     ethr =  5.54E-05,  avg # of iterations =  3.0

     total cpu time spent up to now is      188.0 secs

     total energy              =     -18.58230281 Ry
     estimated scf accuracy    <       0.27306234 Ry

     iteration # 28     ecut=    50.00 Ry     beta= 0.01
     Davidson diagonalization with overlap
     ethr =  5.54E-05,  avg # of iterations =  1.0

     total cpu time spent up to now is      190.9 secs

     total energy              =     -18.59259545 Ry
     estimated scf accuracy    <       0.27493895 Ry

     iteration # 29     ecut=    50.00 Ry     beta= 0.01
     Davidson diagonalization with overlap
     ethr =  5.54E-05,  avg # of iterations =  2.9

     total cpu time spent up to now is      194.7 secs

     total energy              =     -18.55258022 Ry
     estimated scf accuracy    <       0.38596945 Ry

     iteration # 30     ecut=    50.00 Ry     beta= 0.01
     Davidson diagonalization with overlap
     ethr =  5.54E-05,  avg # of iterations =  5.0

     total cpu time spent up to now is      200.2 secs

     total energy              =     -18.55195807 Ry
     estimated scf accuracy    <       0.07954355 Ry

     iteration # 31     ecut=    50.00 Ry     beta= 0.01
     Davidson diagonalization with overlap
     ethr =  5.54E-05,  avg # of iterations =  4.2

     total cpu time spent up to now is      205.0 secs

     total energy              =     -18.55641990 Ry
     estimated scf accuracy    <       0.00236761 Ry

     iteration # 32     ecut=    50.00 Ry     beta= 0.01
     Davidson diagonalization with overlap
     ethr =  2.96E-05,  avg # of iterations =  3.1

     total cpu time spent up to now is      208.7 secs

     total energy              =     -18.55695566 Ry
     estimated scf accuracy    <       0.00035863 Ry

     iteration # 33     ecut=    50.00 Ry     beta= 0.01
     Davidson diagonalization with overlap
     ethr =  4.48E-06,  avg # of iterations =  6.6

     total cpu time spent up to now is      215.2 secs

     total energy              =     -18.56107015 Ry
     estimated scf accuracy    <       0.04484156 Ry

     iteration # 34     ecut=    50.00 Ry     beta= 0.01
     Davidson diagonalization with overlap
     ethr =  4.48E-06,  avg # of iterations =  1.8

     total cpu time spent up to now is      218.1 secs

     total energy              =     -18.56046717 Ry
     estimated scf accuracy    <       0.04427380 Ry

     iteration # 35     ecut=    50.00 Ry     beta= 0.01
     Davidson diagonalization with overlap
     ethr =  4.48E-06,  avg # of iterations =  1.0

     total cpu time spent up to now is      220.7 secs

     total energy              =     -18.55912550 Ry
     estimated scf accuracy    <       0.04216763 Ry

     iteration # 36     ecut=    50.00 Ry     beta= 0.01
     Davidson diagonalization with overlap
     ethr =  4.48E-06,  avg # of iterations =  3.1

     total cpu time spent up to now is      224.3 secs

     total energy              =     -18.55287503 Ry
     estimated scf accuracy    <       0.03025539 Ry

     iteration # 37     ecut=    50.00 Ry     beta= 0.01
     Davidson diagonalization with overlap
     c_bands:  1 eigenvalues not converged
     ethr =  4.48E-06,  avg # of iterations =  7.9

     total cpu time spent up to now is      231.6 secs

     total energy              =     -18.55756778 Ry
     estimated scf accuracy    <       0.00367598 Ry

     iteration # 38     ecut=    50.00 Ry     beta= 0.01
     Davidson diagonalization with overlap
     ethr =  4.48E-06,  avg # of iterations =  1.4

     total cpu time spent up to now is      234.1 secs

     total energy              =     -18.55609538 Ry
     estimated scf accuracy    <       0.00469197 Ry

     iteration # 39     ecut=    50.00 Ry     beta= 0.01
     Davidson diagonalization with overlap
     ethr =  4.48E-06,  avg # of iterations =  5.5

     total cpu time spent up to now is      239.4 secs

     total energy              =     -18.55711196 Ry
     estimated scf accuracy    <       0.00267787 Ry

     iteration # 40     ecut=    50.00 Ry     beta= 0.01
     Davidson diagonalization with overlap
     ethr =  4.48E-06,  avg # of iterations =  3.4

     total cpu time spent up to now is      242.9 secs

     total energy              =     -18.55717037 Ry
     estimated scf accuracy    <       0.00077149 Ry

     iteration # 41     ecut=    50.00 Ry     beta= 0.01
     Davidson diagonalization with overlap
     ethr =  4.48E-06,  avg # of iterations =  4.8

     total cpu time spent up to now is      247.5 secs

     total energy              =     -18.55742003 Ry
     estimated scf accuracy    <       0.00079400 Ry

     iteration # 42     ecut=    50.00 Ry     beta= 0.01
     Davidson diagonalization with overlap
     ethr =  4.48E-06,  avg # of iterations =  4.1

     total cpu time spent up to now is      251.7 secs

     total energy              =     -18.55760919 Ry
     estimated scf accuracy    <       0.00473576 Ry

     iteration # 43     ecut=    50.00 Ry     beta= 0.01
     Davidson diagonalization with overlap
     ethr =  4.48E-06,  avg # of iterations =  1.0

     total cpu time spent up to now is      254.2 secs

     total energy              =     -18.55665299 Ry
     estimated scf accuracy    <       0.00479500 Ry

     iteration # 44     ecut=    50.00 Ry     beta= 0.01
     Davidson diagonalization with overlap
     ethr =  4.48E-06,  avg # of iterations =  5.0

     total cpu time spent up to now is      259.1 secs

     total energy              =     -18.55683897 Ry
     estimated scf accuracy    <       0.00043989 Ry

     iteration # 45     ecut=    50.00 Ry     beta= 0.01
     Davidson diagonalization with overlap
     ethr =  4.48E-06,  avg # of iterations =  6.4

     total cpu time spent up to now is      265.1 secs

     total energy              =     -18.55852329 Ry
     estimated scf accuracy    <       0.02495587 Ry

     iteration # 46     ecut=    50.00 Ry     beta= 0.01
     Davidson diagonalization with overlap
     ethr =  4.48E-06,  avg # of iterations =  2.1

     total cpu time spent up to now is      268.0 secs

     total energy              =     -18.55493878 Ry
     estimated scf accuracy    <       0.02029111 Ry

     iteration # 47     ecut=    50.00 Ry     beta= 0.01
     Davidson diagonalization with overlap
     ethr =  4.48E-06,  avg # of iterations =  6.0

     total cpu time spent up to now is      273.4 secs

     total energy              =     -18.55683443 Ry
     estimated scf accuracy    <       0.00021916 Ry

     iteration # 48     ecut=    50.00 Ry     beta= 0.01
     Davidson diagonalization with overlap
     ethr =  2.74E-06,  avg # of iterations =  1.0

     total cpu time spent up to now is      275.8 secs

     total energy              =     -18.55675588 Ry
     estimated scf accuracy    <       0.00013036 Ry

     iteration # 49     ecut=    50.00 Ry     beta= 0.01
     Davidson diagonalization with overlap
     ethr =  1.63E-06,  avg # of iterations =  2.0

     total cpu time spent up to now is      278.5 secs

     total energy              =     -18.55677235 Ry
     estimated scf accuracy    <       0.00009678 Ry

     iteration # 50     ecut=    50.00 Ry     beta= 0.01
     Davidson diagonalization with overlap
     ethr =  1.21E-06,  avg # of iterations =  2.0

     total cpu time spent up to now is      281.4 secs

     total energy              =     -18.55682999 Ry
     estimated scf accuracy    <       0.00005139 Ry

     iteration # 51     ecut=    50.00 Ry     beta= 0.01
     Davidson diagonalization with overlap
     c_bands:  1 eigenvalues not converged
     ethr =  6.42E-07,  avg # of iterations =  5.3

     total cpu time spent up to now is      286.2 secs

     total energy              =     -18.55678588 Ry
     estimated scf accuracy    <       0.00056788 Ry

     iteration # 52     ecut=    50.00 Ry     beta= 0.01
     Davidson diagonalization with overlap
     ethr =  6.42E-07,  avg # of iterations =  3.5

     total cpu time spent up to now is      289.8 secs

     total energy              =     -18.55674374 Ry
     estimated scf accuracy    <       0.00009111 Ry

     iteration # 53     ecut=    50.00 Ry     beta= 0.01
     Davidson diagonalization with overlap
     ethr =  6.42E-07,  avg # of iterations =  3.4

     total cpu time spent up to now is      293.7 secs

     total energy              =     -18.55676069 Ry
     estimated scf accuracy    <       0.00007461 Ry

     iteration # 54     ecut=    50.00 Ry     beta= 0.01
     Davidson diagonalization with overlap
     ethr =  6.42E-07,  avg # of iterations =  3.6

     total cpu time spent up to now is      297.3 secs

     total energy              =     -18.55680357 Ry
     estimated scf accuracy    <       0.00014969 Ry

     iteration # 55     ecut=    50.00 Ry     beta= 0.01
     Davidson diagonalization with overlap
     ethr =  6.42E-07,  avg # of iterations =  2.0

     total cpu time spent up to now is      300.0 secs

     total energy              =     -18.55680485 Ry
     estimated scf accuracy    <       0.00016790 Ry

     iteration # 56     ecut=    50.00 Ry     beta= 0.01
     Davidson diagonalization with overlap
     ethr =  6.42E-07,  avg # of iterations =  3.7

     total cpu time spent up to now is      304.1 secs

     total energy              =     -18.55710241 Ry
     estimated scf accuracy    <       0.00031540 Ry

     iteration # 57     ecut=    50.00 Ry     beta= 0.01
     Davidson diagonalization with overlap
     ethr =  6.42E-07,  avg # of iterations =  5.8

     total cpu time spent up to now is      309.4 secs

     total energy              =     -18.55680183 Ry
     estimated scf accuracy    <       0.00535364 Ry

     iteration # 58     ecut=    50.00 Ry     beta= 0.01
     Davidson diagonalization with overlap
     ethr =  6.42E-07,  avg # of iterations =  5.0

     total cpu time spent up to now is      314.2 secs

     total energy              =     -18.55676242 Ry
     estimated scf accuracy    <       0.00103475 Ry

     iteration # 59     ecut=    50.00 Ry     beta= 0.01
     Davidson diagonalization with overlap
     ethr =  6.42E-07,  avg # of iterations =  4.6

     total cpu time spent up to now is      318.8 secs

     total energy              =     -18.55684470 Ry
     estimated scf accuracy    <       0.00000495 Ry

     iteration # 60     ecut=    50.00 Ry     beta= 0.01
     Davidson diagonalization with overlap
     c_bands:  1 eigenvalues not converged
     ethr =  6.18E-08,  avg # of iterations =  6.2

     total cpu time spent up to now is      324.3 secs

     total energy              =     -18.55685634 Ry
     estimated scf accuracy    <       0.00001660 Ry

     iteration # 61     ecut=    50.00 Ry     beta= 0.01
     Davidson diagonalization with overlap
     ethr =  6.18E-08,  avg # of iterations =  3.8

     total cpu time spent up to now is      328.2 secs

     total energy              =     -18.55687157 Ry
     estimated scf accuracy    <       0.00008152 Ry

     iteration # 62     ecut=    50.00 Ry     beta= 0.01
     Davidson diagonalization with overlap
     ethr =  6.18E-08,  avg # of iterations =  6.4

     total cpu time spent up to now is      333.9 secs

     total energy              =     -18.55681340 Ry
     estimated scf accuracy    <       0.00041017 Ry

     iteration # 63     ecut=    50.00 Ry     beta= 0.01
     Davidson diagonalization with overlap
     ethr =  6.18E-08,  avg # of iterations =  6.0

     total cpu time spent up to now is      339.5 secs

     total energy              =     -18.55684588 Ry
     estimated scf accuracy    <       0.00000581 Ry

     iteration # 64     ecut=    50.00 Ry     beta= 0.01
     Davidson diagonalization with overlap
     ethr =  6.18E-08,  avg # of iterations =  2.0

     total cpu time spent up to now is      342.1 secs

     total energy              =     -18.55684684 Ry
     estimated scf accuracy    <       0.00000678 Ry

     iteration # 65     ecut=    50.00 Ry     beta= 0.01
     Davidson diagonalization with overlap
     ethr =  6.18E-08,  avg # of iterations =  1.0

     total cpu time spent up to now is      344.5 secs

     total energy              =     -18.55684641 Ry
     estimated scf accuracy    <       0.00000732 Ry

     iteration # 66     ecut=    50.00 Ry     beta= 0.01
     Davidson diagonalization with overlap
     ethr =  6.18E-08,  avg # of iterations =  1.0

     total cpu time spent up to now is      347.0 secs

     total energy              =     -18.55684843 Ry
     estimated scf accuracy    <       0.00000622 Ry

     iteration # 67     ecut=    50.00 Ry     beta= 0.01
     Davidson diagonalization with overlap
     ethr =  6.18E-08,  avg # of iterations =  4.6

     total cpu time spent up to now is      351.3 secs

     total energy              =     -18.55685054 Ry
     estimated scf accuracy    <       0.00001881 Ry

     iteration # 68     ecut=    50.00 Ry     beta= 0.01
     Davidson diagonalization with overlap
     ethr =  6.18E-08,  avg # of iterations =  1.0

     total cpu time spent up to now is      353.7 secs

     total energy              =     -18.55685110 Ry
     estimated scf accuracy    <       0.00001560 Ry

     iteration # 69     ecut=    50.00 Ry     beta= 0.01
     Davidson diagonalization with overlap
     ethr =  6.18E-08,  avg # of iterations =  1.0

     total cpu time spent up to now is      356.2 secs

     total energy              =     -18.55685202 Ry
     estimated scf accuracy    <       0.00002074 Ry

     iteration # 70     ecut=    50.00 Ry     beta= 0.01
     Davidson diagonalization with overlap
     ethr =  6.18E-08,  avg # of iterations =  1.0

     total cpu time spent up to now is      358.6 secs

     total energy              =     -18.55685236 Ry
     estimated scf accuracy    <       0.00001605 Ry

     iteration # 71     ecut=    50.00 Ry     beta= 0.01
     Davidson diagonalization with overlap
     ethr =  6.18E-08,  avg # of iterations =  1.0

     total cpu time spent up to now is      361.0 secs

     total energy              =     -18.55685735 Ry
     estimated scf accuracy    <       0.00001423 Ry

     iteration # 72     ecut=    50.00 Ry     beta= 0.01
     Davidson diagonalization with overlap
     ethr =  6.18E-08,  avg # of iterations =  3.5

     total cpu time spent up to now is      364.7 secs

     total energy              =     -18.55684512 Ry
     estimated scf accuracy    <       0.00006196 Ry

     iteration # 73     ecut=    50.00 Ry     beta= 0.01
     Davidson diagonalization with overlap
     ethr =  6.18E-08,  avg # of iterations =  5.0

     total cpu time spent up to now is      369.3 secs

     total energy              =     -18.55684985 Ry
     estimated scf accuracy    <       0.00000188 Ry

     iteration # 74     ecut=    50.00 Ry     beta= 0.01
     Davidson diagonalization with overlap
     c_bands:  1 eigenvalues not converged
     ethr =  2.35E-08,  avg # of iterations =  3.6

     total cpu time spent up to now is      373.3 secs

     total energy              =     -18.55684969 Ry
     estimated scf accuracy    <       0.00000524 Ry

     iteration # 75     ecut=    50.00 Ry     beta= 0.01
     Davidson diagonalization with overlap
     ethr =  2.35E-08,  avg # of iterations =  1.6

     total cpu time spent up to now is      375.9 secs

     total energy              =     -18.55685007 Ry
     estimated scf accuracy    <       0.00000258 Ry

     iteration # 76     ecut=    50.00 Ry     beta= 0.01
     Davidson diagonalization with overlap
     ethr =  2.35E-08,  avg # of iterations =  1.2

     total cpu time spent up to now is      378.3 secs

     total energy              =     -18.55685025 Ry
     estimated scf accuracy    <       0.00000348 Ry

     iteration # 77     ecut=    50.00 Ry     beta= 0.01
     Davidson diagonalization with overlap
     ethr =  2.35E-08,  avg # of iterations =  1.0

     total cpu time spent up to now is      380.7 secs

     total energy              =     -18.55685039 Ry
     estimated scf accuracy    <       0.00000312 Ry

     iteration # 78     ecut=    50.00 Ry     beta= 0.01
     Davidson diagonalization with overlap
     ethr =  2.35E-08,  avg # of iterations =  5.8

     total cpu time spent up to now is      386.0 secs

     total energy              =     -18.55683171 Ry
     estimated scf accuracy    <       0.00007137 Ry

     iteration # 79     ecut=    50.00 Ry     beta= 0.01
     Davidson diagonalization with overlap
     ethr =  2.35E-08,  avg # of iterations =  6.0

     total cpu time spent up to now is      391.4 secs

     total energy              =     -18.55684133 Ry
     estimated scf accuracy    <       0.00000142 Ry

     iteration # 80     ecut=    50.00 Ry     beta= 0.01
     Davidson diagonalization with overlap
     c_bands:  1 eigenvalues not converged
     ethr =  1.78E-08,  avg # of iterations =  7.3

     total cpu time spent up to now is      397.6 secs

     total energy              =     -18.55685706 Ry
     estimated scf accuracy    <       0.00021813 Ry

     iteration # 81     ecut=    50.00 Ry     beta= 0.01
     Davidson diagonalization with overlap
     c_bands:  1 eigenvalues not converged
     ethr =  1.78E-08,  avg # of iterations =  1.4

     total cpu time spent up to now is      400.2 secs

     total energy              =     -18.55685576 Ry
     estimated scf accuracy    <       0.00021240 Ry

     iteration # 82     ecut=    50.00 Ry     beta= 0.01
     Davidson diagonalization with overlap
     c_bands:  1 eigenvalues not converged
     ethr =  1.78E-08,  avg # of iterations =  1.4

     total cpu time spent up to now is      402.7 secs

     total energy              =     -18.55684661 Ry
     estimated scf accuracy    <       0.00020456 Ry

     iteration # 83     ecut=    50.00 Ry     beta= 0.01
     Davidson diagonalization with overlap
     c_bands:  1 eigenvalues not converged
     ethr =  1.78E-08,  avg # of iterations =  5.6

     total cpu time spent up to now is      407.8 secs

     total energy              =     -18.55685206 Ry
     estimated scf accuracy    <       0.00010547 Ry

     iteration # 84     ecut=    50.00 Ry     beta= 0.01
     Davidson diagonalization with overlap
     c_bands:  1 eigenvalues not converged
     ethr =  1.78E-08,  avg # of iterations =  3.6

     total cpu time spent up to now is      411.8 secs

     total energy              =     -18.55684836 Ry
     estimated scf accuracy    <       0.00013785 Ry

     iteration # 85     ecut=    50.00 Ry     beta= 0.01
     Davidson diagonalization with overlap
     c_bands:  1 eigenvalues not converged
     ethr =  1.78E-08,  avg # of iterations =  2.4

     total cpu time spent up to now is      415.2 secs

     total energy              =     -18.55683528 Ry
     estimated scf accuracy    <       0.00012141 Ry

     iteration # 86     ecut=    50.00 Ry     beta= 0.01
     Davidson diagonalization with overlap
     c_bands:  1 eigenvalues not converged
     ethr =  1.78E-08,  avg # of iterations =  6.3

     total cpu time spent up to now is      420.9 secs

     total energy              =     -18.55683987 Ry
     estimated scf accuracy    <       0.00000957 Ry

     iteration # 87     ecut=    50.00 Ry     beta= 0.01
     Davidson diagonalization with overlap
     c_bands:  1 eigenvalues not converged
     ethr =  1.78E-08,  avg # of iterations =  3.5

     total cpu time spent up to now is      424.9 secs

     total energy              =     -18.55684042 Ry
     estimated scf accuracy    <       0.00000170 Ry

     iteration # 88     ecut=    50.00 Ry     beta= 0.01
     Davidson diagonalization with overlap
     c_bands:  1 eigenvalues not converged
     ethr =  1.78E-08,  avg # of iterations =  6.0

     total cpu time spent up to now is      430.3 secs

     total energy              =     -18.55683503 Ry
     estimated scf accuracy    <       0.00004529 Ry

     iteration # 89     ecut=    50.00 Ry     beta= 0.01
     Davidson diagonalization with overlap
     c_bands:  1 eigenvalues not converged
     ethr =  1.78E-08,  avg # of iterations =  6.1

     total cpu time spent up to now is      435.6 secs

     End of self-consistent calculation

          k = 0.0000 0.0000 0.0000 (  3479 PWs)   bands (ev):

   -10.6754  -6.5413  -1.2532  -1.2532

          k =-0.1000 0.1000-0.1000 (  3473 PWs)   bands (ev):

   -10.6389  -6.6187  -1.3051  -1.3051

          k =-0.2000 0.2000-0.2000 (  3479 PWs)   bands (ev):

   -10.5378  -6.8230  -1.4271  -1.4265

          k =-0.3000 0.3000-0.3000 (  3452 PWs)   bands (ev):

   -10.3991  -7.0824  -1.6373  -1.5542

          k =-0.4000 0.4000-0.4000 (  3449 PWs)   bands (ev):

   -10.2721  -7.3024  -1.8047  -1.6456

          k = 0.5000-0.5000 0.5000 (  3444 PWs)   bands (ev):

   -10.2191  -7.3899  -1.8674  -1.6782

          k = 0.0000 0.2000 0.0000 (  3467 PWs)   bands (ev):

   -10.6266  -6.6439  -1.3881  -1.3881

          k =-0.1000 0.3000-0.1000 (  3482 PWs)   bands (ev):

   -10.5466  -6.8043  -1.5604  -1.5255

          k =-0.2000 0.4000-0.2000 (  3463 PWs)   bands (ev):

   -10.4189  -7.0432  -1.8054  -1.6523

          k =-0.3000 0.5000-0.3000 (  3471 PWs)   bands (ev):

   -10.2848  -7.2756  -2.0312  -1.7303

          k = 0.6000-0.4000 0.6000 (  3470 PWs)   bands (ev):

   -10.2035  -7.4085  -2.1608  -1.7412

          k = 0.5000-0.3000 0.5000 (  3455 PWs)   bands (ev):

   -10.2216  -7.3794  -2.1607  -1.6836

          k = 0.4000-0.2000 0.4000 (  3465 PWs)   bands (ev):

   -10.3279  -7.2029  -2.0327  -1.5719

          k = 0.3000-0.1000 0.3000 (  3460 PWs)   bands (ev):

   -10.4658  -6.9580  -1.8062  -1.4350

          k = 0.2000 0.0000 0.2000 (  3487 PWs)   bands (ev):

   -10.5807  -6.7376  -1.5387  -1.3263

          k = 0.0000 0.4000 0.0000 (  3479 PWs)   bands (ev):

   -10.4900  -6.9102  -1.6747  -1.6747

          k =-0.1000 0.5000-0.1000 (  3467 PWs)   bands (ev):

   -10.3819  -7.1035  -1.8845  -1.8079

          k =-0.2000 0.6000-0.2000 (  3466 PWs)   bands (ev):

   -10.2552  -7.3151  -2.1560  -1.8853

          k = 0.7000-0.3000 0.7000 (  3454 PWs)   bands (ev):

   -10.1608  -7.4631  -2.3677  -1.8886

          k = 0.6000-0.2000 0.6000 (  3457 PWs)   bands (ev):

   -10.1486  -7.4815  -2.4475  -1.8190

          k = 0.5000-0.1000 0.5000 (  3462 PWs)   bands (ev):

   -10.2256  -7.3622  -2.3703  -1.6923

          k = 0.4000 0.0000 0.4000 (  3467 PWs)   bands (ev):

   -10.3492  -7.1614  -2.1436  -1.5448

          k = 0.0000 0.6000 0.0000 (  3467 PWs)   bands (ev):

   -10.2975  -7.2442  -1.9518  -1.9518

          k =-0.1000 0.7000-0.1000 (  3460 PWs)   bands (ev):

   -10.1912  -7.4127  -2.1443  -2.0390

          k = 0.8000-0.2000 0.8000 (  3447 PWs)   bands (ev):

   -10.1039  -7.5425  -2.3908  -2.0488

          k = 0.7000-0.1000 0.7000 (  3455 PWs)   bands (ev):

   -10.0782  -7.5783  -2.5508  -1.9804

          k = 0.6000-0.0000 0.6000 (  3456 PWs)   bands (ev):

   -10.1278  -7.5064  -2.5502  -1.8490

          k = 0.0000 0.8000 0.0000 (  3447 PWs)   bands (ev):

   -10.1137  -7.5305  -2.1404  -2.1404

          k = 0.9000-0.1000 0.9000 (  3444 PWs)   bands (ev):

   -10.0540  -7.6165  -2.2840  -2.1648

          k = 0.8000 0.0000 0.8000 (  3440 PWs)   bands (ev):

   -10.0401  -7.6332  -2.4724  -2.1072

          k = 0.0000-1.0000 0.0000 (  3442 PWs)   bands (ev):

   -10.0338  -7.6471  -2.2065  -2.2065

          k =-0.2000 0.4000 0.0000 (  3464 PWs)   bands (ev):

   -10.4524  -6.9803  -1.8390  -1.5960

          k =-0.3000 0.5000-0.1000 (  3465 PWs)   bands (ev):

   -10.3239  -7.2039  -2.1131  -1.7058

          k = 0.6000-0.4000 0.8000 (  3457 PWs)   bands (ev):

   -10.2073  -7.3935  -2.3061  -1.7996

          k = 0.5000-0.3000 0.7000 (  3452 PWs)   bands (ev):

   -10.1589  -7.4690  -2.3754  -1.8344

          k =-0.2000 0.6000 0.0000 (  3463 PWs)   bands (ev):

   -10.2736  -7.2833  -2.1078  -1.9087

          k = 0.7000-0.3000 0.9000 (  3455 PWs)   bands (ev):

   -10.1640  -7.4536  -2.3357  -1.9962

          k = 0.6000-0.2000 0.8000 (  3454 PWs)   bands (ev):

   -10.1017  -7.5455  -2.4884  -2.0115

          k = 0.5000-0.1000 0.7000 (  3456 PWs)   bands (ev):

   -10.1206  -7.5175  -2.5091  -1.9436

          k = 0.4000 0.0000 0.6000 (  3461 PWs)   bands (ev):

   -10.2096  -7.3842  -2.3782  -1.8199

          k = 0.8000-0.2000 1.0000 (  3453 PWs)   bands (ev):

   -10.1053  -7.5407  -2.2631  -2.1512

          k = 0.7000-0.1000 0.9000 (  3444 PWs)   bands (ev):

   -10.0526  -7.6144  -2.4367  -2.1784

          k = 0.6000 0.0000 0.8000 (  3446 PWs)   bands (ev):

   -10.0591  -7.6037  -2.5495  -2.0927

          k =-0.2000-1.0000 0.0000 (  3444 PWs)   bands (ev):

   -10.0332  -7.6446  -2.2803  -2.2733

          k = 0.6000-0.2000 1.0000 (  3449 PWs)   bands (ev):

   -10.0840  -7.5683  -2.4617  -2.1424

          k = 0.5000-0.1000 0.9000 (  3442 PWs)   bands (ev):

   -10.0517  -7.6131  -2.4999  -2.2126

          k =-0.4000-1.0000 0.0000 (  3438 PWs)   bands (ev):

   -10.0321  -7.6406  -2.3827  -2.3691

     highest occupied level (ev):    -1.2532

!    total energy              =     -18.55684024 Ry
     estimated scf accuracy    <       0.00000075 Ry

     The total energy is the sum of the following terms:
     one-electron contribution =      -4.73899015 Ry
     hartree contribution      =       4.02485019 Ry
     xc contribution           =      -4.81537729 Ry
     ewald contribution        =     -13.02732300 Ry

     convergence has been achieved in  89 iterations
     Writing meta-gga kinetic term

     Writing all to output data dir ./input_pw/SiC/19/pwscf.save/
     Writing meta-gga kinetic term
 
     init_run     :      6.66s CPU     16.31s WALL (       1 calls)
     electrons    :    385.97s CPU    419.20s WALL (       1 calls)

     Called by init_run:
     wfcinit      :      6.45s CPU     15.77s WALL (       1 calls)
     potinit      :      0.08s CPU      0.20s WALL (       1 calls)
     hinit0       :      0.10s CPU      0.23s WALL (       1 calls)

     Called by electrons:
     c_bands      :    320.70s CPU    346.86s WALL (      89 calls)
     sum_band     :     57.32s CPU     63.35s WALL (      89 calls)
     v_of_rho     :      3.71s CPU      4.25s WALL (      90 calls)
     mix_rho      :      4.19s CPU      4.75s WALL (      89 calls)

     Called by c_bands:
     init_us_2    :      2.26s CPU      2.49s WALL (    8413 calls)
     init_us_2:cp :      2.24s CPU      2.48s WALL (    8413 calls)
     cegterg      :    318.61s CPU    344.49s WALL (    4183 calls)

     Called by *egterg:
     cdiaghg      :      0.59s CPU      0.66s WALL (   17012 calls)
     h_psi        :    320.19s CPU    354.69s WALL (   17059 calls)
     g_psi        :      0.27s CPU      0.30s WALL (   12829 calls)

     Called by h_psi:
     h_psi:calbec :      0.81s CPU      0.90s WALL (   17059 calls)
     vloc_psi     :     79.35s CPU     87.61s WALL (   17059 calls)
     add_vuspsi   :      0.74s CPU      0.79s WALL (   17059 calls)
     h_psi_meta   :    238.95s CPU    265.04s WALL (   17059 calls)

     General routines
     calbec       :      0.77s CPU      0.86s WALL (   17059 calls)
     fft          :      0.73s CPU      0.87s WALL (    1077 calls)
     ffts         :      1.81s CPU      2.07s WALL (    2600 calls)
     fftw         :    331.34s CPU    367.05s WALL (  506888 calls)
     interpolate  :      0.01s CPU      0.04s WALL (      90 calls)
 
     Parallel routines
 
     PWSCF        :   6m32.67s CPU   7m15.63s WALL

 
   This run was terminated on:  12: 9:47  14Mar2023            

=------------------------------------------------------------------------------=
   JOB DONE.
=------------------------------------------------------------------------------=
