
     Program PWSCF v.7.0 starts on 29Mar2023 at 11:31: 6 

     This program is part of the open-source Quantum ESPRESSO suite
     for quantum simulation of materials; please cite
         "P. Giannozzi et al., J. Phys.:Condens. Matter 21 395502 (2009);
         "P. Giannozzi et al., J. Phys.:Condens. Matter 29 465901 (2017);
         "P. Giannozzi et al., J. Chem. Phys. 152 154105 (2020);
          URL http://www.quantum-espresso.org", 
     in publications or presentations arising from this work. More details at
     http://www.quantum-espresso.org/quote

     Parallel version (MPI), running on     1 processors

     MPI processes distributed on     1 nodes
     23737 MiB available memory on the printing compute node when the environment starts
 
     Waiting for input...
     Reading input from standard input
Warning: card &CELL ignored
Warning: card / ignored

     Current dimensions of program PWSCF are:
     Max number of different atomic species (ntypx) = 10
     Max number of k-points (npk) =  40000
     Max angular momentum in pseudopotentials (lmaxx) =  4
     file Si.SCAN.UPF2: wavefunction(s)  0D renormalized

     WARNING: the MGGA functional with ID    5 has been 
     read together with other dft terms, but it should 
     stand alone in order to work properly. The other 
     terms will be ignored.

     Subspace diagonalization in iterative solution of the eigenvalue problem:
     a serial algorithm will be used

 
     G-vector sticks info
     --------------------
     sticks:   dense  smooth     PW     G-vecs:    dense   smooth      PW
     Sum         535     535    163                 8099     8099    1459
 
     Using Slab Decomposition
 


     bravais-lattice index     =            2
     lattice parameter (alat)  =       8.8191  a.u.
     unit-cell volume          =     171.4812 (a.u.)^3
     number of atoms/cell      =            2
     number of atomic types    =            1
     number of electrons       =         8.00
     number of Kohn-Sham states=            4
     kinetic-energy cutoff     =      50.0000  Ry
     charge density cutoff     =     200.0000  Ry
     scf convergence threshold =      1.0E-06
     mixing beta               =       0.0100
     number of iterations used =            8  local-TF  mixing
     Exchange-correlation= SLA  PW   SCAN SCAN
                           (   0   0   0   0   0 263 267)

     celldm(1)=   8.819125  celldm(2)=   0.000000  celldm(3)=   0.000000
     celldm(4)=   0.000000  celldm(5)=   0.000000  celldm(6)=   0.000000

     crystal axes: (cart. coord. in units of alat)
               a(1) = (  -0.500000   0.000000   0.500000 )  
               a(2) = (   0.000000   0.500000   0.500000 )  
               a(3) = (  -0.500000   0.500000   0.000000 )  

     reciprocal axes: (cart. coord. in units 2 pi/alat)
               b(1) = ( -1.000000 -1.000000  1.000000 )  
               b(2) = (  1.000000  1.000000  1.000000 )  
               b(3) = ( -1.000000  1.000000 -1.000000 )  


     PseudoPot. # 1 for Si read from file:
     ~/Documents/TA/PWDFT.jl/pseudopotentials/scan_upf/Si.SCAN.UPF2
     MD5 check sum: Not computed, couldn't open file
     Pseudo is Norm-conserving, Zval =  4.0
     Generated by new atomic code, or converted to UPF format
     Using radial grid of 1475 points,  2 beta functions with: 
                l(1) =   0
                l(2) =   1

     atomic species   valence    mass     pseudopotential
        Si             4.00    28.08550     Si( 1.00)

     48 Sym. Ops., with inversion, found (24 have fractional translation)



   Cartesian axes

     site n.     atom                  positions (alat units)
         1           Si  tau(   1) = (   0.0000000   0.0000000   0.0000000  )
         2           Si  tau(   2) = (   0.2500000   0.2500000   0.2500000  )

     number of k points=    47
                       cart. coord. in units 2pi/alat
        k(    1) = (   0.0000000   0.0000000   0.0000000), wk =   0.0020000
        k(    2) = (  -0.1000000   0.1000000  -0.1000000), wk =   0.0160000
        k(    3) = (  -0.2000000   0.2000000  -0.2000000), wk =   0.0160000
        k(    4) = (  -0.3000000   0.3000000  -0.3000000), wk =   0.0160000
        k(    5) = (  -0.4000000   0.4000000  -0.4000000), wk =   0.0160000
        k(    6) = (   0.5000000  -0.5000000   0.5000000), wk =   0.0080000
        k(    7) = (   0.0000000   0.2000000   0.0000000), wk =   0.0120000
        k(    8) = (  -0.1000000   0.3000000  -0.1000000), wk =   0.0480000
        k(    9) = (  -0.2000000   0.4000000  -0.2000000), wk =   0.0480000
        k(   10) = (  -0.3000000   0.5000000  -0.3000000), wk =   0.0480000
        k(   11) = (   0.6000000  -0.4000000   0.6000000), wk =   0.0480000
        k(   12) = (   0.5000000  -0.3000000   0.5000000), wk =   0.0480000
        k(   13) = (   0.4000000  -0.2000000   0.4000000), wk =   0.0480000
        k(   14) = (   0.3000000  -0.1000000   0.3000000), wk =   0.0480000
        k(   15) = (   0.2000000   0.0000000   0.2000000), wk =   0.0240000
        k(   16) = (   0.0000000   0.4000000   0.0000000), wk =   0.0120000
        k(   17) = (  -0.1000000   0.5000000  -0.1000000), wk =   0.0480000
        k(   18) = (  -0.2000000   0.6000000  -0.2000000), wk =   0.0480000
        k(   19) = (   0.7000000  -0.3000000   0.7000000), wk =   0.0480000
        k(   20) = (   0.6000000  -0.2000000   0.6000000), wk =   0.0480000
        k(   21) = (   0.5000000  -0.1000000   0.5000000), wk =   0.0480000
        k(   22) = (   0.4000000   0.0000000   0.4000000), wk =   0.0240000
        k(   23) = (   0.0000000   0.6000000   0.0000000), wk =   0.0120000
        k(   24) = (  -0.1000000   0.7000000  -0.1000000), wk =   0.0480000
        k(   25) = (   0.8000000  -0.2000000   0.8000000), wk =   0.0480000
        k(   26) = (   0.7000000  -0.1000000   0.7000000), wk =   0.0480000
        k(   27) = (   0.6000000  -0.0000000   0.6000000), wk =   0.0240000
        k(   28) = (   0.0000000   0.8000000   0.0000000), wk =   0.0120000
        k(   29) = (   0.9000000  -0.1000000   0.9000000), wk =   0.0480000
        k(   30) = (   0.8000000   0.0000000   0.8000000), wk =   0.0240000
        k(   31) = (   0.0000000  -1.0000000   0.0000000), wk =   0.0060000
        k(   32) = (  -0.2000000   0.4000000   0.0000000), wk =   0.0480000
        k(   33) = (  -0.3000000   0.5000000  -0.1000000), wk =   0.0960000
        k(   34) = (   0.6000000  -0.4000000   0.8000000), wk =   0.0960000
        k(   35) = (   0.5000000  -0.3000000   0.7000000), wk =   0.0480000
        k(   36) = (  -0.2000000   0.6000000   0.0000000), wk =   0.0480000
        k(   37) = (   0.7000000  -0.3000000   0.9000000), wk =   0.0960000
        k(   38) = (   0.6000000  -0.2000000   0.8000000), wk =   0.0960000
        k(   39) = (   0.5000000  -0.1000000   0.7000000), wk =   0.0960000
        k(   40) = (   0.4000000   0.0000000   0.6000000), wk =   0.0480000
        k(   41) = (   0.8000000  -0.2000000   1.0000000), wk =   0.0480000
        k(   42) = (   0.7000000  -0.1000000   0.9000000), wk =   0.0960000
        k(   43) = (   0.6000000   0.0000000   0.8000000), wk =   0.0480000
        k(   44) = (  -0.2000000  -1.0000000   0.0000000), wk =   0.0240000
        k(   45) = (   0.6000000  -0.2000000   1.0000000), wk =   0.0480000
        k(   46) = (   0.5000000  -0.1000000   0.9000000), wk =   0.0480000
        k(   47) = (  -0.4000000  -1.0000000   0.0000000), wk =   0.0240000

     Dense  grid:     8099 G-vectors     FFT dimensions: (  32,  32,  32)

     Estimated max dynamical RAM per process >      16.15 MB

     WARNING: libxc functional with ID  263 depends
      on external parameters: check the user_guide of
      QE if you need to modify them or to check their
      default values.

     Initial potential from superposition of free atoms

     starting charge       7.9990, renormalised to       8.0000
     Starting wfcs are   18 randomized atomic wfcs

     total cpu time spent up to now is        3.5 secs

     Self-consistent Calculation

     iteration #  1     ecut=    50.00 Ry     beta= 0.01
     Davidson diagonalization with overlap
     ethr =  1.00E-02,  avg # of iterations =  2.0

     total cpu time spent up to now is        6.4 secs

     total energy              =     -15.39016255 Ry
     estimated scf accuracy    <       0.11837687 Ry

     iteration #  2     ecut=    50.00 Ry     beta= 0.01
     Davidson diagonalization with overlap
     ethr =  1.48E-03,  avg # of iterations =  1.0

     total cpu time spent up to now is        8.5 secs

     total energy              =     -15.43088571 Ry
     estimated scf accuracy    <       0.12188876 Ry

     iteration #  3     ecut=    50.00 Ry     beta= 0.01
     Davidson diagonalization with overlap
     ethr =  1.48E-03,  avg # of iterations =  2.0

     total cpu time spent up to now is       11.0 secs

     total energy              =     -15.50324576 Ry
     estimated scf accuracy    <       0.21593662 Ry

     iteration #  4     ecut=    50.00 Ry     beta= 0.01
     Davidson diagonalization with overlap
     ethr =  1.48E-03,  avg # of iterations =  1.4

     total cpu time spent up to now is       13.3 secs

     total energy              =     -15.50920268 Ry
     estimated scf accuracy    <       0.01734795 Ry

     iteration #  5     ecut=    50.00 Ry     beta= 0.01
     Davidson diagonalization with overlap
     ethr =  2.17E-04,  avg # of iterations =  1.0

     total cpu time spent up to now is       15.4 secs

     total energy              =     -15.51005912 Ry
     estimated scf accuracy    <       0.00865055 Ry

     iteration #  6     ecut=    50.00 Ry     beta= 0.01
     Davidson diagonalization with overlap
     ethr =  1.08E-04,  avg # of iterations =  1.0

     total cpu time spent up to now is       17.6 secs

     total energy              =     -15.50834685 Ry
     estimated scf accuracy    <       0.00910895 Ry

     iteration #  7     ecut=    50.00 Ry     beta= 0.01
     Davidson diagonalization with overlap
     ethr =  1.08E-04,  avg # of iterations =  1.1

     total cpu time spent up to now is       19.9 secs

     total energy              =     -15.50901688 Ry
     estimated scf accuracy    <       0.00007915 Ry

     iteration #  8     ecut=    50.00 Ry     beta= 0.01
     Davidson diagonalization with overlap
     ethr =  9.89E-07,  avg # of iterations =  3.9

     total cpu time spent up to now is       23.6 secs

     total energy              =     -15.50906436 Ry
     estimated scf accuracy    <       0.00019266 Ry

     iteration #  9     ecut=    50.00 Ry     beta= 0.01
     Davidson diagonalization with overlap
     ethr =  9.89E-07,  avg # of iterations =  2.0

     total cpu time spent up to now is       26.7 secs

     total energy              =     -15.50908102 Ry
     estimated scf accuracy    <       0.00005647 Ry

     iteration # 10     ecut=    50.00 Ry     beta= 0.01
     Davidson diagonalization with overlap
     ethr =  7.06E-07,  avg # of iterations =  1.6

     total cpu time spent up to now is       29.0 secs

     total energy              =     -15.50909186 Ry
     estimated scf accuracy    <       0.00004318 Ry

     iteration # 11     ecut=    50.00 Ry     beta= 0.01
     Davidson diagonalization with overlap
     ethr =  5.40E-07,  avg # of iterations =  2.0

     total cpu time spent up to now is       31.9 secs

     total energy              =     -15.50910004 Ry
     estimated scf accuracy    <       0.00000258 Ry

     iteration # 12     ecut=    50.00 Ry     beta= 0.01
     Davidson diagonalization with overlap
     ethr =  3.23E-08,  avg # of iterations =  1.6

     total cpu time spent up to now is       33.9 secs

     total energy              =     -15.50909690 Ry
     estimated scf accuracy    <       0.00000229 Ry

     iteration # 13     ecut=    50.00 Ry     beta= 0.01
     Davidson diagonalization with overlap
     ethr =  2.86E-08,  avg # of iterations =  2.2

     total cpu time spent up to now is       36.9 secs

     End of self-consistent calculation

          k = 0.0000 0.0000 0.0000 (   965 PWs)   bands (ev):

    -4.3484  11.7918  11.7918  11.7918

          k =-0.1000 0.1000-0.1000 (  1001 PWs)   bands (ev):

    -4.1512  10.3797  11.4941  11.4941

          k =-0.2000 0.2000-0.2000 (  1001 PWs)   bands (ev):

    -3.5647   7.8879  10.9658  10.9658

          k =-0.3000 0.3000-0.3000 (  1017 PWs)   bands (ev):

    -2.6092   5.3598  10.5363  10.5363

          k =-0.4000 0.4000-0.4000 (  1023 PWs)   bands (ev):

    -1.3618   3.1166  10.2817  10.2817

          k = 0.5000-0.5000 0.5000 (  1008 PWs)   bands (ev):

    -0.4297   1.8458  10.1996  10.1996

          k = 0.0000 0.2000 0.0000 (  1002 PWs)   bands (ev):

    -4.0854  10.8531  10.8531  11.0881

          k =-0.1000 0.3000-0.1000 (  1002 PWs)   bands (ev):

    -3.6281   8.7969  10.2128  10.8548

          k =-0.2000 0.4000-0.2000 (  1018 PWs)   bands (ev):

    -2.7931   6.2970   9.7871  10.2835

          k =-0.3000 0.5000-0.3000 (  1024 PWs)   bands (ev):

    -1.6269   3.9518   9.6304   9.6939

          k = 0.6000-0.4000 0.6000 (  1029 PWs)   bands (ev):

    -0.4105   2.1814   9.2282   9.7408

          k = 0.5000-0.3000 0.5000 (  1025 PWs)   bands (ev):

    -0.7664   2.6503   8.9615  10.0858

          k = 0.4000-0.2000 0.4000 (  1020 PWs)   bands (ev):

    -2.0474   4.7038   8.9473  10.6053

          k = 0.3000-0.1000 0.3000 (  1013 PWs)   bands (ev):

    -3.1127   7.1320   9.2201  11.1991

          k = 0.2000 0.0000 0.2000 (  1005 PWs)   bands (ev):

    -3.8240   9.4389   9.9358  11.6389

          k = 0.0000 0.4000 0.0000 (  1010 PWs)   bands (ev):

    -3.3011   9.3451   9.4816   9.4816

          k =-0.1000 0.5000-0.1000 (  1019 PWs)   bands (ev):

    -2.5924   7.2903   8.9846   9.0574

          k =-0.2000 0.6000-0.2000 (  1032 PWs)   bands (ev):

    -1.5317   5.0254   8.2082   8.7830

          k = 0.7000-0.3000 0.7000 (  1027 PWs)   bands (ev):

    -0.2554   3.0437   7.4456   8.8883

          k = 0.6000-0.2000 0.6000 (  1028 PWs)   bands (ev):

     0.0856   2.6102   6.9324   9.2850

          k = 0.5000-0.1000 0.5000 (  1021 PWs)   bands (ev):

    -1.1301   4.3548   6.7424   9.9237

          k = 0.4000 0.0000 0.4000 (  1015 PWs)   bands (ev):

    -2.2859   6.3642   7.1518  10.6773

          k = 0.0000 0.6000 0.0000 (  1022 PWs)   bands (ev):

    -2.0110   7.0091   8.3995   8.3995

          k =-0.1000 0.7000-0.1000 (  1027 PWs)   bands (ev):

    -1.0683   5.5258   7.3744   8.1120

          k = 0.8000-0.2000 0.8000 (  1030 PWs)   bands (ev):

     0.1625   3.8985   6.0650   8.1433

          k = 0.7000-0.1000 0.7000 (  1031 PWs)   bands (ev):

     1.0496   2.9018   5.1941   8.4886

          k = 0.6000-0.0000 0.6000 (  1021 PWs)   bands (ev):

     0.0711   3.9529   5.0668   9.1150

          k = 0.0000 0.8000 0.0000 (  1030 PWs)   bands (ev):

    -0.2457   4.4275   7.7285   7.7285

          k = 0.9000-0.1000 0.9000 (  1024 PWs)   bands (ev):

     0.8949   3.1943   6.6582   7.6652

          k = 0.8000 0.0000 0.8000 (  1021 PWs)   bands (ev):

     1.8918   2.4476   5.2162   7.9254

          k = 0.0000-1.0000 0.0000 (  1034 PWs)   bands (ev):

     1.9375   1.9375   7.5021   7.5021

          k =-0.2000 0.4000 0.0000 (  1014 PWs)   bands (ev):

    -3.0453   7.8690   8.5539  10.5607

          k =-0.3000 0.5000-0.1000 (  1022 PWs)   bands (ev):

    -2.0960   5.7078   7.9386   9.9080

          k = 0.6000-0.4000 0.8000 (  1023 PWs)   bands (ev):

    -0.8553   3.5349   7.8013   9.2664

          k = 0.5000-0.3000 0.7000 (  1032 PWs)   bands (ev):

     0.0776   2.2782   7.8047   8.9895

          k =-0.2000 0.6000 0.0000 (  1028 PWs)   bands (ev):

    -1.7672   6.3243   7.4651   8.6313

          k = 0.7000-0.3000 0.9000 (  1032 PWs)   bands (ev):

    -0.6149   4.5519   6.7136   7.9892

          k = 0.6000-0.2000 0.8000 (  1028 PWs)   bands (ev):

     0.5933   2.9353   6.1822   7.9040

          k = 0.5000-0.1000 0.7000 (  1024 PWs)   bands (ev):

     0.2128   3.4260   5.8322   8.3395

          k = 0.4000 0.0000 0.6000 (  1031 PWs)   bands (ev):

    -1.0514   5.0797   6.0719   9.0994

          k = 0.8000-0.2000 1.0000 (  1032 PWs)   bands (ev):

    -0.0276   4.3729   6.8196   7.2026

          k = 0.7000-0.1000 0.9000 (  1018 PWs)   bands (ev):

     1.2271   3.2058   5.5086   7.1089

          k = 0.6000 0.0000 0.8000 (  1022 PWs)   bands (ev):

     1.3862   3.1050   4.7801   7.5577

          k =-0.2000-1.0000 0.0000 (  1020 PWs)   bands (ev):

     2.0906   2.0906   6.6899   6.6899

          k = 0.6000-0.2000 1.0000 (  1031 PWs)   bands (ev):

     0.5842   3.9109   5.5090   6.9600

          k = 0.5000-0.1000 0.9000 (  1028 PWs)   bands (ev):

     1.5300   3.0388   5.2519   6.5282

          k =-0.4000-1.0000 0.0000 (  1028 PWs)   bands (ev):

     2.4031   2.4031   5.6721   5.6721

     highest occupied level (ev):    11.7918

!    total energy              =     -15.50909771 Ry
     estimated scf accuracy    <       0.00000069 Ry

     The total energy is the sum of the following terms:
     one-electron contribution =       8.66470031 Ry
     hartree contribution      =       0.76180659 Ry
     xc contribution           =      -5.38972715 Ry
     ewald contribution        =     -19.54587746 Ry

     convergence has been achieved in  13 iterations
     Writing meta-gga kinetic term

     Writing all to output data dir ./input_pw/Si/2/pwscf.save/
     Writing meta-gga kinetic term
 
     init_run     :      1.77s CPU      3.42s WALL (       1 calls)
     electrons    :     15.65s CPU     33.44s WALL (       1 calls)

     Called by init_run:
     wfcinit      :      1.67s CPU      3.24s WALL (       1 calls)
     potinit      :      0.02s CPU      0.04s WALL (       1 calls)
     hinit0       :      0.07s CPU      0.12s WALL (       1 calls)

     Called by electrons:
     c_bands      :     12.58s CPU     27.02s WALL (      13 calls)
     sum_band     :      2.69s CPU      5.54s WALL (      13 calls)
     v_of_rho     :      0.27s CPU      0.59s WALL (      14 calls)
     mix_rho      :      0.12s CPU      0.30s WALL (      13 calls)

     Called by c_bands:
     init_us_2    :      0.17s CPU      0.32s WALL (    1269 calls)
     init_us_2:cp :      0.16s CPU      0.31s WALL (    1269 calls)
     cegterg      :     12.38s CPU     26.48s WALL (     611 calls)

     Called by *egterg:
     cdiaghg      :      0.11s CPU      0.34s WALL (    1685 calls)
     h_psi        :     13.63s CPU     28.82s WALL (    1732 calls)
     g_psi        :      0.01s CPU      0.01s WALL (    1074 calls)

     Called by h_psi:
     h_psi:calbec :      0.08s CPU      0.11s WALL (    1732 calls)
     vloc_psi     :      3.34s CPU      7.25s WALL (    1732 calls)
     add_vuspsi   :      0.06s CPU      0.09s WALL (    1732 calls)
     h_psi_meta   :     10.12s CPU     21.26s WALL (    1732 calls)

     General routines
     calbec       :      0.07s CPU      0.11s WALL (    1732 calls)
     fft          :      0.03s CPU      0.10s WALL (     165 calls)
     ffts         :      0.04s CPU      0.10s WALL (     212 calls)
     fftw         :     13.23s CPU     28.25s WALL (   66256 calls)
     interpolate  :      0.00s CPU      0.00s WALL (      14 calls)
 
     Parallel routines
 
     PWSCF        :     17.46s CPU     36.95s WALL

 
   This run was terminated on:  11:31:43  29Mar2023            

=------------------------------------------------------------------------------=
   JOB DONE.
=------------------------------------------------------------------------------=
