
     Program PWSCF v.7.0 starts on 21Feb2023 at 12:49:41 

     This program is part of the open-source Quantum ESPRESSO suite
     for quantum simulation of materials; please cite
         "P. Giannozzi et al., J. Phys.:Condens. Matter 21 395502 (2009);
         "P. Giannozzi et al., J. Phys.:Condens. Matter 29 465901 (2017);
         "P. Giannozzi et al., J. Chem. Phys. 152 154105 (2020);
          URL http://www.quantum-espresso.org", 
     in publications or presentations arising from this work. More details at
     http://www.quantum-espresso.org/quote

     Parallel version (MPI), running on     1 processors

     MPI processes distributed on     1 nodes
     2840 MiB available memory on the printing compute node when the environment starts
 
     Waiting for input...
     Reading input from standard input
Warning: card &CELL ignored
Warning: card / ignored

     Current dimensions of program PWSCF are:
     Max number of different atomic species (ntypx) = 10
     Max number of k-points (npk) =  40000
     Max angular momentum in pseudopotentials (lmaxx) =  4
     file Si.SCAN.UPF2: wavefunction(s)  0D renormalized

     WARNING: the MGGA functional with ID    5 has been 
     read together with other dft terms, but it should 
     stand alone in order to work properly. The other 
     terms will be ignored.

     Subspace diagonalization in iterative solution of the eigenvalue problem:
     a serial algorithm will be used

 
     G-vector sticks info
     --------------------
     sticks:   dense  smooth     PW     G-vecs:    dense   smooth      PW
     Sum         517     517    163                 7943     7943    1459
 
     Using Slab Decomposition
 


     bravais-lattice index     =            2
     lattice parameter (alat)  =       8.7450  a.u.
     unit-cell volume          =     167.1935 (a.u.)^3
     number of atoms/cell      =            2
     number of atomic types    =            1
     number of electrons       =         8.00
     number of Kohn-Sham states=            4
     kinetic-energy cutoff     =      50.0000  Ry
     charge density cutoff     =     200.0000  Ry
     scf convergence threshold =      1.0E-06
     mixing beta               =       0.0100
     number of iterations used =            8  local-TF  mixing
     Exchange-correlation= SLA  PW   SCAN SCAN
                           (   0   0   0   0   0 263 267)

     celldm(1)=   8.745000  celldm(2)=   0.000000  celldm(3)=   0.000000
     celldm(4)=   0.000000  celldm(5)=   0.000000  celldm(6)=   0.000000

     crystal axes: (cart. coord. in units of alat)
               a(1) = (  -0.500000   0.000000   0.500000 )  
               a(2) = (   0.000000   0.500000   0.500000 )  
               a(3) = (  -0.500000   0.500000   0.000000 )  

     reciprocal axes: (cart. coord. in units 2 pi/alat)
               b(1) = ( -1.000000 -1.000000  1.000000 )  
               b(2) = (  1.000000  1.000000  1.000000 )  
               b(3) = ( -1.000000  1.000000 -1.000000 )  


     PseudoPot. # 1 for Si read from file:
     ~/Documents/TA/PWDFT.jl/pseudopotentials/scan_upf/Si.SCAN.UPF2
     MD5 check sum: Not computed, couldn't open file
     Pseudo is Norm-conserving, Zval =  4.0
     Generated by new atomic code, or converted to UPF format
     Using radial grid of 1475 points,  2 beta functions with: 
                l(1) =   0
                l(2) =   1

     atomic species   valence    mass     pseudopotential
        Si             4.00    28.08550     Si( 1.00)

     48 Sym. Ops., with inversion, found (24 have fractional translation)



   Cartesian axes

     site n.     atom                  positions (alat units)
         1           Si  tau(   1) = (   0.0000000   0.0000000   0.0000000  )
         2           Si  tau(   2) = (   0.2500000   0.2500000   0.2500000  )

     number of k points=    47
                       cart. coord. in units 2pi/alat
        k(    1) = (   0.0000000   0.0000000   0.0000000), wk =   0.0020000
        k(    2) = (  -0.1000000   0.1000000  -0.1000000), wk =   0.0160000
        k(    3) = (  -0.2000000   0.2000000  -0.2000000), wk =   0.0160000
        k(    4) = (  -0.3000000   0.3000000  -0.3000000), wk =   0.0160000
        k(    5) = (  -0.4000000   0.4000000  -0.4000000), wk =   0.0160000
        k(    6) = (   0.5000000  -0.5000000   0.5000000), wk =   0.0080000
        k(    7) = (   0.0000000   0.2000000   0.0000000), wk =   0.0120000
        k(    8) = (  -0.1000000   0.3000000  -0.1000000), wk =   0.0480000
        k(    9) = (  -0.2000000   0.4000000  -0.2000000), wk =   0.0480000
        k(   10) = (  -0.3000000   0.5000000  -0.3000000), wk =   0.0480000
        k(   11) = (   0.6000000  -0.4000000   0.6000000), wk =   0.0480000
        k(   12) = (   0.5000000  -0.3000000   0.5000000), wk =   0.0480000
        k(   13) = (   0.4000000  -0.2000000   0.4000000), wk =   0.0480000
        k(   14) = (   0.3000000  -0.1000000   0.3000000), wk =   0.0480000
        k(   15) = (   0.2000000   0.0000000   0.2000000), wk =   0.0240000
        k(   16) = (   0.0000000   0.4000000   0.0000000), wk =   0.0120000
        k(   17) = (  -0.1000000   0.5000000  -0.1000000), wk =   0.0480000
        k(   18) = (  -0.2000000   0.6000000  -0.2000000), wk =   0.0480000
        k(   19) = (   0.7000000  -0.3000000   0.7000000), wk =   0.0480000
        k(   20) = (   0.6000000  -0.2000000   0.6000000), wk =   0.0480000
        k(   21) = (   0.5000000  -0.1000000   0.5000000), wk =   0.0480000
        k(   22) = (   0.4000000   0.0000000   0.4000000), wk =   0.0240000
        k(   23) = (   0.0000000   0.6000000   0.0000000), wk =   0.0120000
        k(   24) = (  -0.1000000   0.7000000  -0.1000000), wk =   0.0480000
        k(   25) = (   0.8000000  -0.2000000   0.8000000), wk =   0.0480000
        k(   26) = (   0.7000000  -0.1000000   0.7000000), wk =   0.0480000
        k(   27) = (   0.6000000  -0.0000000   0.6000000), wk =   0.0240000
        k(   28) = (   0.0000000   0.8000000   0.0000000), wk =   0.0120000
        k(   29) = (   0.9000000  -0.1000000   0.9000000), wk =   0.0480000
        k(   30) = (   0.8000000   0.0000000   0.8000000), wk =   0.0240000
        k(   31) = (   0.0000000  -1.0000000   0.0000000), wk =   0.0060000
        k(   32) = (  -0.2000000   0.4000000   0.0000000), wk =   0.0480000
        k(   33) = (  -0.3000000   0.5000000  -0.1000000), wk =   0.0960000
        k(   34) = (   0.6000000  -0.4000000   0.8000000), wk =   0.0960000
        k(   35) = (   0.5000000  -0.3000000   0.7000000), wk =   0.0480000
        k(   36) = (  -0.2000000   0.6000000   0.0000000), wk =   0.0480000
        k(   37) = (   0.7000000  -0.3000000   0.9000000), wk =   0.0960000
        k(   38) = (   0.6000000  -0.2000000   0.8000000), wk =   0.0960000
        k(   39) = (   0.5000000  -0.1000000   0.7000000), wk =   0.0960000
        k(   40) = (   0.4000000   0.0000000   0.6000000), wk =   0.0480000
        k(   41) = (   0.8000000  -0.2000000   1.0000000), wk =   0.0480000
        k(   42) = (   0.7000000  -0.1000000   0.9000000), wk =   0.0960000
        k(   43) = (   0.6000000   0.0000000   0.8000000), wk =   0.0480000
        k(   44) = (  -0.2000000  -1.0000000   0.0000000), wk =   0.0240000
        k(   45) = (   0.6000000  -0.2000000   1.0000000), wk =   0.0480000
        k(   46) = (   0.5000000  -0.1000000   0.9000000), wk =   0.0480000
        k(   47) = (  -0.4000000  -1.0000000   0.0000000), wk =   0.0240000

     Dense  grid:     7943 G-vectors     FFT dimensions: (  32,  32,  32)

     Estimated max dynamical RAM per process >      15.89 MB

     WARNING: libxc functional with ID  263 depends
      on external parameters: check the user_guide of
      QE if you need to modify them or to check their
      default values.

     Initial potential from superposition of free atoms

     starting charge       7.9990, renormalised to       8.0000
     Starting wfcs are   18 randomized atomic wfcs

     total cpu time spent up to now is        3.7 secs

     Self-consistent Calculation

     iteration #  1     ecut=    50.00 Ry     beta= 0.01
     Davidson diagonalization with overlap
     ethr =  1.00E-02,  avg # of iterations =  2.0

     total cpu time spent up to now is        6.5 secs

     total energy              =     -15.35973891 Ry
     estimated scf accuracy    <       0.12277333 Ry

     iteration #  2     ecut=    50.00 Ry     beta= 0.01
     Davidson diagonalization with overlap
     ethr =  1.53E-03,  avg # of iterations =  1.0

     total cpu time spent up to now is        8.5 secs

     total energy              =     -15.40072252 Ry
     estimated scf accuracy    <       0.12632151 Ry

     iteration #  3     ecut=    50.00 Ry     beta= 0.01
     Davidson diagonalization with overlap
     ethr =  1.53E-03,  avg # of iterations =  2.0

     total cpu time spent up to now is       10.9 secs

     total energy              =     -15.47098581 Ry
     estimated scf accuracy    <       0.22338366 Ry

     iteration #  4     ecut=    50.00 Ry     beta= 0.01
     Davidson diagonalization with overlap
     ethr =  1.53E-03,  avg # of iterations =  1.3

     total cpu time spent up to now is       13.1 secs

     total energy              =     -15.47703746 Ry
     estimated scf accuracy    <       0.01698082 Ry

     iteration #  5     ecut=    50.00 Ry     beta= 0.01
     Davidson diagonalization with overlap
     ethr =  2.12E-04,  avg # of iterations =  1.0

     total cpu time spent up to now is       15.1 secs

     total energy              =     -15.47794457 Ry
     estimated scf accuracy    <       0.00808496 Ry

     iteration #  6     ecut=    50.00 Ry     beta= 0.01
     Davidson diagonalization with overlap
     ethr =  1.01E-04,  avg # of iterations =  1.0

     total cpu time spent up to now is       17.2 secs

     total energy              =     -15.47645417 Ry
     estimated scf accuracy    <       0.00864062 Ry

     iteration #  7     ecut=    50.00 Ry     beta= 0.01
     Davidson diagonalization with overlap
     ethr =  1.01E-04,  avg # of iterations =  1.0

     total cpu time spent up to now is       19.2 secs

     total energy              =     -15.47700885 Ry
     estimated scf accuracy    <       0.00014225 Ry

     iteration #  8     ecut=    50.00 Ry     beta= 0.01
     Davidson diagonalization with overlap
     ethr =  1.78E-06,  avg # of iterations =  3.0

     total cpu time spent up to now is       22.4 secs

     total energy              =     -15.47708339 Ry
     estimated scf accuracy    <       0.00016307 Ry

     iteration #  9     ecut=    50.00 Ry     beta= 0.01
     Davidson diagonalization with overlap
     ethr =  1.78E-06,  avg # of iterations =  1.0

     total cpu time spent up to now is       24.5 secs

     total energy              =     -15.47709469 Ry
     estimated scf accuracy    <       0.00006120 Ry

     iteration # 10     ecut=    50.00 Ry     beta= 0.01
     Davidson diagonalization with overlap
     ethr =  7.65E-07,  avg # of iterations =  1.0

     total cpu time spent up to now is       26.7 secs

     total energy              =     -15.47711224 Ry
     estimated scf accuracy    <       0.00004634 Ry

     iteration # 11     ecut=    50.00 Ry     beta= 0.01
     Davidson diagonalization with overlap
     ethr =  5.79E-07,  avg # of iterations =  2.0

     total cpu time spent up to now is       29.5 secs

     total energy              =     -15.47712329 Ry
     estimated scf accuracy    <       0.00000225 Ry

     iteration # 12     ecut=    50.00 Ry     beta= 0.01
     Davidson diagonalization with overlap
     ethr =  2.81E-08,  avg # of iterations =  1.6

     total cpu time spent up to now is       31.7 secs

     total energy              =     -15.47712109 Ry
     estimated scf accuracy    <       0.00000187 Ry

     iteration # 13     ecut=    50.00 Ry     beta= 0.01
     Davidson diagonalization with overlap
     ethr =  2.34E-08,  avg # of iterations =  2.2

     total cpu time spent up to now is       34.6 secs

     End of self-consistent calculation

          k = 0.0000 0.0000 0.0000 (   965 PWs)   bands (ev):

    -4.2117  12.1816  12.1816  12.1816

          k =-0.1000 0.1000-0.1000 (   968 PWs)   bands (ev):

    -4.0108  10.7426  11.8774  11.8774

          k =-0.2000 0.2000-0.2000 (   989 PWs)   bands (ev):

    -3.4127   8.2099  11.3415  11.3415

          k =-0.3000 0.3000-0.3000 (   980 PWs)   bands (ev):

    -2.4374   5.6388  10.9090  10.9090

          k =-0.4000 0.4000-0.4000 (   996 PWs)   bands (ev):

    -1.1596   3.3502  10.6547  10.6547

          k = 0.5000-0.5000 0.5000 (  1008 PWs)   bands (ev):

    -0.1907   2.0374  10.5731  10.5731

          k = 0.0000 0.2000 0.0000 (   974 PWs)   bands (ev):

    -3.9437  11.2179  11.2179  11.4839

          k =-0.1000 0.3000-0.1000 (   984 PWs)   bands (ev):

    -3.4775   9.1377  10.5659  11.2424

          k =-0.2000 0.4000-0.2000 (   991 PWs)   bands (ev):

    -2.6255   6.5952  10.1355  10.6631

          k =-0.3000 0.5000-0.3000 (   999 PWs)   bands (ev):

    -1.4331   4.2056   9.9803  10.0626

          k = 0.6000-0.4000 0.6000 (  1001 PWs)   bands (ev):

    -0.1766   2.3864   9.5851  10.0975

          k = 0.5000-0.3000 0.5000 (  1002 PWs)   bands (ev):

    -0.5473   2.8718   9.3081  10.4530

          k = 0.4000-0.2000 0.4000 (   998 PWs)   bands (ev):

    -1.8636   4.9725   9.2876  10.9846

          k = 0.3000-0.1000 0.3000 (   984 PWs)   bands (ev):

    -2.9517   7.4452   9.5592  11.5894

          k = 0.2000 0.0000 0.2000 (   985 PWs)   bands (ev):

    -3.6772   9.7961  10.2784  12.0342

          k = 0.0000 0.4000 0.0000 (   990 PWs)   bands (ev):

    -3.1442   9.7391   9.8195   9.8195

          k =-0.1000 0.5000-0.1000 (   993 PWs)   bands (ev):

    -2.4214   7.6236   9.3146   9.4117

          k =-0.2000 0.6000-0.2000 (  1005 PWs)   bands (ev):

    -1.3381   5.3115   8.5449   9.1116

          k = 0.7000-0.3000 0.7000 (  1001 PWs)   bands (ev):

    -0.0270   3.2811   7.7647   9.2216

          k = 0.6000-0.2000 0.6000 (   998 PWs)   bands (ev):

     0.3289   2.8302   7.2375   9.6287

          k = 0.5000-0.1000 0.5000 (   998 PWs)   bands (ev):

    -0.9260   4.6243   7.0373  10.2830

          k = 0.4000 0.0000 0.4000 (   999 PWs)   bands (ev):

    -2.1079   6.6846   7.4376  11.0556

          k = 0.0000 0.6000 0.0000 (  1010 PWs)   bands (ev):

    -1.8289   7.3725   8.7187   8.7187

          k =-0.1000 0.7000-0.1000 (  1005 PWs)   bands (ev):

    -0.8670   5.8604   7.6647   8.4270

          k = 0.8000-0.2000 0.8000 (  1004 PWs)   bands (ev):

     0.3931   4.1915   6.3271   8.4602

          k = 0.7000-0.1000 0.7000 (   995 PWs)   bands (ev):

     1.3165   3.1512   5.4404   8.8135

          k = 0.6000-0.0000 0.6000 (  1003 PWs)   bands (ev):

     0.3051   4.2421   5.3011   9.4541

          k = 0.0000 0.8000 0.0000 (  1006 PWs)   bands (ev):

    -0.0287   4.7402   8.0367   8.0367

          k = 0.9000-0.1000 0.9000 (  1001 PWs)   bands (ev):

     1.1364   3.4845   6.9304   7.9728

          k = 0.8000 0.0000 0.8000 (   995 PWs)   bands (ev):

     2.1728   2.7160   5.4408   8.2385

          k = 0.0000-1.0000 0.0000 (   982 PWs)   bands (ev):

     2.1987   2.1987   7.8066   7.8066

          k =-0.2000 0.4000 0.0000 (   987 PWs)   bands (ev):

    -2.8832   8.2116   8.8691  10.9400

          k =-0.3000 0.5000-0.1000 (  1002 PWs)   bands (ev):

    -1.9141   6.0029   8.2574  10.2674

          k = 0.6000-0.4000 0.8000 (  1001 PWs)   bands (ev):

    -0.6434   3.7827   8.1274   9.6047

          k = 0.5000-0.3000 0.7000 (  1002 PWs)   bands (ev):

     0.3258   2.4842   8.1367   9.3166

          k =-0.2000 0.6000 0.0000 (  1001 PWs)   bands (ev):

    -1.5795   6.6646   7.7595   8.9535

          k = 0.7000-0.3000 0.9000 (  1006 PWs)   bands (ev):

    -0.4015   4.8453   7.0094   8.2869

          k = 0.6000-0.2000 0.8000 (  1002 PWs)   bands (ev):

     0.8457   3.1757   6.4712   8.2010

          k = 0.5000-0.1000 0.7000 (  1004 PWs)   bands (ev):

     0.4516   3.6829   6.1072   8.6506

          k = 0.4000 0.0000 0.6000 (  1007 PWs)   bands (ev):

    -0.8467   5.3888   6.3340   9.4321

          k = 0.8000-0.2000 1.0000 (  1003 PWs)   bands (ev):

     0.1957   4.6915   7.1001   7.4805

          k = 0.7000-0.1000 0.9000 (  1000 PWs)   bands (ev):

     1.4836   3.5011   5.7442   7.3900

          k = 0.6000 0.0000 0.8000 (   995 PWs)   bands (ev):

     1.6586   3.3879   4.9947   7.8503

          k =-0.2000-1.0000 0.0000 (   998 PWs)   bands (ev):

     2.3594   2.3594   6.9633   6.9633

          k = 0.6000-0.2000 1.0000 (  1003 PWs)   bands (ev):

     0.8269   4.2200   5.7528   7.2265

          k = 0.5000-0.1000 0.9000 (  1002 PWs)   bands (ev):

     1.8057   3.3159   5.4943   6.7824

          k =-0.4000-1.0000 0.0000 (  1006 PWs)   bands (ev):

     2.6913   2.6913   5.9068   5.9068

     highest occupied level (ev):    12.1816

!    total energy              =     -15.47712177 Ry
     estimated scf accuracy    <       0.00000011 Ry

     The total energy is the sum of the following terms:
     one-electron contribution =       8.91447748 Ry
     hartree contribution      =       0.74300494 Ry
     xc contribution           =      -5.42305043 Ry
     ewald contribution        =     -19.71155377 Ry

     convergence has been achieved in  13 iterations
     Writing meta-gga kinetic term

     Writing all to output data dir ./input_pw/Si/2/pwscf.save/
     Writing meta-gga kinetic term
 
     init_run     :      1.77s CPU      3.67s WALL (       1 calls)
     electrons    :     15.05s CPU     30.87s WALL (       1 calls)

     Called by init_run:
     wfcinit      :      1.68s CPU      3.44s WALL (       1 calls)
     potinit      :      0.02s CPU      0.07s WALL (       1 calls)
     hinit0       :      0.06s CPU      0.13s WALL (       1 calls)

     Called by electrons:
     c_bands      :     11.96s CPU     24.60s WALL (      13 calls)
     sum_band     :      2.70s CPU      5.46s WALL (      13 calls)
     v_of_rho     :      0.28s CPU      0.60s WALL (      14 calls)
     mix_rho      :      0.11s CPU      0.25s WALL (      13 calls)

     Called by c_bands:
     init_us_2    :      0.16s CPU      0.30s WALL (    1269 calls)
     init_us_2:cp :      0.16s CPU      0.30s WALL (    1269 calls)
     cegterg      :     11.77s CPU     24.27s WALL (     611 calls)

     Called by *egterg:
     cdiaghg      :      0.09s CPU      0.21s WALL (    1556 calls)
     h_psi        :     13.07s CPU     27.01s WALL (    1603 calls)
     g_psi        :      0.01s CPU      0.03s WALL (     945 calls)

     Called by h_psi:
     h_psi:calbec :      0.07s CPU      0.14s WALL (    1603 calls)
     vloc_psi     :      3.21s CPU      6.94s WALL (    1603 calls)
     add_vuspsi   :      0.05s CPU      0.07s WALL (    1603 calls)
     h_psi_meta   :      9.71s CPU     19.75s WALL (    1603 calls)

     General routines
     calbec       :      0.06s CPU      0.14s WALL (    1603 calls)
     fft          :      0.03s CPU      0.06s WALL (     165 calls)
     ffts         :      0.04s CPU      0.10s WALL (     212 calls)
     fftw         :     12.92s CPU     26.61s WALL (   63632 calls)
     interpolate  :      0.00s CPU      0.00s WALL (      14 calls)
 
     Parallel routines
 
     PWSCF        :     16.86s CPU     34.64s WALL

 
   This run was terminated on:  12:50:16  21Feb2023            

=------------------------------------------------------------------------------=
   JOB DONE.
=------------------------------------------------------------------------------=
