
     Program PWSCF v.7.0 starts on 19Feb2023 at 20:30:24 

     This program is part of the open-source Quantum ESPRESSO suite
     for quantum simulation of materials; please cite
         "P. Giannozzi et al., J. Phys.:Condens. Matter 21 395502 (2009);
         "P. Giannozzi et al., J. Phys.:Condens. Matter 29 465901 (2017);
         "P. Giannozzi et al., J. Chem. Phys. 152 154105 (2020);
          URL http://www.quantum-espresso.org", 
     in publications or presentations arising from this work. More details at
     http://www.quantum-espresso.org/quote

     Parallel version (MPI), running on     1 processors

     MPI processes distributed on     1 nodes
     9147 MiB available memory on the printing compute node when the environment starts
 
     Waiting for input...
     Reading input from standard input

     Current dimensions of program PWSCF are:
     Max number of different atomic species (ntypx) = 10
     Max number of k-points (npk) =  40000
     Max angular momentum in pseudopotentials (lmaxx) =  4
     file Al.SCAN.UPF: wavefunction(s)  0D renormalized

     WARNING: the MGGA functional with ID    5 has been 
     read together with other dft terms, but it should 
     stand alone in order to work properly. The other 
     terms will be ignored.

     Subspace diagonalization in iterative solution of the eigenvalue problem:
     a serial algorithm will be used

 
     G-vector sticks info
     --------------------
     sticks:   dense  smooth     PW     G-vecs:    dense   smooth      PW
     Sum         733     733    223                12939    12939    2229
 
     Using Slab Decomposition
 


     bravais-lattice index     =            2
     lattice parameter (alat)  =      10.2631  a.u.
     unit-cell volume          =     270.2562 (a.u.)^3
     number of atoms/cell      =            1
     number of atomic types    =            1
     number of electrons       =         3.00
     number of Kohn-Sham states=            6
     kinetic-energy cutoff     =      50.0000  Ry
     charge density cutoff     =     200.0000  Ry
     scf convergence threshold =      1.0E-06
     mixing beta               =       0.0100
     number of iterations used =            8  local-TF  mixing
     energy convergence thresh.=      1.0E-04
     force convergence thresh. =      1.0E-03
     press convergence thresh. =      5.0E-01
     Exchange-correlation=  SLA  PW   SCAN SCAN
                           (   0   0   0   0   0 263 267)
     nstep                     =           50


     celldm(1)=  10.263100  celldm(2)=   0.000000  celldm(3)=   0.000000
     celldm(4)=   0.000000  celldm(5)=   0.000000  celldm(6)=   0.000000

     crystal axes: (cart. coord. in units of alat)
               a(1) = (  -0.500000   0.000000   0.500000 )  
               a(2) = (   0.000000   0.500000   0.500000 )  
               a(3) = (  -0.500000   0.500000   0.000000 )  

     reciprocal axes: (cart. coord. in units 2 pi/alat)
               b(1) = ( -1.000000 -1.000000  1.000000 )  
               b(2) = (  1.000000  1.000000  1.000000 )  
               b(3) = ( -1.000000  1.000000 -1.000000 )  


     PseudoPot. # 1 for Al read from file:
     ~/Documents/PWDFT.jl/pseudopotentials/scan_upf/Al.SCAN.UPF
     MD5 check sum: Not computed, couldn't open file
     Pseudo is Norm-conserving, Zval =  3.0
     Generated by new atomic code, or converted to UPF format
     Using radial grid of 1467 points,  2 beta functions with: 
                l(1) =   0
                l(2) =   1

     atomic species   valence    mass     pseudopotential
        Al             3.00    26.98154     Al( 1.00)

     48 Sym. Ops., with inversion, found



   Cartesian axes

     site n.     atom                  positions (alat units)
         1           Al  tau(   1) = (   0.0000000   0.0000000   0.0000000  )

     number of k points=    47  Gaussian smearing, width (Ry)=  0.1000
                       cart. coord. in units 2pi/alat
        k(    1) = (   0.0000000   0.0000000   0.0000000), wk =   0.0020000
        k(    2) = (  -0.1000000   0.1000000  -0.1000000), wk =   0.0160000
        k(    3) = (  -0.2000000   0.2000000  -0.2000000), wk =   0.0160000
        k(    4) = (  -0.3000000   0.3000000  -0.3000000), wk =   0.0160000
        k(    5) = (  -0.4000000   0.4000000  -0.4000000), wk =   0.0160000
        k(    6) = (   0.5000000  -0.5000000   0.5000000), wk =   0.0080000
        k(    7) = (   0.0000000   0.2000000   0.0000000), wk =   0.0120000
        k(    8) = (  -0.1000000   0.3000000  -0.1000000), wk =   0.0480000
        k(    9) = (  -0.2000000   0.4000000  -0.2000000), wk =   0.0480000
        k(   10) = (  -0.3000000   0.5000000  -0.3000000), wk =   0.0480000
        k(   11) = (   0.6000000  -0.4000000   0.6000000), wk =   0.0480000
        k(   12) = (   0.5000000  -0.3000000   0.5000000), wk =   0.0480000
        k(   13) = (   0.4000000  -0.2000000   0.4000000), wk =   0.0480000
        k(   14) = (   0.3000000  -0.1000000   0.3000000), wk =   0.0480000
        k(   15) = (   0.2000000   0.0000000   0.2000000), wk =   0.0240000
        k(   16) = (   0.0000000   0.4000000   0.0000000), wk =   0.0120000
        k(   17) = (  -0.1000000   0.5000000  -0.1000000), wk =   0.0480000
        k(   18) = (  -0.2000000   0.6000000  -0.2000000), wk =   0.0480000
        k(   19) = (   0.7000000  -0.3000000   0.7000000), wk =   0.0480000
        k(   20) = (   0.6000000  -0.2000000   0.6000000), wk =   0.0480000
        k(   21) = (   0.5000000  -0.1000000   0.5000000), wk =   0.0480000
        k(   22) = (   0.4000000   0.0000000   0.4000000), wk =   0.0240000
        k(   23) = (   0.0000000   0.6000000   0.0000000), wk =   0.0120000
        k(   24) = (  -0.1000000   0.7000000  -0.1000000), wk =   0.0480000
        k(   25) = (   0.8000000  -0.2000000   0.8000000), wk =   0.0480000
        k(   26) = (   0.7000000  -0.1000000   0.7000000), wk =   0.0480000
        k(   27) = (   0.6000000  -0.0000000   0.6000000), wk =   0.0240000
        k(   28) = (   0.0000000   0.8000000   0.0000000), wk =   0.0120000
        k(   29) = (   0.9000000  -0.1000000   0.9000000), wk =   0.0480000
        k(   30) = (   0.8000000   0.0000000   0.8000000), wk =   0.0240000
        k(   31) = (   0.0000000  -1.0000000   0.0000000), wk =   0.0060000
        k(   32) = (  -0.2000000   0.4000000   0.0000000), wk =   0.0480000
        k(   33) = (  -0.3000000   0.5000000  -0.1000000), wk =   0.0960000
        k(   34) = (   0.6000000  -0.4000000   0.8000000), wk =   0.0960000
        k(   35) = (   0.5000000  -0.3000000   0.7000000), wk =   0.0480000
        k(   36) = (  -0.2000000   0.6000000   0.0000000), wk =   0.0480000
        k(   37) = (   0.7000000  -0.3000000   0.9000000), wk =   0.0960000
        k(   38) = (   0.6000000  -0.2000000   0.8000000), wk =   0.0960000
        k(   39) = (   0.5000000  -0.1000000   0.7000000), wk =   0.0960000
        k(   40) = (   0.4000000   0.0000000   0.6000000), wk =   0.0480000
        k(   41) = (   0.8000000  -0.2000000   1.0000000), wk =   0.0480000
        k(   42) = (   0.7000000  -0.1000000   0.9000000), wk =   0.0960000
        k(   43) = (   0.6000000   0.0000000   0.8000000), wk =   0.0480000
        k(   44) = (  -0.2000000  -1.0000000   0.0000000), wk =   0.0240000
        k(   45) = (   0.6000000  -0.2000000   1.0000000), wk =   0.0480000
        k(   46) = (   0.5000000  -0.1000000   0.9000000), wk =   0.0480000
        k(   47) = (  -0.4000000  -1.0000000   0.0000000), wk =   0.0240000

     Dense  grid:    12939 G-vectors     FFT dimensions: (  36,  36,  36)

     Estimated max dynamical RAM per process >      27.38 MB

     WARNING: libxc functional with ID  263 depends
      on external parameters: check the user_guide of
      QE if you need to modify them or to check their
      default values.

     Initial potential from superposition of free atoms

     starting charge       2.9979, renormalised to       3.0000
     Starting wfcs are    9 randomized atomic wfcs

     total cpu time spent up to now is        1.3 secs

     Self-consistent Calculation

     iteration #  1     ecut=    50.00 Ry     beta= 0.01
     Davidson diagonalization with overlap
     ethr =  1.00E-02,  avg # of iterations =  3.0

     Threshold (ethr) on eigenvalues was too large:
     Diagonalizing with lowered threshold

     Davidson diagonalization with overlap
     ethr =  1.40E-04,  avg # of iterations =  2.3

     total cpu time spent up to now is        5.3 secs

     total energy              =      -4.05223054 Ry
     estimated scf accuracy    <       0.00407763 Ry

     iteration #  2     ecut=    50.00 Ry     beta= 0.01
     Davidson diagonalization with overlap
     ethr =  1.36E-04,  avg # of iterations =  1.0

     total cpu time spent up to now is        7.0 secs

     total energy              =      -4.05692170 Ry
     estimated scf accuracy    <       0.00398316 Ry

     iteration #  3     ecut=    50.00 Ry     beta= 0.01
     Davidson diagonalization with overlap
     ethr =  1.33E-04,  avg # of iterations =  2.0

     total cpu time spent up to now is        8.9 secs

     total energy              =      -4.05760862 Ry
     estimated scf accuracy    <       0.00042332 Ry

     iteration #  4     ecut=    50.00 Ry     beta= 0.01
     Davidson diagonalization with overlap
     ethr =  1.41E-05,  avg # of iterations =  2.4

     total cpu time spent up to now is       11.2 secs

     total energy              =      -4.05773437 Ry
     estimated scf accuracy    <       0.00012690 Ry

     iteration #  5     ecut=    50.00 Ry     beta= 0.01
     Davidson diagonalization with overlap
     ethr =  4.23E-06,  avg # of iterations =  1.5

     total cpu time spent up to now is       12.9 secs

     total energy              =      -4.05779658 Ry
     estimated scf accuracy    <       0.00016402 Ry

     iteration #  6     ecut=    50.00 Ry     beta= 0.01
     Davidson diagonalization with overlap
     ethr =  4.23E-06,  avg # of iterations =  1.1

     total cpu time spent up to now is       14.5 secs

     total energy              =      -4.05788464 Ry
     estimated scf accuracy    <       0.00006701 Ry

     iteration #  7     ecut=    50.00 Ry     beta= 0.01
     Davidson diagonalization with overlap
     ethr =  2.23E-06,  avg # of iterations =  2.1

     total cpu time spent up to now is       16.8 secs

     End of self-consistent calculation

          k = 0.0000 0.0000 0.0000 (  1639 PWs)   bands (ev):

    -5.5205   7.7020   7.7020   7.7020  10.7336  10.7336

          k =-0.1000 0.1000-0.1000 (  1606 PWs)   bands (ev):

    -5.3674   6.5063   7.5071   7.5071  10.5671  11.0762

          k =-0.2000 0.2000-0.2000 (  1606 PWs)   bands (ev):

    -4.9118   4.3919   7.1414   7.1414  10.1261  11.4098

          k =-0.3000 0.3000-0.3000 (  1615 PWs)   bands (ev):

    -4.1710   2.3031   6.8377   6.8377   9.7714  10.8830

          k =-0.4000 0.4000-0.4000 (  1616 PWs)   bands (ev):

    -3.2143   0.5033   6.6604   6.6605   9.5764  10.3440

          k = 0.5000-0.5000 0.5000 (  1622 PWs)   bands (ev):

    -2.5336  -0.4625   6.6047   6.6047   9.5180  10.1442

          k = 0.0000 0.2000 0.0000 (  1599 PWs)   bands (ev):

    -5.3162   7.0102   7.0102   7.0136   9.8017  11.6787

          k =-0.1000 0.3000-0.1000 (  1609 PWs)   bands (ev):

    -4.9611   5.1673   6.5175   6.9249   9.7013  11.3871

          k =-0.2000 0.4000-0.2000 (  1607 PWs)   bands (ev):

    -4.3133   3.0776   6.1945   6.4714   9.6146  10.9918

          k =-0.3000 0.5000-0.3000 (  1610 PWs)   bands (ev):

    -3.4147   1.1742   6.0007   6.0888   9.2836  10.7931

          k = 0.6000-0.4000 0.6000 (  1609 PWs)   bands (ev):

    -2.5120  -0.1965   5.6186   6.2002   9.2517  10.6419

          k = 0.5000-0.3000 0.5000 (  1616 PWs)   bands (ev):

    -2.7677   0.1544   5.3904   6.4988   9.5834  10.5874

          k = 0.4000-0.2000 0.4000 (  1621 PWs)   bands (ev):

    -3.7372   1.7777   5.3679   6.9242  10.1904  10.7011

          k = 0.3000-0.1000 0.3000 (  1605 PWs)   bands (ev):

    -4.5610   3.7674   5.5863   7.3758  10.6635  11.2202

          k = 0.2000 0.0000 0.2000 (  1592 PWs)   bands (ev):

    -5.1132   5.6924   6.2063   7.6621  10.7073  11.1451

          k = 0.0000 0.4000 0.0000 (  1607 PWs)   bands (ev):

    -4.7073   5.5343   5.9265   5.9265   8.4876   9.9045

          k =-0.1000 0.5000-0.1000 (  1612 PWs)   bands (ev):

    -4.1578   3.9205   5.4305   5.5297   8.4305   9.4096

          k =-0.2000 0.6000-0.2000 (  1619 PWs)   bands (ev):

    -3.3405   2.0685   4.6787   5.3755   8.1691  10.5867

          k = 0.7000-0.3000 0.7000 (  1606 PWs)   bands (ev):

    -2.3860   0.5112   4.0333   5.4740   8.1535  11.8714

          k = 0.6000-0.2000 0.6000 (  1596 PWs)   bands (ev):

    -2.1478   0.1947   3.6018   5.8131   8.4979  12.1831

          k = 0.5000-0.1000 0.5000 (  1610 PWs)   bands (ev):

    -3.0343   1.5360   3.4377   6.3515   9.1735  12.1036

          k = 0.4000 0.0000 0.4000 (  1610 PWs)   bands (ev):

    -3.9207   3.1682   3.7773   6.9757  10.1210  11.7190

          k = 0.0000 0.6000 0.0000 (  1620 PWs)   bands (ev):

    -3.7087   3.6746   5.0515   5.0515   7.4725   8.0039

          k =-0.1000 0.7000-0.1000 (  1625 PWs)   bands (ev):

    -2.9863   2.5212   4.0261   4.8200   7.3553   8.3564

          k = 0.8000-0.2000 0.8000 (  1619 PWs)   bands (ev):

    -2.0755   1.2986   2.8227   4.8516   7.3168  10.0752

          k = 0.7000-0.1000 0.7000 (  1621 PWs)   bands (ev):

    -1.5030   0.6627   2.0487   5.1431   7.6178  12.0674

          k = 0.6000-0.0000 0.6000 (  1608 PWs)   bands (ev):

    -2.1423   1.4763   1.8376   5.6695   8.2483  13.1117

          k = 0.0000 0.8000 0.0000 (  1624 PWs)   bands (ev):

    -2.3701   1.6529   4.5053   4.5053   6.8499   6.9642

          k = 0.9000-0.1000 0.9000 (  1623 PWs)   bands (ev):

    -1.5834   0.8011   3.4147   4.4555   6.8108   7.8997

          k = 0.8000 0.0000 0.8000 (  1622 PWs)   bands (ev):

    -1.1219   0.6381   2.0387   4.6731   7.0489   9.8934

          k = 0.0000-1.0000 0.0000 (  1604 PWs)   bands (ev):

    -1.2126   0.2344   4.3207   4.3207   6.6409   6.6431

          k =-0.2000 0.4000 0.0000 (  1613 PWs)   bands (ev):

    -4.5088   4.3888   5.0254   6.7851   9.7340  10.4783

          k =-0.3000 0.5000-0.1000 (  1609 PWs)   bands (ev):

    -3.7742   2.6121   4.4816   6.2427   9.6790  10.7616

          k = 0.6000-0.4000 0.8000 (  1618 PWs)   bands (ev):

    -2.8286   0.8690   4.3625   5.6984   9.4889  10.5177

          k = 0.5000-0.3000 0.7000 (  1608 PWs)   bands (ev):

    -2.1620  -0.0724   4.3613   5.4665   9.4709  10.2793

          k =-0.2000 0.6000 0.0000 (  1617 PWs)   bands (ev):

    -3.5209   3.1569   4.0961   5.1300   8.8015   8.9213

          k = 0.7000-0.3000 0.9000 (  1621 PWs)   bands (ev):

    -2.6446   1.7504   3.4102   4.5600   8.7160  10.3567

          k = 0.6000-0.2000 0.8000 (  1613 PWs)   bands (ev):

    -1.7903   0.5413   2.9485   4.4910   8.8723  11.4925

          k = 0.5000-0.1000 0.7000 (  1613 PWs)   bands (ev):

    -2.0442   0.9006   2.6423   4.8628   9.2993  11.3691

          k = 0.4000 0.0000 0.6000 (  1607 PWs)   bands (ev):

    -2.9736   2.2036   2.8151   5.5218   9.8777  11.1760

          k = 0.8000-0.2000 1.0000 (  1621 PWs)   bands (ev):

    -2.2099   1.6641   3.5213   3.9101   8.1080   8.2181

          k = 0.7000-0.1000 0.9000 (  1625 PWs)   bands (ev):

    -1.3794   0.9817   2.2773   3.8139   8.2643  10.0257

          k = 0.6000 0.0000 0.8000 (  1614 PWs)   bands (ev):

    -1.2990   1.2396   1.3689   4.1909   8.6659  12.0107

          k =-0.2000-1.0000 0.0000 (  1624 PWs)   bands (ev):

    -1.1269   0.4364   3.3277   3.5538   7.8553   8.0210

          k = 0.6000-0.2000 1.0000 (  1616 PWs)   bands (ev):

    -1.7788   1.4942   2.2244   3.6287   9.9833  10.6528

          k = 0.5000-0.1000 0.9000 (  1608 PWs)   bands (ev):

    -1.2202   1.0253   1.9578   3.2679  10.1390  11.3911

          k =-0.4000-1.0000 0.0000 (  1626 PWs)   bands (ev):

    -0.9680   1.0389   2.0259   2.7598   9.9162  10.4716

     the Fermi energy is     1.3104 ev

!    total energy              =      -4.05792063 Ry
     estimated scf accuracy    <       0.00000098 Ry
     smearing contrib. (-TS)   =      -0.04724224 Ry
     internal energy E=F+TS    =      -4.01067839 Ry

     The total energy is F=E-TS. E is the sum of the following terms:
     one-electron contribution =       1.19905536 Ry
     hartree contribution      =       0.08769123 Ry
     xc contribution           =      -1.27683091 Ry
     ewald contribution        =      -4.02059408 Ry

     convergence has been achieved in   7 iterations
     Writing meta-gga kinetic term

     Forces acting on atoms (cartesian axes, Ry/au):

     atom    1 type  1   force =     0.00000000    0.00000000    0.00000000

     Total force =     0.000000     Total SCF correction =     0.000000


     Computing stress (Cartesian axis) and pressure

          total   stress  (Ry/bohr**3)                   (kbar)     P=      -67.51
  -0.00045892   0.00000000   0.00000000          -67.51        0.00        0.00
   0.00000000  -0.00045892  -0.00000000            0.00      -67.51       -0.00
   0.00000000  -0.00000000  -0.00045892            0.00       -0.00      -67.51


     BFGS Geometry Optimization
     Energy error            =      0.0E+00 Ry
     Gradient error          =      0.0E+00 Ry/Bohr
     Cell gradient error     =      6.8E+01 kbar

     number of scf cycles    =   1
     number of bfgs steps    =   0

     enthalpy           new  =      -4.0579206253 Ry

     new trust radius        =       0.0377216197 bohr
     new conv_thr            =       0.0000010000 Ry

     new unit-cell volume =    261.06067 a.u.^3 (    38.68520 Ang^3 )
     density =      1.15817 g/cm^3

CELL_PARAMETERS (alat= 10.26310000)
  -0.494263559  -0.000000000   0.494263559
   0.000000000   0.494263559   0.494263559
  -0.494263559   0.494263559  -0.000000000

ATOMIC_POSITIONS (alat)
Al            0.0000000000        0.0000000000        0.0000000000



     Writing config-only to output data dir ./pwscf.save/
     NEW-OLD atomic charge density approx. for the potential
     extrapolated charge    2.89440, renormalised to    3.00000

     total cpu time spent up to now is       17.6 secs

     Self-consistent Calculation

     iteration #  1     ecut=    50.00 Ry     beta= 0.01
     Davidson diagonalization with overlap
     ethr =  1.00E-06,  avg # of iterations =  3.1

     total cpu time spent up to now is       20.1 secs

     total energy              =      -4.06229533 Ry
     estimated scf accuracy    <       0.00001222 Ry

     iteration #  2     ecut=    50.00 Ry     beta= 0.01
     Davidson diagonalization with overlap
     ethr =  4.07E-07,  avg # of iterations =  3.0

     total cpu time spent up to now is       22.6 secs

     total energy              =      -4.06241238 Ry
     estimated scf accuracy    <       0.00000350 Ry

     iteration #  3     ecut=    50.00 Ry     beta= 0.01
     Davidson diagonalization with overlap
     ethr =  1.17E-07,  avg # of iterations =  1.0

     total cpu time spent up to now is       24.2 secs

     total energy              =      -4.06230372 Ry
     estimated scf accuracy    <       0.00000348 Ry

     iteration #  4     ecut=    50.00 Ry     beta= 0.01
     Davidson diagonalization with overlap
     ethr =  1.16E-07,  avg # of iterations =  2.6

     total cpu time spent up to now is       26.6 secs

     total energy              =      -4.06236095 Ry
     estimated scf accuracy    <       0.00000103 Ry

     iteration #  5     ecut=    50.00 Ry     beta= 0.01
     Davidson diagonalization with overlap
     ethr =  3.42E-08,  avg # of iterations =  2.7

     total cpu time spent up to now is       28.6 secs

     End of self-consistent calculation

          k = 0.0000 0.0000 0.0000 (  1639 PWs)   bands (ev):

    -5.5378   8.1634   8.1634   8.1634  11.0534  11.0534

          k =-0.1012 0.1012-0.1012 (  1606 PWs)   bands (ev):

    -5.3787   6.8884   7.9474   7.9474  10.9288  11.4234

          k =-0.2023 0.2023-0.2023 (  1606 PWs)   bands (ev):

    -4.9051   4.6763   7.5540   7.5540  10.5120  11.7799

          k =-0.3035 0.3035-0.3035 (  1615 PWs)   bands (ev):

    -4.1325   2.5023   7.2361   7.2361  10.1663  11.2265

          k =-0.4046 0.4046-0.4046 (  1616 PWs)   bands (ev):

    -3.1243   0.6201   7.0548   7.0548   9.9773  10.6626

          k = 0.5058-0.5058 0.5058 (  1622 PWs)   bands (ev):

    -2.3810  -0.4187   6.9987   6.9987   9.9215  10.4534

          k = 0.0000 0.2023 0.0000 (  1599 PWs)   bands (ev):

    -5.3256   7.4063   7.4063   7.4615  10.0895  12.0727

          k =-0.1012 0.3035-0.1012 (  1609 PWs)   bands (ev):

    -4.9564   5.4931   6.8832   7.3371  10.0219  11.7622

          k =-0.2023 0.4046-0.2023 (  1607 PWs)   bands (ev):

    -4.2816   3.3119   6.5455   6.8550   9.9373  11.4049

          k =-0.3035 0.5058-0.3035 (  1610 PWs)   bands (ev):

    -3.3390   1.3249   6.3606   6.4385   9.5873  11.2294

          k = 0.6070-0.4046 0.6070 (  1609 PWs)   bands (ev):

    -2.3663  -0.1336   5.9567   6.5603   9.5579  11.0805

          k = 0.5058-0.3035 0.5058 (  1616 PWs)   bands (ev):

    -2.6477   0.2465   5.7119   6.8795   9.9087  11.0192

          k = 0.4046-0.2023 0.4046 (  1621 PWs)   bands (ev):

    -3.6785   1.9560   5.6815   7.3328  10.5549  11.1144

          k = 0.3035-0.1012 0.3035 (  1605 PWs)   bands (ev):

    -4.5399   4.0321   5.9011   7.8153  11.0801  11.6058

          k = 0.2023 0.0000 0.2023 (  1592 PWs)   bands (ev):

    -5.1146   6.0580   6.5322   8.1237  11.1036  11.4788

          k = 0.0000 0.4046 0.0000 (  1607 PWs)   bands (ev):

    -4.6926   5.9394   6.2599   6.2599   8.7308  10.2336

          k =-0.1012 0.5058-0.1012 (  1612 PWs)   bands (ev):

    -4.1203   4.2165   5.7546   5.8453   8.6937   9.7452

          k =-0.2023 0.6070-0.2023 (  1619 PWs)   bands (ev):

    -3.2645   2.2688   4.9684   5.6858   8.4356  10.9897

          k = 0.7081-0.3035 0.7081 (  1606 PWs)   bands (ev):

    -2.2463   0.6188   4.2946   5.7906   8.4283  12.3492

          k = 0.6070-0.2023 0.6070 (  1596 PWs)   bands (ev):

    -1.9815   0.2713   3.8421   6.1477   8.7898  12.6750

          k = 0.5058-0.1012 0.5058 (  1610 PWs)   bands (ev):

    -2.9401   1.7057   3.6627   6.7163   9.4904  12.5826

          k = 0.4046 0.0000 0.4046 (  1610 PWs)   bands (ev):

    -3.8718   3.4445   3.9794   7.3822  10.4693  12.1778

          k = 0.0000 0.6070 0.0000 (  1620 PWs)   bands (ev):

    -3.6522   3.9955   5.3459   5.3459   7.6812   8.2948

          k =-0.1012 0.7081-0.1012 (  1625 PWs)   bands (ev):

    -2.8952   2.7828   4.2492   5.1053   7.5978   8.6705

          k = 0.8093-0.2023 0.8093 (  1619 PWs)   bands (ev):

    -1.9253   1.4716   3.0010   5.1390   7.5706  10.4594

          k = 0.7081-0.1012 0.7081 (  1621 PWs)   bands (ev):

    -1.2828   0.7458   2.2103   5.4437   7.8855  12.5279

          k = 0.6070 0.0000 0.6070 (  1608 PWs)   bands (ev):

    -1.9901   1.6595   1.9631   5.9954   8.5371  13.5763

          k = 0.0000 0.8093 0.0000 (  1624 PWs)   bands (ev):

    -2.2460   1.8612   4.7777   4.7777   7.0375   7.2503

          k = 0.9104-0.1012 0.9104 (  1623 PWs)   bands (ev):

    -1.3958   0.9420   3.6155   4.7261   7.0510   8.2005

          k = 0.8093 0.0000 0.8093 (  1622 PWs)   bands (ev):

    -0.8592   0.7198   2.1733   4.9529   7.2997  10.2714

          k = 0.0000-1.0116 0.0000 (  1604 PWs)   bands (ev):

    -0.9648   0.3017   4.5859   4.5859   6.8213   6.9296

          k =-0.2023 0.4046 0.0000 (  1613 PWs)   bands (ev):

    -4.4858   4.7133   5.2879   7.1847  10.0630  10.8364

          k =-0.3035 0.5058-0.1012 (  1609 PWs)   bands (ev):

    -3.7186   2.8349   4.7503   6.5965  10.0157  11.1682

          k = 0.6070-0.4046 0.8093 (  1618 PWs)   bands (ev):

    -2.7202   1.0021   4.6396   6.0129   9.8330  10.9005

          k = 0.5058-0.3035 0.7081 (  1608 PWs)   bands (ev):

    -1.9892  -0.0151   4.6449   5.7634   9.8229  10.6447

          k =-0.2023 0.6070-0.0000 (  1617 PWs)   bands (ev):

    -3.4549   3.4496   4.3186   5.4136   9.0952   9.2670

          k = 0.7081-0.3035 0.9104 (  1621 PWs)   bands (ev):

    -2.5315   1.9453   3.6329   4.8060   9.0424  10.7488

          k = 0.6070-0.2023 0.8093 (  1613 PWs)   bands (ev):

    -1.6011   0.6321   3.1620   4.7359   9.2109  11.9239

          k = 0.5058-0.1012 0.7081 (  1613 PWs)   bands (ev):

    -1.8823   1.0233   2.8372   5.1290   9.6581  11.7772

          k = 0.4046-0.0000 0.6070 (  1607 PWs)   bands (ev):

    -2.8779   2.4412   2.9786   5.8241  10.2632  11.5695

          k = 0.8093-0.2023 1.0116 (  1621 PWs)   bands (ev):

    -2.0736   1.8773   3.7211   4.1323   8.4520   8.4912

          k = 0.7081-0.1012 0.9104 (  1625 PWs)   bands (ev):

    -1.1628   1.1172   2.4217   4.0332   8.5852  10.4059

          k = 0.6070 0.0000 0.8093 (  1614 PWs)   bands (ev):

    -1.0608   1.3431   1.4989   4.4271   9.0011  12.4693

          k =-0.2023-1.0116 0.0000 (  1624 PWs)   bands (ev):

    -0.8685   0.5109   3.5200   3.7694   8.1984   8.2872

          k = 0.6070-0.2023 1.0116 (  1616 PWs)   bands (ev):

    -1.6031   1.6840   2.3656   3.8276  10.4086  11.0228

          k = 0.5058-0.1012 0.9104 (  1608 PWs)   bands (ev):

    -0.9736   1.1213   2.1163   3.4499  10.5639  11.7871

          k =-0.4046-1.0116 0.0000 (  1626 PWs)   bands (ev):

    -0.6870   1.1352   2.1598   2.9246  10.3426  10.8343

     the Fermi energy is     1.4622 ev

!    total energy              =      -4.06236450 Ry
     estimated scf accuracy    <       0.00000068 Ry
     smearing contrib. (-TS)   =      -0.04576397 Ry
     internal energy E=F+TS    =      -4.01660052 Ry

     The total energy is F=E-TS. E is the sum of the following terms:
     one-electron contribution =       1.25559201 Ry
     hartree contribution      =       0.07892827 Ry
     xc contribution           =      -1.28386358 Ry
     ewald contribution        =      -4.06725722 Ry

     convergence has been achieved in   5 iterations
     Writing meta-gga kinetic term

     Forces acting on atoms (cartesian axes, Ry/au):

     atom    1 type  1   force =     0.00000000    0.00000000    0.00000000

     Total force =     0.000000     Total SCF correction =     0.000000


     Computing stress (Cartesian axis) and pressure

          total   stress  (Ry/bohr**3)                   (kbar)     P=      -73.84
  -0.00050196   0.00000000   0.00000000          -73.84        0.00        0.00
  -0.00000000  -0.00050196  -0.00000000           -0.00      -73.84       -0.00
   0.00000000  -0.00000000  -0.00050196            0.00       -0.00      -73.84

     Energy error            =      4.4E-03 Ry
     Gradient error          =      0.0E+00 Ry/Bohr
     Cell gradient error     =      7.4E+01 kbar

     number of scf cycles    =   2
     number of bfgs steps    =   1

     enthalpy           old  =      -4.0579206253 Ry
     enthalpy           new  =      -4.0623644970 Ry

     CASE: enthalpy          _new < enthalpy          _old


     WARNING: bfgs curvature condition failed, Theta= 0.748
     new trust radius        =       0.0290614067 bohr
     new conv_thr            =       0.0000000100 Ry

     new unit-cell volume =    254.08049 a.u.^3 (    37.65084 Ang^3 )
     density =      1.18998 g/cm^3

CELL_PARAMETERS (alat= 10.26310000)
  -0.489818531  -0.000000000   0.489818531
   0.000000000   0.489818531   0.489818531
  -0.489818531   0.489818531  -0.000000000

ATOMIC_POSITIONS (alat)
Al            0.0000000000        0.0000000000        0.0000000000



     Writing config-only to output data dir ./pwscf.save/
     NEW-OLD atomic charge density approx. for the potential
     extrapolated charge    2.91764, renormalised to    3.00000

     total cpu time spent up to now is       29.4 secs

     Self-consistent Calculation

     iteration #  1     ecut=    50.00 Ry     beta= 0.01
     Davidson diagonalization with overlap
     ethr =  1.00E-06,  avg # of iterations =  3.0

     total cpu time spent up to now is       31.8 secs

     total energy              =      -4.06592333 Ry
     estimated scf accuracy    <       0.00001453 Ry

     iteration #  2     ecut=    50.00 Ry     beta= 0.01
     Davidson diagonalization with overlap
     ethr =  4.84E-07,  avg # of iterations =  2.7

     total cpu time spent up to now is       34.2 secs

     total energy              =      -4.06599481 Ry
     estimated scf accuracy    <       0.00000352 Ry

     iteration #  3     ecut=    50.00 Ry     beta= 0.01
     Davidson diagonalization with overlap
     ethr =  1.17E-07,  avg # of iterations =  1.0

     total cpu time spent up to now is       35.8 secs

     total energy              =      -4.06586580 Ry
     estimated scf accuracy    <       0.00000335 Ry

     iteration #  4     ecut=    50.00 Ry     beta= 0.01
     Davidson diagonalization with overlap
     ethr =  1.12E-07,  avg # of iterations =  2.7

     total cpu time spent up to now is       38.2 secs

     total energy              =      -4.06591083 Ry
     estimated scf accuracy    <       0.00000049 Ry

     iteration #  5     ecut=    50.00 Ry     beta= 0.01
     Davidson diagonalization with overlap
     ethr =  1.64E-08,  avg # of iterations =  2.9

     total cpu time spent up to now is       40.3 secs

     total energy              =      -4.06591894 Ry
     estimated scf accuracy    <       0.00000035 Ry

     iteration #  6     ecut=    50.00 Ry     beta= 0.01
     Davidson diagonalization with overlap
     ethr =  1.17E-08,  avg # of iterations =  1.0

     total cpu time spent up to now is       41.9 secs

     total energy              =      -4.06591757 Ry
     estimated scf accuracy    <       0.00000031 Ry

     iteration #  7     ecut=    50.00 Ry     beta= 0.01
     Davidson diagonalization with overlap
     ethr =  1.04E-08,  avg # of iterations =  2.4

     total cpu time spent up to now is       43.8 secs

     total energy              =      -4.06591944 Ry
     estimated scf accuracy    <       0.00000027 Ry

     iteration #  8     ecut=    50.00 Ry     beta= 0.01
     Davidson diagonalization with overlap
     ethr =  9.14E-09,  avg # of iterations =  1.8

     total cpu time spent up to now is       45.7 secs

     total energy              =      -4.06591957 Ry
     estimated scf accuracy    <       0.00000022 Ry

     iteration #  9     ecut=    50.00 Ry     beta= 0.01
     Davidson diagonalization with overlap
     ethr =  7.26E-09,  avg # of iterations =  1.7

     total cpu time spent up to now is       47.4 secs

     total energy              =      -4.06591969 Ry
     estimated scf accuracy    <       0.00000009 Ry

     iteration # 10     ecut=    50.00 Ry     beta= 0.01
     Davidson diagonalization with overlap
     ethr =  3.12E-09,  avg # of iterations =  1.0

     total cpu time spent up to now is       49.1 secs

     total energy              =      -4.06591968 Ry
     estimated scf accuracy    <       0.00000005 Ry

     iteration # 11     ecut=    50.00 Ry     beta= 0.01
     Davidson diagonalization with overlap
     ethr =  1.62E-09,  avg # of iterations =  1.9

     total cpu time spent up to now is       50.9 secs

     total energy              =      -4.06591970 Ry
     estimated scf accuracy    <       0.00000003 Ry

     iteration # 12     ecut=    50.00 Ry     beta= 0.01
     Davidson diagonalization with overlap
     ethr =  9.86E-10,  avg # of iterations =  2.0

     total cpu time spent up to now is       52.8 secs

     End of self-consistent calculation

          k = 0.0000 0.0000 0.0000 (  1639 PWs)   bands (ev):

    -5.5023   8.4792   8.4792   8.4792  11.2888  11.2888

          k =-0.1021 0.1021-0.1021 (  1606 PWs)   bands (ev):

    -5.3398   7.1564   8.2508   8.2508  11.1806  11.6754

          k =-0.2042 0.2042-0.2042 (  1606 PWs)   bands (ev):

    -4.8557   4.8867   7.8425   7.8425  10.7760  12.0426

          k =-0.3062 0.3062-0.3062 (  1615 PWs)   bands (ev):

    -4.0648   2.6629   7.5181   7.5181  10.4375  11.4669

          k =-0.4083 0.4083-0.4083 (  1616 PWs)   bands (ev):

    -3.0267   0.7327   7.3359   7.3359  10.2544  10.8855

          k = 0.5104-0.5104 0.5104 (  1622 PWs)   bands (ev):

    -2.2444  -0.3510   7.2804   7.2804  10.2013  10.6698

          k =-0.0000 0.2042 0.0000 (  1599 PWs)   bands (ev):

    -5.2856   7.6832   7.6832   7.7719  10.2952  12.3524

          k =-0.1021 0.3062-0.1021 (  1609 PWs)   bands (ev):

    -4.9083   5.7282   7.1431   7.6266  10.2460  12.0093

          k =-0.2042 0.4083-0.2042 (  1607 PWs)   bands (ev):

    -4.2179   3.4931   6.7979   7.1287  10.1575  11.6812

          k =-0.3062 0.5104-0.3062 (  1610 PWs)   bands (ev):

    -3.2499   1.4574   6.6210   6.6911   9.7943  11.5258

          k = 0.6125-0.4083 0.6125 (  1609 PWs)   bands (ev):

    -2.2348  -0.0537   6.2037   6.8201   9.7671  11.3794

          k = 0.5104-0.3062 0.5104 (  1616 PWs)   bands (ev):

    -2.5322   0.3444   5.9481   7.1523  10.1313  11.3119

          k = 0.4083-0.2042 0.4083 (  1621 PWs)   bands (ev):

    -3.5992   2.1046   5.9118   7.6224  10.8034  11.3929

          k = 0.3062-0.1021 0.3062 (  1605 PWs)   bands (ev):

    -4.4823   4.2311   6.1311   8.1226  11.3617  11.8682

          k = 0.2042 0.0000 0.2042 (  1592 PWs)   bands (ev):

    -5.0700   6.3180   6.7659   8.4423  11.3703  11.7216

          k =-0.0000 0.4083 0.0000 (  1607 PWs)   bands (ev):

    -4.6388   6.2282   6.5012   6.5012   8.9061  10.4500

          k =-0.1021 0.5104-0.1021 (  1612 PWs)   bands (ev):

    -4.0533   4.4357   5.9934   6.0768   8.8789   9.9690

          k =-0.2042 0.6125-0.2042 (  1619 PWs)   bands (ev):

    -3.1753   2.4312   5.1866   5.9148   8.6187  11.2577

          k = 0.7146-0.3062 0.7146 (  1606 PWs)   bands (ev):

    -2.1195   0.7263   4.4952   6.0238   8.6168  12.6634

          k = 0.6125-0.2042 0.6125 (  1596 PWs)   bands (ev):

    -1.8381   0.3592   4.0296   6.3919   8.9895  12.6381

          k = 0.5104-0.1021 0.5104 (  1610 PWs)   bands (ev):

    -2.8402   1.8492   3.8410   6.9788   9.7062  12.4771

          k = 0.4083 0.0000 0.4083 (  1610 PWs)   bands (ev):

    -3.7982   3.6521   4.1416   7.6700  10.7062  12.4769

          k =-0.0000 0.6125 0.0000 (  1620 PWs)   bands (ev):

    -3.5743   4.2353   5.5654   5.5654   7.8358   8.4873

          k =-0.1021 0.7146-0.1021 (  1625 PWs)   bands (ev):

    -2.7976   2.9872   4.4227   5.3198   7.7672   8.8867

          k = 0.8166-0.2042 0.8166 (  1619 PWs)   bands (ev):

    -1.7936   1.6217   3.1491   5.3550   7.7465  10.7184

          k = 0.7146-0.1021 0.7146 (  1621 PWs)   bands (ev):

    -1.1066   0.8376   2.3501   5.6677   8.0702  12.8318

          k = 0.6125 0.0000 0.6125 (  1608 PWs)   bands (ev):

    -1.8562   1.8116   2.0824   6.2345   8.7350  13.8818

          k =-0.0000 0.8166 0.0000 (  1624 PWs)   bands (ev):

    -2.1297   2.0342   4.9850   4.9850   7.1798   7.4412

          k = 0.9187-0.1021 0.9187 (  1623 PWs)   bands (ev):

    -1.2431   1.0762   3.7756   4.9325   7.2183   8.4109

          k = 0.8166 0.0000 0.8166 (  1622 PWs)   bands (ev):

    -0.6572   0.8150   2.2923   5.1647   7.4741  10.5273

          k = 0.0000-1.0208-0.0000 (  1604 PWs)   bands (ev):

    -0.7737   0.3891   4.7892   4.7892   6.9596   7.1212

          k =-0.2042 0.4083 0.0000 (  1613 PWs)   bands (ev):

    -4.4271   4.9500   5.4850   7.4679  10.2910  11.0713

          k =-0.3062 0.5104-0.1021 (  1609 PWs)   bands (ev):

    -3.6412   3.0096   4.9545   6.8506  10.2432  11.4397

          k = 0.6125-0.4083 0.8166 (  1618 PWs)   bands (ev):

    -2.6120   1.1245   4.8500   6.2417  10.0651  11.1620

          k = 0.5104-0.3062 0.7146 (  1608 PWs)   bands (ev):

    -1.8409   0.0605   4.8602   5.9806  10.0598  10.8960

          k =-0.2042 0.6125 0.0000 (  1617 PWs)   bands (ev):

    -3.3717   3.6708   4.4931   5.6233   9.3024   9.4970

          k = 0.7146-0.3062 0.9187 (  1621 PWs)   bands (ev):

    -2.4209   2.1056   3.8117   4.9910   9.2649  11.0121

          k = 0.6125-0.2042 0.8166 (  1613 PWs)   bands (ev):

    -1.4444   0.7290   3.3351   4.9208   9.4412  12.2119

          k = 0.5104-0.1021 0.7146 (  1613 PWs)   bands (ev):

    -1.7426   1.1393   2.9987   5.3277   9.9005  12.0520

          k = 0.4083 0.0000 0.6125 (  1607 PWs)   bands (ev):

    -2.7773   2.6269   3.1191   6.0453  10.5207  11.8343

          k = 0.8166-0.2042 1.0208 (  1621 PWs)   bands (ev):

    -1.9502   2.0541   3.8828   4.3025   8.6834   8.6865

          k = 0.7146-0.1021 0.9187 (  1625 PWs)   bands (ev):

    -0.9916   1.2474   2.5481   4.2032   8.8050  10.6632

          k = 0.6125 0.0000 0.8166 (  1614 PWs)   bands (ev):

    -0.8740   1.4503   1.6174   4.6077   9.2298  12.7727

          k =-0.2042-1.0208 0.0000 (  1624 PWs)   bands (ev):

    -0.6703   0.6022   3.6775   3.9361   8.4298   8.4785

          k = 0.6125-0.2042 1.0208 (  1616 PWs)   bands (ev):

    -1.4560   1.8449   2.4938   3.9824  10.6900  11.2740

          k = 0.5104-0.1021 0.9187 (  1608 PWs)   bands (ev):

    -0.7816   1.2210   2.2580   3.5939  10.8453  12.0548

          k =-0.4083-1.0208-0.0000 (  1626 PWs)   bands (ev):

    -0.4730   1.2384   2.2840   3.0561  10.6255  11.0812

     the Fermi energy is     1.5966 ev

!    total energy              =      -4.06591971 Ry
     estimated scf accuracy    <          1.6E-10 Ry
     smearing contrib. (-TS)   =      -0.04493441 Ry
     internal energy E=F+TS    =      -4.02098530 Ry

     The total energy is F=E-TS. E is the sum of the following terms:
     one-electron contribution =       1.30019063 Ry
     hartree contribution      =       0.07329302 Ry
     xc contribution           =      -1.29030199 Ry
     ewald contribution        =      -4.10416695 Ry

     convergence has been achieved in  12 iterations
     Writing meta-gga kinetic term

     Forces acting on atoms (cartesian axes, Ry/au):

     atom    1 type  1   force =     0.00000000    0.00000000    0.00000000

     Total force =     0.000000     Total SCF correction =     0.000000


     Computing stress (Cartesian axis) and pressure

          total   stress  (Ry/bohr**3)                   (kbar)     P=      -76.62
  -0.00052085   0.00000000   0.00000000          -76.62        0.00        0.00
   0.00000000  -0.00052085  -0.00000000            0.00      -76.62       -0.00
   0.00000000  -0.00000000  -0.00052085            0.00       -0.00      -76.62

     Energy error            =      3.6E-03 Ry
     Gradient error          =      0.0E+00 Ry/Bohr
     Cell gradient error     =      7.7E+01 kbar

     number of scf cycles    =   3
     number of bfgs steps    =   2

     enthalpy           old  =      -4.0623644970 Ry
     enthalpy           new  =      -4.0659197106 Ry

     CASE: enthalpy          _new < enthalpy          _old


     WARNING: bfgs curvature condition failed, Theta= 0.785
     new trust radius        =       0.0433956503 bohr
     new conv_thr            =       0.0000000100 Ry

     new unit-cell volume =    243.84525 a.u.^3 (    36.13414 Ang^3 )
     density =      1.23993 g/cm^3

CELL_PARAMETERS (alat= 10.26310000)
  -0.483150989  -0.000000000   0.483150989
   0.000000000   0.483150989   0.483150989
  -0.483150989   0.483150989  -0.000000000

ATOMIC_POSITIONS (alat)
Al            0.0000000000        0.0000000000        0.0000000000



     Writing config-only to output data dir ./pwscf.save/
     NEW-OLD atomic charge density approx. for the potential
     extrapolated charge    2.87416, renormalised to    3.00000

     total cpu time spent up to now is       53.6 secs

     Self-consistent Calculation

     iteration #  1     ecut=    50.00 Ry     beta= 0.01
     Davidson diagonalization with overlap
     ethr =  1.00E-06,  avg # of iterations =  3.0

     total cpu time spent up to now is       56.2 secs

     total energy              =      -4.07149333 Ry
     estimated scf accuracy    <       0.00002670 Ry

     iteration #  2     ecut=    50.00 Ry     beta= 0.01
     Davidson diagonalization with overlap
     ethr =  8.90E-07,  avg # of iterations =  2.9

     total cpu time spent up to now is       58.6 secs

     total energy              =      -4.07169137 Ry
     estimated scf accuracy    <       0.00000959 Ry

     iteration #  3     ecut=    50.00 Ry     beta= 0.01
     Davidson diagonalization with overlap
     ethr =  3.20E-07,  avg # of iterations =  1.0

     total cpu time spent up to now is       60.2 secs

     total energy              =      -4.07131762 Ry
     estimated scf accuracy    <       0.00000907 Ry

     iteration #  4     ecut=    50.00 Ry     beta= 0.01
     Davidson diagonalization with overlap
     ethr =  3.02E-07,  avg # of iterations =  2.6

     total cpu time spent up to now is       62.6 secs

     total energy              =      -4.07139960 Ry
     estimated scf accuracy    <       0.00000135 Ry

     iteration #  5     ecut=    50.00 Ry     beta= 0.01
     Davidson diagonalization with overlap
     ethr =  4.51E-08,  avg # of iterations =  3.0

     total cpu time spent up to now is       65.0 secs

     total energy              =      -4.07143399 Ry
     estimated scf accuracy    <       0.00000121 Ry

     iteration #  6     ecut=    50.00 Ry     beta= 0.01
     Davidson diagonalization with overlap
     ethr =  4.05E-08,  avg # of iterations =  1.0

     total cpu time spent up to now is       66.6 secs

     total energy              =      -4.07143122 Ry
     estimated scf accuracy    <       0.00000103 Ry

     iteration #  7     ecut=    50.00 Ry     beta= 0.01
     Davidson diagonalization with overlap
     ethr =  3.45E-08,  avg # of iterations =  2.2

     total cpu time spent up to now is       68.5 secs

     total energy              =      -4.07143582 Ry
     estimated scf accuracy    <       0.00000042 Ry

     iteration #  8     ecut=    50.00 Ry     beta= 0.01
     Davidson diagonalization with overlap
     ethr =  1.41E-08,  avg # of iterations =  1.0

     total cpu time spent up to now is       70.2 secs

     total energy              =      -4.07143582 Ry
     estimated scf accuracy    <       0.00000043 Ry

     iteration #  9     ecut=    50.00 Ry     beta= 0.01
     Davidson diagonalization with overlap
     ethr =  1.41E-08,  avg # of iterations =  1.0

     total cpu time spent up to now is       71.8 secs

     total energy              =      -4.07143616 Ry
     estimated scf accuracy    <       0.00000034 Ry

     iteration # 10     ecut=    50.00 Ry     beta= 0.01
     Davidson diagonalization with overlap
     ethr =  1.12E-08,  avg # of iterations =  2.0

     total cpu time spent up to now is       73.6 secs

     total energy              =      -4.07143637 Ry
     estimated scf accuracy    <       0.00000005 Ry

     iteration # 11     ecut=    50.00 Ry     beta= 0.01
     Davidson diagonalization with overlap
     ethr =  1.67E-09,  avg # of iterations =  1.9

     total cpu time spent up to now is       75.5 secs

     total energy              =      -4.07143620 Ry
     estimated scf accuracy    <       0.00000002 Ry

     iteration # 12     ecut=    50.00 Ry     beta= 0.01
     Davidson diagonalization with overlap
     ethr =  7.13E-10,  avg # of iterations =  2.0

     total cpu time spent up to now is       77.3 secs

     End of self-consistent calculation

          k = 0.0000 0.0000 0.0000 (  1639 PWs)   bands (ev):

    -5.4675   8.9916   8.9916   8.9916  11.6741  11.6741

          k =-0.1035 0.1035-0.1035 (  1606 PWs)   bands (ev):

    -5.2993   7.5868   8.7413   8.7413  11.5957  12.0898

          k =-0.2070 0.2070-0.2070 (  1606 PWs)   bands (ev):

    -4.7977   5.2210   8.3080   8.3080  11.2108  12.4750

          k =-0.3105 0.3105-0.3105 (  1615 PWs)   bands (ev):

    -3.9760   2.9142   7.9730   7.9730  10.8835  11.8620

          k =-0.4139 0.4139-0.4139 (  1616 PWs)   bands (ev):

    -2.8881   0.9039   7.7900   7.7900  10.7101  11.2507

          k = 0.5174-0.5174 0.5174 (  1622 PWs)   bands (ev):

    -2.0382  -0.2573   7.7356   7.7356  10.6616  11.0239

          k =-0.0000 0.2070 0.0000 (  1599 PWs)   bands (ev):

    -5.2431   8.1290   8.1290   8.2758  10.6321  12.8131

          k =-0.1035 0.3105-0.1035 (  1609 PWs)   bands (ev):

    -4.8523   6.1030   7.5607   8.0956  10.6149  12.4161

          k =-0.2070 0.4139-0.2070 (  1607 PWs)   bands (ev):

    -4.1357   3.7785   7.2031   7.5715  10.5168  12.1382

          k =-0.3105 0.5174-0.3105 (  1610 PWs)   bands (ev):

    -3.1253   1.6617   7.0416   7.0967  10.1317  12.0150

          k = 0.6209-0.4139 0.6209 (  1609 PWs)   bands (ev):

    -2.0385   0.0617   6.6014   7.2378  10.1089  11.8722

          k = 0.5174-0.3105 0.5174 (  1616 PWs)   bands (ev):

    -2.3636   0.4909   6.3272   7.5919  10.4954  11.5705

          k = 0.4139-0.2070 0.4139 (  1621 PWs)   bands (ev):

    -3.4911   2.3355   6.2812   8.0905  11.2084  11.8551

          k = 0.3105-0.1035 0.3105 (  1605 PWs)   bands (ev):

    -4.4103   4.5457   6.5000   8.6205  11.8251  12.3010

          k = 0.2070 0.0000 0.2070 (  1592 PWs)   bands (ev):

    -5.0198   6.7363   7.1384   8.9597  11.8114  12.1197

          k =-0.0000 0.4139 0.0000 (  1607 PWs)   bands (ev):

    -4.5731   6.6970   6.8881   6.8881   9.1917  10.8048

          k =-0.1035 0.5174-0.1035 (  1612 PWs)   bands (ev):

    -3.9656   4.7833   6.3792   6.4475   9.1810  10.3374

          k =-0.2070 0.6209-0.2070 (  1619 PWs)   bands (ev):

    -3.0508   2.6849   5.5370   6.2813   8.9176  11.6991

          k = 0.7244-0.3105 0.7244 (  1606 PWs)   bands (ev):

    -1.9326   0.8891   4.8157   6.3972   8.9253  13.1803

          k = 0.6209-0.2070 0.6209 (  1596 PWs)   bands (ev):

    -1.6221   0.4883   4.3279   6.7836   9.3171  13.0877

          k = 0.5174-0.1035 0.5174 (  1610 PWs)   bands (ev):

    -2.6979   2.0716   4.1243   7.4009  10.0610  12.9164

          k = 0.4139 0.0000 0.4139 (  1610 PWs)   bands (ev):

    -3.6994   3.9841   4.3952   8.1345  11.0964  12.9705

          k =-0.0000 0.6209 0.0000 (  1620 PWs)   bands (ev):

    -3.4685   4.6209   5.9160   5.9160   8.0856   8.8035

          k =-0.1035 0.7244-0.1035 (  1625 PWs)   bands (ev):

    -2.6591   3.3142   4.6950   5.6621   8.0427   9.2425

          k = 0.8279-0.2070 0.8279 (  1619 PWs)   bands (ev):

    -1.5990   1.8575   3.3809   5.6997   8.0335  11.1445

          k = 0.7244-0.1035 0.7244 (  1621 PWs)   bands (ev):

    -0.8346   0.9721   2.5684   6.0257   8.3722  13.3320

          k = 0.6209 0.0000 0.6209 (  1608 PWs)   bands (ev):

    -1.6578   2.0528   2.2633   6.6175   9.0594  14.3859

          k =-0.0000 0.8279 0.0000 (  1624 PWs)   bands (ev):

    -1.9608   2.3082   5.3151   5.3151   7.4084   7.7556

          k = 0.9314-0.1035 0.9314 (  1623 PWs)   bands (ev):

    -1.0150   1.2873   4.0264   5.2612   7.4896   8.7572

          k = 0.8279 0.0000 0.8279 (  1622 PWs)   bands (ev):

    -0.3390   0.9547   2.4735   5.5025   7.7583  10.9481

          k = 0.0000-1.0349-0.0000 (  1604 PWs)   bands (ev):

    -0.4752   0.5152   5.1127   5.1127   7.1811   7.4368

          k =-0.2070 0.4139 0.0000 (  1613 PWs)   bands (ev):

    -4.3533   5.3298   5.7969   7.9259  10.6656  11.4584

          k =-0.3105 0.5174-0.1035 (  1609 PWs)   bands (ev):

    -3.5362   3.2836   5.2809   7.2586  10.6176  11.8873

          k = 0.6209-0.4139 0.8279 (  1618 PWs)   bands (ev):

    -2.4558   1.3120   5.1868   6.6068  10.4476  11.5906

          k = 0.5174-0.3105 0.7244 (  1608 PWs)   bands (ev):

    -1.6154   0.1676   5.2057   6.3256  10.4508  11.3069

          k =-0.2070 0.6209 0.0000 (  1617 PWs)   bands (ev):

    -3.2568   4.0261   4.7671   5.9565   9.6418   9.8762

          k = 0.7244-0.3105 0.9314 (  1621 PWs)   bands (ev):

    -2.2612   2.3563   4.0971   5.2828   9.6298  11.4458

          k = 0.6209-0.2070 0.8279 (  1613 PWs)   bands (ev):

    -1.2066   0.8736   3.6100   5.2130   9.8193  12.6856

          k = 0.5174-0.1035 0.7244 (  1613 PWs)   bands (ev):

    -1.5342   1.3167   3.2539   5.6432  10.2992  12.5038

          k = 0.4139 0.0000 0.6209 (  1607 PWs)   bands (ev):

    -2.6338   2.9230   3.3361   6.3982  10.9454  12.2697

          k = 0.8279-0.2070 1.0349 (  1621 PWs)   bands (ev):

    -1.7695   2.3362   4.1351   4.5708   9.0054   9.0638

          k = 0.7244-0.1035 0.9314 (  1625 PWs)   bands (ev):

    -0.7313   1.4524   2.7415   4.4711   9.1645  11.0868

          k = 0.6209 0.0000 0.8279 (  1614 PWs)   bands (ev):

    -0.5843   1.6105   1.8007   4.8934   9.6048  13.2723

          k =-0.2070-1.0349-0.0000 (  1624 PWs)   bands (ev):

    -0.3594   0.7351   3.9228   4.1997   8.7908   8.8100

          k = 0.6209-0.2070 1.0349 (  1616 PWs)   bands (ev):

    -1.2360   2.1024   2.6897   4.2245  11.1530  11.6869

          k = 0.5174-0.1035 0.9314 (  1608 PWs)   bands (ev):

    -0.4825   1.3689   2.4802   3.8177  11.3076  12.4952

          k =-0.4139-1.0349 0.0000 (  1626 PWs)   bands (ev):

    -0.1335   1.3919   2.4730   3.2600  11.0903  11.4869

     the Fermi energy is     1.8045 ev

!    total energy              =      -4.07143624 Ry
     estimated scf accuracy    <          2.0E-09 Ry
     smearing contrib. (-TS)   =      -0.04358794 Ry
     internal energy E=F+TS    =      -4.02784829 Ry

     The total energy is F=E-TS. E is the sum of the following terms:
     one-electron contribution =       1.36836509 Ry
     hartree contribution      =       0.06486951 Ry
     xc contribution           =      -1.30027795 Ry
     ewald contribution        =      -4.16080494 Ry

     convergence has been achieved in  12 iterations
     Writing meta-gga kinetic term

     Forces acting on atoms (cartesian axes, Ry/au):

     atom    1 type  1   force =     0.00000000    0.00000000    0.00000000

     Total force =     0.000000     Total SCF correction =     0.000000


     Computing stress (Cartesian axis) and pressure

          total   stress  (Ry/bohr**3)                   (kbar)     P=      -81.96
  -0.00055715   0.00000000   0.00000000          -81.96        0.00        0.00
   0.00000000  -0.00055715  -0.00000000            0.00      -81.96       -0.00
   0.00000000  -0.00000000  -0.00055715            0.00       -0.00      -81.96

     Energy error            =      5.5E-03 Ry
     Gradient error          =      0.0E+00 Ry/Bohr
     Cell gradient error     =      8.2E+01 kbar

     number of scf cycles    =   4
     number of bfgs steps    =   3

     enthalpy           old  =      -4.0659197106 Ry
     enthalpy           new  =      -4.0714362352 Ry

     CASE: enthalpy          _new < enthalpy          _old


     WARNING: bfgs curvature condition failed, Theta= 0.249
     new trust radius        =       0.0646489224 bohr
     new conv_thr            =       0.0000000100 Ry

     new unit-cell volume =    229.01362 a.u.^3 (    33.93632 Ang^3 )
     density =      1.32023 g/cm^3

CELL_PARAMETERS (alat= 10.26310000)
  -0.473149676  -0.000000000   0.473149676
   0.000000000   0.473149676   0.473149676
  -0.473149676   0.473149676  -0.000000000

ATOMIC_POSITIONS (alat)
Al            0.0000000000        0.0000000000        0.0000000000



     Writing config-only to output data dir ./pwscf.save/
     NEW-OLD atomic charge density approx. for the potential
     extrapolated charge    2.80585, renormalised to    3.00000

     total cpu time spent up to now is       78.2 secs

     Self-consistent Calculation

     iteration #  1     ecut=    50.00 Ry     beta= 0.01
     Davidson diagonalization with overlap
     ethr =  1.00E-06,  avg # of iterations =  3.7

     total cpu time spent up to now is       81.1 secs

     total energy              =      -4.08057923 Ry
     estimated scf accuracy    <       0.00007089 Ry

     iteration #  2     ecut=    50.00 Ry     beta= 0.01
     Davidson diagonalization with overlap
     ethr =  2.36E-06,  avg # of iterations =  3.3

     total cpu time spent up to now is       83.6 secs

     total energy              =      -4.08122188 Ry
     estimated scf accuracy    <       0.00005604 Ry

     iteration #  3     ecut=    50.00 Ry     beta= 0.01
     Davidson diagonalization with overlap
     ethr =  1.87E-06,  avg # of iterations =  1.0

     total cpu time spent up to now is       85.3 secs

     total energy              =      -4.07956918 Ry
     estimated scf accuracy    <       0.00005373 Ry

     iteration #  4     ecut=    50.00 Ry     beta= 0.01
     Davidson diagonalization with overlap
     ethr =  1.79E-06,  avg # of iterations =  2.9

     total cpu time spent up to now is       87.7 secs

     total energy              =      -4.07999155 Ry
     estimated scf accuracy    <       0.00000329 Ry

     iteration #  5     ecut=    50.00 Ry     beta= 0.01
     Davidson diagonalization with overlap
     ethr =  1.10E-07,  avg # of iterations =  2.1

     total cpu time spent up to now is       89.7 secs

     total energy              =      -4.08006996 Ry
     estimated scf accuracy    <       0.00000268 Ry

     iteration #  6     ecut=    50.00 Ry     beta= 0.01
     Davidson diagonalization with overlap
     ethr =  8.93E-08,  avg # of iterations =  2.7

     total cpu time spent up to now is       92.0 secs

     total energy              =      -4.08011159 Ry
     estimated scf accuracy    <       0.00000378 Ry

     iteration #  7     ecut=    50.00 Ry     beta= 0.01
     Davidson diagonalization with overlap
     ethr =  8.93E-08,  avg # of iterations =  2.0

     total cpu time spent up to now is       93.8 secs

     total energy              =      -4.08010720 Ry
     estimated scf accuracy    <       0.00000129 Ry

     iteration #  8     ecut=    50.00 Ry     beta= 0.01
     Davidson diagonalization with overlap
     ethr =  4.31E-08,  avg # of iterations =  2.0

     total cpu time spent up to now is       95.7 secs

     total energy              =      -4.08010779 Ry
     estimated scf accuracy    <       0.00000090 Ry

     iteration #  9     ecut=    50.00 Ry     beta= 0.01
     Davidson diagonalization with overlap
     ethr =  2.99E-08,  avg # of iterations =  1.0

     total cpu time spent up to now is       97.3 secs

     total energy              =      -4.08010803 Ry
     estimated scf accuracy    <       0.00000091 Ry

     iteration # 10     ecut=    50.00 Ry     beta= 0.01
     Davidson diagonalization with overlap
     ethr =  2.99E-08,  avg # of iterations =  1.0

     total cpu time spent up to now is       99.0 secs

     total energy              =      -4.08010047 Ry
     estimated scf accuracy    <       0.00000088 Ry

     iteration # 11     ecut=    50.00 Ry     beta= 0.01
     Davidson diagonalization with overlap
     ethr =  2.93E-08,  avg # of iterations =  2.2

     total cpu time spent up to now is      100.8 secs

     total energy              =      -4.08010685 Ry
     estimated scf accuracy    <       0.00000008 Ry

     iteration # 12     ecut=    50.00 Ry     beta= 0.01
     Davidson diagonalization with overlap
     ethr =  2.69E-09,  avg # of iterations =  2.5

     total cpu time spent up to now is      102.8 secs

     total energy              =      -4.08010421 Ry
     estimated scf accuracy    <       0.00000016 Ry

     iteration # 13     ecut=    50.00 Ry     beta= 0.01
     Davidson diagonalization with overlap
     ethr =  2.69E-09,  avg # of iterations =  2.5

     total cpu time spent up to now is      104.7 secs

     total energy              =      -4.08009909 Ry
     estimated scf accuracy    <       0.00000008 Ry

     iteration # 14     ecut=    50.00 Ry     beta= 0.01
     Davidson diagonalization with overlap
     ethr =  2.69E-09,  avg # of iterations =  2.5

     total cpu time spent up to now is      106.6 secs

     End of self-consistent calculation

          k = 0.0000 0.0000 0.0000 (  1639 PWs)   bands (ev):

    -5.4058   9.7992   9.7992   9.7992  12.3023  12.3023

          k =-0.1057 0.1057-0.1057 (  1606 PWs)   bands (ev):

    -5.2288   8.2631   9.5137   9.5137  12.2598  12.7653

          k =-0.2113 0.2113-0.2113 (  1606 PWs)   bands (ev):

    -4.7005   5.7497   9.0435   9.0435  11.8983  13.1754

          k =-0.3170 0.3170-0.3170 (  1615 PWs)   bands (ev):

    -3.8323   3.3165   8.6955   8.6955  11.5883  12.4972

          k =-0.4227 0.4227-0.4227 (  1616 PWs)   bands (ev):

    -2.6695   1.1849   8.5143   8.5143  11.4319  11.8360

          k = 0.5284-0.5284 0.5284 (  1622 PWs)   bands (ev):

    -1.7104  -0.1007   8.4631   8.4631  11.3918  11.5903

          k =-0.0000 0.2113 0.0000 (  1599 PWs)   bands (ev):

    -5.1698   8.8319   8.8319   9.0733  11.1724  13.5592

          k =-0.1057 0.3170-0.1057 (  1609 PWs)   bands (ev):

    -4.7583   6.6931   8.2222   8.8393  11.2071  13.0568

          k =-0.2113 0.4227-0.2113 (  1607 PWs)   bands (ev):

    -4.0021   4.2324   7.8469   8.2771  11.0836  12.8619

          k =-0.3170 0.5284-0.3170 (  1610 PWs)   bands (ev):

    -2.9279   1.9930   7.7143   7.7425  10.6630  12.7918

          k = 0.6340-0.4227 0.6340 (  1609 PWs)   bands (ev):

    -1.7298   0.2555   7.2372   7.9032  10.6489  12.6546

          k = 0.5284-0.3170 0.5284 (  1616 PWs)   bands (ev):

    -2.0995   0.7344   6.9326   8.2926  11.0720  12.1828

          k = 0.4227-0.2113 0.4227 (  1621 PWs)   bands (ev):

    -3.3182   2.7069   6.8702   8.8363  11.8466  12.3242

          k = 0.3170-0.1057 0.3170 (  1605 PWs)   bands (ev):

    -4.2920   5.0435   7.0878   9.4118  12.5564  12.9906

          k = 0.2113 0.0000 0.2113 (  1592 PWs)   bands (ev):

    -4.9346   7.3982   7.7245   9.7790  12.5107  12.7672

          k =-0.0000 0.4227 0.0000 (  1607 PWs)   bands (ev):

    -4.4644   7.4453   7.5037   7.5037   9.6472  11.3607

          k =-0.1057 0.5284-0.1057 (  1612 PWs)   bands (ev):

    -3.8236   5.3312   7.0007   7.0390   9.6611  10.9210

          k =-0.2113 0.6340-0.2113 (  1619 PWs)   bands (ev):

    -2.8534   3.0909   6.1011   6.8669   9.3903  12.3971

          k = 0.7397-0.3170 0.7397 (  1606 PWs)   bands (ev):

    -1.6414   1.1583   5.3314   6.9939   9.4142  13.9928

          k = 0.6340-0.2113 0.6340 (  1596 PWs)   bands (ev):

    -1.2841   0.7035   4.8087   7.4085   9.8369  13.8046

          k = 0.5284-0.1057 0.5284 (  1610 PWs)   bands (ev):

    -2.4739   2.4295   4.5825   8.0728  10.6244  13.6158

          k = 0.4227 0.0000 0.4227 (  1610 PWs)   bands (ev):

    -3.5407   4.5150   4.8011   8.8727  11.7168  13.7429

          k =-0.0000 0.6340 0.0000 (  1620 PWs)   bands (ev):

    -3.2993   5.2390   6.4774   6.4774   8.4840   9.3020

          k =-0.1057 0.7397-0.1057 (  1625 PWs)   bands (ev):

    -2.4410   3.8425   5.1283   6.2112   8.4795   9.8111

          k = 0.8454-0.2113 0.8454 (  1619 PWs)   bands (ev):

    -1.2985   2.2435   3.7567   6.2528   8.4885  11.8207

          k = 0.7397-0.1057 0.7397 (  1621 PWs)   bands (ev):

    -0.4078   1.1930   2.9258   6.5991   8.8516  14.1209

          k = 0.6340 0.0000 0.6340 (  1608 PWs)   bands (ev):

    -1.3501   2.4482   2.5584   7.2293   9.5745  15.1822

          k =-0.0000 0.8454 0.0000 (  1624 PWs)   bands (ev):

    -1.6985   2.7541   5.8459   5.8459   7.7732   8.2547

          k = 0.9511-0.1057 0.9511 (  1623 PWs)   bands (ev):

    -0.6678   1.6431   4.4282   5.7899   7.9185   9.3134

          k = 0.8454 0.0000 0.8454 (  1622 PWs)   bands (ev):

     0.1640   1.1866   2.7649   6.0450   8.2091  11.6168

          k = 0.0000-1.0567-0.0000 (  1604 PWs)   bands (ev):

    -0.0072   0.7265   5.6335   5.6335   7.5348   7.9384

          k =-0.2113 0.4227 0.0000 (  1613 PWs)   bands (ev):

    -4.2323   5.9334   6.2913   8.6548  11.2632  12.0684

          k =-0.3170 0.5284-0.1057 (  1609 PWs)   bands (ev):

    -3.3680   3.7192   5.8059   7.9059  11.2124  12.5960

          k = 0.6340-0.4227 0.8454 (  1618 PWs)   bands (ev):

    -2.2112   1.6183   5.7286   7.1849  11.0570  12.2695

          k = 0.5284-0.3170 0.7397 (  1608 PWs)   bands (ev):

    -1.2588   0.3453   5.7630   6.8699  11.0750  11.9573

          k =-0.2113 0.6340 0.0000 (  1617 PWs)   bands (ev):

    -3.0740   4.5975   5.2039   6.4846  10.1844  10.4784

          k = 0.7397-0.3170 0.9511 (  1621 PWs)   bands (ev):

    -2.0115   2.7588   4.5643   5.7440  10.2100  12.1339

          k = 0.6340-0.2113 0.8454 (  1613 PWs)   bands (ev):

    -0.8367   1.1135   4.0577   5.6772  10.4206  13.4344

          k = 0.5284-0.1057 0.7397 (  1613 PWs)   bands (ev):

    -1.2112   1.6079   3.6704   6.1451  10.9330  13.2190

          k = 0.4227 0.0000 0.6340 (  1607 PWs)   bands (ev):

    -2.4081   3.4014   3.6860   6.9582  11.6206  12.9587

          k = 0.8454-0.2113 1.0567 (  1621 PWs)   bands (ev):

    -1.4898   2.7988   4.5391   4.9984   9.5164   9.6689

          k = 0.7397-0.1057 0.9511 (  1625 PWs)   bands (ev):

    -0.3333   1.8014   3.0528   4.8998   9.7356  11.7604

          k = 0.6340 0.0000 0.8454 (  1614 PWs)   bands (ev):

    -0.1323   1.8739   2.1036   5.3497  10.2010  14.0616

          k =-0.2113-1.0567-0.0000 (  1624 PWs)   bands (ev):

     0.1294   0.9567   4.3159   4.6231   9.2914   9.4146

          k = 0.6340-0.2113 1.0567 (  1616 PWs)   bands (ev):

    -0.8975   2.5310   3.0076   4.6088  11.8861  12.3416

          k = 0.5284-0.1057 0.9511 (  1608 PWs)   bands (ev):

    -0.0139   1.6109   2.8497   4.1727  12.0381  13.1927

          k =-0.4227-1.0567 0.0000 (  1626 PWs)   bands (ev):

     0.4058   1.6448   2.7803   3.5843  11.8257  12.1307

     the Fermi energy is     2.1439 ev

!    total energy              =      -4.08010069 Ry
     estimated scf accuracy    <          3.1E-09 Ry
     smearing contrib. (-TS)   =      -0.04164760 Ry
     internal energy E=F+TS    =      -4.03845309 Ry

     The total energy is F=E-TS. E is the sum of the following terms:
     one-electron contribution =       1.47372671 Ry
     hartree contribution      =       0.05325461 Ry
     xc contribution           =      -1.31667948 Ry
     ewald contribution        =      -4.24875493 Ry

     convergence has been achieved in  14 iterations
     Writing meta-gga kinetic term

     Forces acting on atoms (cartesian axes, Ry/au):

     atom    1 type  1   force =     0.00000000    0.00000000    0.00000000

     Total force =     0.000000     Total SCF correction =     0.000000


     Computing stress (Cartesian axis) and pressure

          total   stress  (Ry/bohr**3)                   (kbar)     P=      -89.92
  -0.00061130   0.00000000   0.00000000          -89.92        0.00        0.00
   0.00000000  -0.00061130  -0.00000000            0.00      -89.92       -0.00
   0.00000000  -0.00000000  -0.00061130            0.00       -0.00      -89.92

     Energy error            =      8.7E-03 Ry
     Gradient error          =      0.0E+00 Ry/Bohr
     Cell gradient error     =      9.0E+01 kbar

     number of scf cycles    =   5
     number of bfgs steps    =   4

     enthalpy           old  =      -4.0714362352 Ry
     enthalpy           new  =      -4.0801006922 Ry

     CASE: enthalpy          _new < enthalpy          _old


     WARNING: bfgs curvature condition failed, Theta= 0.327
     new trust radius        =       0.0959644517 bohr
     new conv_thr            =       0.0000000100 Ry

     new unit-cell volume =    207.91328 a.u.^3 (    30.80957 Ang^3 )
     density =      1.45422 g/cm^3

CELL_PARAMETERS (alat= 10.26310000)
  -0.458147707  -0.000000000   0.458147707
   0.000000000   0.458147707   0.458147707
  -0.458147707   0.458147707  -0.000000000

ATOMIC_POSITIONS (alat)
Al            0.0000000000        0.0000000000        0.0000000000



     Writing config-only to output data dir ./pwscf.save/
     NEW-OLD atomic charge density approx. for the potential
     extrapolated charge    2.69575, renormalised to    3.00000

     total cpu time spent up to now is      107.5 secs

     Self-consistent Calculation

     iteration #  1     ecut=    50.00 Ry     beta= 0.01
     Davidson diagonalization with overlap
     ethr =  1.00E-06,  avg # of iterations =  4.7

     total cpu time spent up to now is      110.7 secs

     total energy              =      -4.09521455 Ry
     estimated scf accuracy    <       0.00021117 Ry

     iteration #  2     ecut=    50.00 Ry     beta= 0.01
     Davidson diagonalization with overlap
     ethr =  7.04E-06,  avg # of iterations =  2.7

     total cpu time spent up to now is      113.1 secs

     total energy              =      -4.09679396 Ry
     estimated scf accuracy    <       0.00030230 Ry

     iteration #  3     ecut=    50.00 Ry     beta= 0.01
     Davidson diagonalization with overlap
     ethr =  7.04E-06,  avg # of iterations =  1.0

     total cpu time spent up to now is      114.8 secs

     total energy              =      -4.09196742 Ry
     estimated scf accuracy    <       0.00030799 Ry

     iteration #  4     ecut=    50.00 Ry     beta= 0.01
     Davidson diagonalization with overlap
     ethr =  7.04E-06,  avg # of iterations =  2.7

     total cpu time spent up to now is      117.2 secs

     total energy              =      -4.09377586 Ry
     estimated scf accuracy    <       0.00001528 Ry

     iteration #  5     ecut=    50.00 Ry     beta= 0.01
     Davidson diagonalization with overlap
     ethr =  5.09E-07,  avg # of iterations =  1.7

     total cpu time spent up to now is      119.0 secs

     total energy              =      -4.09381744 Ry
     estimated scf accuracy    <       0.00001289 Ry

     iteration #  6     ecut=    50.00 Ry     beta= 0.01
     Davidson diagonalization with overlap
     ethr =  4.30E-07,  avg # of iterations =  2.1

     total cpu time spent up to now is      120.8 secs

     total energy              =      -4.09385313 Ry
     estimated scf accuracy    <       0.00001914 Ry

     iteration #  7     ecut=    50.00 Ry     beta= 0.01
     Davidson diagonalization with overlap
     ethr =  4.30E-07,  avg # of iterations =  1.7

     total cpu time spent up to now is      122.6 secs

     total energy              =      -4.09381209 Ry
     estimated scf accuracy    <       0.00001370 Ry

     iteration #  8     ecut=    50.00 Ry     beta= 0.01
     Davidson diagonalization with overlap
     ethr =  4.30E-07,  avg # of iterations =  2.0

     total cpu time spent up to now is      124.7 secs

     total energy              =      -4.09382914 Ry
     estimated scf accuracy    <       0.00000355 Ry

     iteration #  9     ecut=    50.00 Ry     beta= 0.01
     Davidson diagonalization with overlap
     ethr =  1.18E-07,  avg # of iterations =  1.0

     total cpu time spent up to now is      126.4 secs

     total energy              =      -4.09383088 Ry
     estimated scf accuracy    <       0.00000377 Ry

     iteration # 10     ecut=    50.00 Ry     beta= 0.01
     Davidson diagonalization with overlap
     ethr =  1.18E-07,  avg # of iterations =  1.0

     total cpu time spent up to now is      128.0 secs

     total energy              =      -4.09383350 Ry
     estimated scf accuracy    <       0.00000382 Ry

     iteration # 11     ecut=    50.00 Ry     beta= 0.01
     Davidson diagonalization with overlap
     ethr =  1.18E-07,  avg # of iterations =  2.0

     total cpu time spent up to now is      129.8 secs

     total energy              =      -4.09383522 Ry
     estimated scf accuracy    <       0.00000108 Ry

     iteration # 12     ecut=    50.00 Ry     beta= 0.01
     Davidson diagonalization with overlap
     ethr =  3.59E-08,  avg # of iterations =  1.4

     total cpu time spent up to now is      131.5 secs

     total energy              =      -4.09381588 Ry
     estimated scf accuracy    <       0.00000085 Ry

     iteration # 13     ecut=    50.00 Ry     beta= 0.01
     Davidson diagonalization with overlap
     ethr =  2.84E-08,  avg # of iterations =  2.1

     total cpu time spent up to now is      133.4 secs

     total energy              =      -4.09382195 Ry
     estimated scf accuracy    <       0.00000005 Ry

     iteration # 14     ecut=    50.00 Ry     beta= 0.01
     Davidson diagonalization with overlap
     ethr =  1.61E-09,  avg # of iterations =  2.0

     total cpu time spent up to now is      135.2 secs

     total energy              =      -4.09382197 Ry
     estimated scf accuracy    <       0.00000002 Ry

     iteration # 15     ecut=    50.00 Ry     beta= 0.01
     Davidson diagonalization with overlap
     ethr =  6.64E-10,  avg # of iterations =  1.3

     total cpu time spent up to now is      136.9 secs

     total energy              =      -4.09382205 Ry
     estimated scf accuracy    <       0.00000001 Ry

     iteration # 16     ecut=    50.00 Ry     beta= 0.01
     Davidson diagonalization with overlap
     ethr =  4.88E-10,  avg # of iterations =  2.6

     total cpu time spent up to now is      138.8 secs

     total energy              =      -4.09382213 Ry
     estimated scf accuracy    <       0.00000001 Ry

     iteration # 17     ecut=    50.00 Ry     beta= 0.01
     Davidson diagonalization with overlap
     ethr =  4.72E-10,  avg # of iterations =  2.0

     total cpu time spent up to now is      140.7 secs

     End of self-consistent calculation

          k = 0.0000 0.0000 0.0000 (  1639 PWs)   bands (ev):

    -5.2748  11.0897  11.0897  11.0897  13.3138  13.3138

          k =-0.1091 0.1091-0.1091 (  1606 PWs)   bands (ev):

    -5.0846   9.3352  10.7422  10.7422  13.3351  13.8593

          k =-0.2183 0.2183-0.2183 (  1606 PWs)   bands (ev):

    -4.5160   6.5985  10.2160  10.2160  13.0109  14.3067

          k =-0.3274 0.3274-0.3274 (  1615 PWs)   bands (ev):

    -3.5782   3.9767   9.8531   9.8531  12.7329  13.5170

          k =-0.4365 0.4365-0.4365 (  1616 PWs)   bands (ev):

    -2.3046   1.6654   9.6815   9.6815  12.6112  12.7718

          k = 0.5457-0.5457 0.5457 (  1622 PWs)   bands (ev):

    -1.1643   0.1759   9.6393   9.6393  12.4933  12.5895

          k =-0.0000 0.2183 0.0000 (  1599 PWs)   bands (ev):

    -5.0211   9.9499   9.9499  10.3562  12.0437  14.7636

          k =-0.1091 0.3274-0.1091 (  1609 PWs)   bands (ev):

    -4.5785   7.6320   9.2788  10.0360  12.1757  14.0663

          k =-0.2183 0.4365-0.2183 (  1607 PWs)   bands (ev):

    -3.7629   4.9687   8.8785   9.4217  11.9830  14.0280

          k =-0.3274 0.5457-0.3274 (  1610 PWs)   bands (ev):

    -2.5945   2.5480   8.7789   8.8100  11.5052  14.0512

          k = 0.6548-0.4365 0.6548 (  1609 PWs)   bands (ev):

    -1.2248   0.6003   8.2704   8.9719  11.5116  13.4954

          k = 0.5457-0.3274 0.5457 (  1616 PWs)   bands (ev):

    -1.6669   1.1590   7.9136   9.4190  11.9963  13.1642

          k = 0.4365-0.2183 0.4365 (  1621 PWs)   bands (ev):

    -3.0209   3.3208   7.8233  10.0367  12.8648  13.2901

          k = 0.3274-0.1091 0.3274 (  1605 PWs)   bands (ev):

    -4.0759   5.8437   8.0382  10.6848  13.7347  13.8595

          k = 0.2183 0.0000 0.2183 (  1592 PWs)   bands (ev):

    -4.7681   8.4585   8.6546  11.0948  13.6407  13.8074

          k =-0.0000 0.4365 0.0000 (  1607 PWs)   bands (ev):

    -4.2625   8.4917   8.4917   8.6677  10.3908  12.2314

          k =-0.1091 0.5457-0.1091 (  1612 PWs)   bands (ev):

    -3.5720   6.2042   7.9919   8.0261  10.4368  11.8586

          k =-0.2183 0.6548-0.2183 (  1619 PWs)   bands (ev):

    -2.5201   3.7561   7.0299   7.8115  10.1512  13.5161

          k = 0.7639-0.3274 0.7639 (  1606 PWs)   bands (ev):

    -1.1705   1.6231   6.1801   7.9556  10.2053  15.2864

          k = 0.6548-0.2183 0.6548 (  1596 PWs)   bands (ev):

    -0.7371   1.0813   5.6012   8.4136  10.6787  14.9507

          k = 0.5457-0.1091 0.5457 (  1610 PWs)   bands (ev):

    -2.1016   3.0217   5.3426   9.1504  11.5347  14.7340

          k = 0.4365 0.0000 0.4365 (  1610 PWs)   bands (ev):

    -3.2643   5.3795   5.4662  10.0559  12.7158  14.9749

          k =-0.0000 0.6548 0.0000 (  1620 PWs)   bands (ev):

    -3.0073   6.2521   7.3855   7.3855   9.1419  10.0997

          k =-0.1091 0.7639-0.1091 (  1625 PWs)   bands (ev):

    -2.0780   4.7197   5.8262   7.1011   9.1924  10.7374

          k = 0.8731-0.2183 0.8731 (  1619 PWs)   bands (ev):

    -0.8180   2.8949   4.3852   7.1489   9.2303  12.9084

          k = 0.7639-0.1091 0.7639 (  1621 PWs)   bands (ev):

     0.2813   1.5716   3.5312   7.5259   9.6321  15.3754

          k = 0.6548 0.0000 0.6548 (  1608 PWs)   bands (ev):

    -0.8563   3.0603   3.1145   8.2141  10.4106  16.4501

          k =-0.0000 0.8731 0.0000 (  1624 PWs)   bands (ev):

    -1.2731   3.5007   6.7086   6.7086   8.3810   9.0660

          k = 0.9822-0.1091 0.9822 (  1623 PWs)   bands (ev):

    -0.1288   2.2691   5.0843   6.6495   8.6196  10.2251

          k = 0.8731 0.0000 0.8731 (  1622 PWs)   bands (ev):

     0.9802   1.5954   3.2444   6.9254   8.9456  12.6935

          k = 0.0000-1.0914-0.0000 (  1604 PWs)   bands (ev):

     0.7404   1.1048   6.4813   6.4813   8.1261   8.7553

          k =-0.2183 0.4365 0.0000 (  1613 PWs)   bands (ev):

    -4.0120   6.9075   7.0862   9.8303  12.2311  13.0360

          k =-0.3274 0.5457-0.1091 (  1609 PWs)   bands (ev):

    -3.0776   4.4258   6.6674   8.9416  12.1705  13.7348

          k = 0.6548-0.4365 0.8731 (  1618 PWs)   bands (ev):

    -1.8086   2.1369   6.6183   8.1056  12.0426  13.3574

          k = 0.5457-0.3274 0.7639 (  1608 PWs)   bands (ev):

    -0.6710   0.6547   6.6843   7.7301  12.0872  12.9981

          k =-0.2183 0.6548 0.0000 (  1617 PWs)   bands (ev):

    -2.7620   5.5375   5.9137   7.3270  11.0703  11.4507

          k = 0.7639-0.3274 0.9822 (  1621 PWs)   bands (ev):

    -1.6025   3.4195   5.3567   6.4757  11.1490  13.2404

          k = 0.6548-0.2183 0.8731 (  1613 PWs)   bands (ev):

    -0.2455   1.5319   4.8095   6.4215  11.3931  14.6295

          k = 0.5457-0.1091 0.7639 (  1613 PWs)   bands (ev):

    -0.6944   2.1050   4.3711   6.9521  11.9562  14.3618

          k = 0.4365 0.0000 0.6548 (  1607 PWs)   bands (ev):

    -2.0335   4.1912   4.2688   7.8550  12.7101  14.0606

          k = 0.8731-0.2183 1.0914 (  1621 PWs)   bands (ev):

    -1.0394   3.5825   5.1999   5.6864  10.3552  10.6483

          k = 0.7639-0.1091 0.9822 (  1625 PWs)   bands (ev):

     0.2823   2.4300   3.5656   5.5958  10.6598  12.8461

          k = 0.6548 0.0000 0.8731 (  1614 PWs)   bands (ev):

     0.5870   2.3291   2.6248   6.0889  11.1653  15.3179

          k =-0.2183-1.0914-0.0000 (  1624 PWs)   bands (ev):

     0.9131   1.3502   4.9607   5.3132  10.1147  10.3932

          k = 0.6548-0.2183 1.0914 (  1616 PWs)   bands (ev):

    -0.3622   3.2716   3.5428   5.2246  13.0609  13.3925

          k = 0.5457-0.1091 0.9822 (  1608 PWs)   bands (ev):

     0.7370   2.0228   3.4959   4.7390  13.2047  14.3082

          k =-0.4365-1.0914 0.0000 (  1626 PWs)   bands (ev):

     1.2869   2.0846   3.2999   4.1025  13.0024  13.1651

     the Fermi energy is     2.7186 ev

!    total energy              =      -4.09382201 Ry
     estimated scf accuracy    <          7.1E-09 Ry
     smearing contrib. (-TS)   =      -0.03901891 Ry
     internal energy E=F+TS    =      -4.05480310 Ry

     The total energy is F=E-TS. E is the sum of the following terms:
     one-electron contribution =       1.63957346 Ry
     hartree contribution      =       0.03820693 Ry
     xc contribution           =      -1.34470380 Ry
     ewald contribution        =      -4.38787969 Ry

     convergence has been achieved in  17 iterations
     Writing meta-gga kinetic term

     Forces acting on atoms (cartesian axes, Ry/au):

     atom    1 type  1   force =     0.00000000    0.00000000    0.00000000

     Total force =     0.000000     Total SCF correction =     0.000000


     Computing stress (Cartesian axis) and pressure

          total   stress  (Ry/bohr**3)                   (kbar)     P=     -101.15
  -0.00068759   0.00000000   0.00000000         -101.15        0.00        0.00
   0.00000000  -0.00068759  -0.00000000            0.00     -101.15       -0.00
   0.00000000  -0.00000000  -0.00068759            0.00       -0.00     -101.15

     Energy error            =      1.4E-02 Ry
     Gradient error          =      0.0E+00 Ry/Bohr
     Cell gradient error     =      1.0E+02 kbar

     number of scf cycles    =   6
     number of bfgs steps    =   5

     enthalpy           old  =      -4.0801006922 Ry
     enthalpy           new  =      -4.0938220106 Ry

     CASE: enthalpy          _new < enthalpy          _old


     WARNING: bfgs curvature condition failed, Theta= 0.488
     new trust radius        =       0.1416462660 bohr
     new conv_thr            =       0.0000000100 Ry

     new unit-cell volume =    178.75703 a.u.^3 (    26.48906 Ang^3 )
     density =      1.69141 g/cm^3

CELL_PARAMETERS (alat= 10.26310000)
  -0.435644753  -0.000000000   0.435644753
   0.000000000   0.435644753   0.435644753
  -0.435644753   0.435644753  -0.000000000

ATOMIC_POSITIONS (alat)
Al            0.0000000000        0.0000000000        0.0000000000



     Writing config-only to output data dir ./pwscf.save/
     NEW-OLD atomic charge density approx. for the potential
     extrapolated charge    2.51102, renormalised to    3.00000

     total cpu time spent up to now is      141.5 secs

     Self-consistent Calculation

     iteration #  1     ecut=    50.00 Ry     beta= 0.01
     Davidson diagonalization with overlap
     ethr =  1.00E-06,  avg # of iterations =  6.0

     total cpu time spent up to now is      145.2 secs

     total energy              =      -4.11208794 Ry
     estimated scf accuracy    <       0.00075485 Ry

     iteration #  2     ecut=    50.00 Ry     beta= 0.01
     Davidson diagonalization with overlap
     ethr =  2.52E-05,  avg # of iterations =  2.4

     total cpu time spent up to now is      147.6 secs

     total energy              =      -4.11303160 Ry
     estimated scf accuracy    <       0.00087593 Ry

     iteration #  3     ecut=    50.00 Ry     beta= 0.01
     Davidson diagonalization with overlap
     ethr =  2.52E-05,  avg # of iterations =  1.0

     total cpu time spent up to now is      149.2 secs

     total energy              =      -4.11356997 Ry
     estimated scf accuracy    <       0.00089602 Ry

     iteration #  4     ecut=    50.00 Ry     beta= 0.01
     Davidson diagonalization with overlap
     ethr =  2.52E-05,  avg # of iterations =  2.0

     total cpu time spent up to now is      151.5 secs

     total energy              =      -4.11451198 Ry
     estimated scf accuracy    <       0.00010280 Ry

     iteration #  5     ecut=    50.00 Ry     beta= 0.01
     Davidson diagonalization with overlap
     ethr =  3.43E-06,  avg # of iterations =  2.4

     total cpu time spent up to now is      153.8 secs

     total energy              =      -4.11494591 Ry
     estimated scf accuracy    <       0.00001401 Ry

     iteration #  6     ecut=    50.00 Ry     beta= 0.01
     Davidson diagonalization with overlap
     ethr =  4.67E-07,  avg # of iterations =  1.0

     total cpu time spent up to now is      155.4 secs

     total energy              =      -4.11493775 Ry
     estimated scf accuracy    <       0.00001371 Ry

     iteration #  7     ecut=    50.00 Ry     beta= 0.01
     Davidson diagonalization with overlap
     ethr =  4.57E-07,  avg # of iterations =  1.0

     total cpu time spent up to now is      157.0 secs

     total energy              =      -4.11477661 Ry
     estimated scf accuracy    <       0.00001400 Ry

     iteration #  8     ecut=    50.00 Ry     beta= 0.01
     Davidson diagonalization with overlap
     ethr =  4.57E-07,  avg # of iterations =  3.0

     total cpu time spent up to now is      159.5 secs

     total energy              =      -4.11507642 Ry
     estimated scf accuracy    <       0.00001867 Ry

[...]
               b(1) = ( -1.344927 -1.344927  1.344927 )  
               b(2) = (  1.344927  1.344927  1.344927 )  
               b(3) = ( -1.344927  1.344927 -1.344927 )  


     PseudoPot. # 1 for Al read from file:
     ~/Documents/PWDFT.jl/pseudopotentials/scan_upf/Al.SCAN.UPF
     MD5 check sum: Not computed, couldn't open file
     Pseudo is Norm-conserving, Zval =  3.0
     Generated by new atomic code, or converted to UPF format
     Using radial grid of 1467 points,  2 beta functions with: 
                l(1) =   0
                l(2) =   1

     atomic species   valence    mass     pseudopotential
        Al             3.00    26.98154     Al( 1.00)

     48 Sym. Ops., with inversion, found



   Cartesian axes

     site n.     atom                  positions (alat units)
         1           Al  tau(   1) = (   0.0000000   0.0000000   0.0000000  )

     number of k points=    47  Gaussian smearing, width (Ry)=  0.1000
                       cart. coord. in units 2pi/alat
        k(    1) = (   0.0000000   0.0000000   0.0000000), wk =   0.0020000
        k(    2) = (  -0.1344927   0.1344927  -0.1344927), wk =   0.0160000
        k(    3) = (  -0.2689854   0.2689854  -0.2689854), wk =   0.0160000
        k(    4) = (  -0.4034781   0.4034781  -0.4034781), wk =   0.0160000
        k(    5) = (  -0.5379708   0.5379708  -0.5379708), wk =   0.0160000
        k(    6) = (   0.6724635  -0.6724635   0.6724635), wk =   0.0080000
        k(    7) = (  -0.0000000   0.2689854  -0.0000000), wk =   0.0120000
        k(    8) = (  -0.1344927   0.4034781  -0.1344927), wk =   0.0480000
        k(    9) = (  -0.2689854   0.5379708  -0.2689854), wk =   0.0480000
        k(   10) = (  -0.4034781   0.6724635  -0.4034781), wk =   0.0480000
        k(   11) = (   0.8069562  -0.5379708   0.8069562), wk =   0.0480000
        k(   12) = (   0.6724635  -0.4034781   0.6724635), wk =   0.0480000
        k(   13) = (   0.5379708  -0.2689854   0.5379708), wk =   0.0480000
        k(   14) = (   0.4034781  -0.1344927   0.4034781), wk =   0.0480000
        k(   15) = (   0.2689854   0.0000000   0.2689854), wk =   0.0240000
        k(   16) = (  -0.0000000   0.5379708  -0.0000000), wk =   0.0120000
        k(   17) = (  -0.1344927   0.6724635  -0.1344927), wk =   0.0480000
        k(   18) = (  -0.2689854   0.8069562  -0.2689854), wk =   0.0480000
        k(   19) = (   0.9414489  -0.4034781   0.9414489), wk =   0.0480000
        k(   20) = (   0.8069562  -0.2689854   0.8069562), wk =   0.0480000
        k(   21) = (   0.6724635  -0.1344927   0.6724635), wk =   0.0480000
        k(   22) = (   0.5379708   0.0000000   0.5379708), wk =   0.0240000
        k(   23) = (  -0.0000000   0.8069562  -0.0000000), wk =   0.0120000
        k(   24) = (  -0.1344927   0.9414489  -0.1344927), wk =   0.0480000
        k(   25) = (   1.0759416  -0.2689854   1.0759416), wk =   0.0480000
        k(   26) = (   0.9414489  -0.1344927   0.9414489), wk =   0.0480000
        k(   27) = (   0.8069562   0.0000000   0.8069562), wk =   0.0240000
        k(   28) = (  -0.0000000   1.0759416  -0.0000000), wk =   0.0120000
        k(   29) = (   1.2104343  -0.1344927   1.2104343), wk =   0.0480000
        k(   30) = (   1.0759416   0.0000000   1.0759416), wk =   0.0240000
        k(   31) = (   0.0000000  -1.3449270   0.0000000), wk =   0.0060000
        k(   32) = (  -0.2689854   0.5379708  -0.0000000), wk =   0.0480000
        k(   33) = (  -0.4034781   0.6724635  -0.1344927), wk =   0.0960000
        k(   34) = (   0.8069562  -0.5379708   1.0759416), wk =   0.0960000
        k(   35) = (   0.6724635  -0.4034781   0.9414489), wk =   0.0480000
        k(   36) = (  -0.2689854   0.8069562  -0.0000000), wk =   0.0480000
        k(   37) = (   0.9414489  -0.4034781   1.2104343), wk =   0.0960000
        k(   38) = (   0.8069562  -0.2689854   1.0759416), wk =   0.0960000
        k(   39) = (   0.6724635  -0.1344927   0.9414489), wk =   0.0960000
        k(   40) = (   0.5379708   0.0000000   0.8069562), wk =   0.0480000
        k(   41) = (   1.0759416  -0.2689854   1.3449270), wk =   0.0480000
        k(   42) = (   0.9414489  -0.1344927   1.2104343), wk =   0.0960000
        k(   43) = (   0.8069562   0.0000000   1.0759416), wk =   0.0480000
        k(   44) = (  -0.2689854  -1.3449270   0.0000000), wk =   0.0240000
        k(   45) = (   0.8069562  -0.2689854   1.3449270), wk =   0.0480000
        k(   46) = (   0.6724635  -0.1344927   1.2104343), wk =   0.0480000
        k(   47) = (  -0.5379708  -1.3449270   0.0000000), wk =   0.0240000

     Dense  grid:     5209 G-vectors     FFT dimensions: (  25,  25,  25)

     Estimated max dynamical RAM per process >      10.94 MB

     WARNING: libxc functional with ID  263 depends
      on external parameters: check the user_guide of
      QE if you need to modify them or to check their
      default values.

     Initial potential from superposition of free atoms

     starting charge       2.9979, renormalised to       3.0000
     Starting wfcs are    9 randomized atomic wfcs

     total cpu time spent up to now is      671.9 secs

     Self-consistent Calculation

     iteration #  1     ecut=    50.00 Ry     beta= 0.01
     Davidson diagonalization with overlap
     c_bands:  2 eigenvalues not converged
     c_bands:  1 eigenvalues not converged
     c_bands:  1 eigenvalues not converged
     c_bands:  1 eigenvalues not converged
     c_bands:  1 eigenvalues not converged
     c_bands:  1 eigenvalues not converged
     ethr =  1.00E-06,  avg # of iterations = 12.9

     total cpu time spent up to now is      674.0 secs

     total energy              =      -4.15436902 Ry
     estimated scf accuracy    <       0.00652630 Ry

     iteration #  2     ecut=    50.00 Ry     beta= 0.01
     Davidson diagonalization with overlap
     ethr =  2.18E-04,  avg # of iterations =  1.0

     total cpu time spent up to now is      674.5 secs

     total energy              =      -4.15225434 Ry
     estimated scf accuracy    <       0.00644718 Ry

     iteration #  3     ecut=    50.00 Ry     beta= 0.01
     Davidson diagonalization with overlap
     ethr =  2.15E-04,  avg # of iterations =  1.7

     total cpu time spent up to now is      675.1 secs

     total energy              =      -4.15282004 Ry
     estimated scf accuracy    <       0.00010947 Ry

     iteration #  4     ecut=    50.00 Ry     beta= 0.01
     Davidson diagonalization with overlap
     ethr =  3.65E-06,  avg # of iterations =  2.7

     total cpu time spent up to now is      675.8 secs

     total energy              =      -4.15285707 Ry
     estimated scf accuracy    <       0.00010824 Ry

     iteration #  5     ecut=    50.00 Ry     beta= 0.01
     Davidson diagonalization with overlap
     ethr =  3.61E-06,  avg # of iterations =  1.0

     total cpu time spent up to now is      676.4 secs

     total energy              =      -4.15324145 Ry
     estimated scf accuracy    <       0.00010879 Ry

     iteration #  6     ecut=    50.00 Ry     beta= 0.01
     Davidson diagonalization with overlap
     ethr =  3.61E-06,  avg # of iterations =  2.0

     total cpu time spent up to now is      677.2 secs

     total energy              =      -4.15342718 Ry
     estimated scf accuracy    <       0.00000555 Ry

     iteration #  7     ecut=    50.00 Ry     beta= 0.01
     Davidson diagonalization with overlap
     ethr =  1.85E-07,  avg # of iterations =  2.1

     total cpu time spent up to now is      677.8 secs

     total energy              =      -4.15346089 Ry
     estimated scf accuracy    <       0.00000284 Ry

     iteration #  8     ecut=    50.00 Ry     beta= 0.01
     Davidson diagonalization with overlap
     ethr =  9.48E-08,  avg # of iterations =  2.0

     total cpu time spent up to now is      678.5 secs

     total energy              =      -4.15342808 Ry
     estimated scf accuracy    <       0.00000637 Ry

     iteration #  9     ecut=    50.00 Ry     beta= 0.01
     Davidson diagonalization with overlap
     ethr =  9.48E-08,  avg # of iterations =  2.5

     total cpu time spent up to now is      679.2 secs

     total energy              =      -4.15345029 Ry
     estimated scf accuracy    <       0.00000205 Ry

     iteration # 10     ecut=    50.00 Ry     beta= 0.01
     Davidson diagonalization with overlap
     ethr =  6.83E-08,  avg # of iterations =  2.0

     total cpu time spent up to now is      679.8 secs

     total energy              =      -4.15346733 Ry
     estimated scf accuracy    <       0.00000128 Ry

     iteration # 11     ecut=    50.00 Ry     beta= 0.01
     Davidson diagonalization with overlap
     ethr =  4.27E-08,  avg # of iterations =  2.0

     total cpu time spent up to now is      680.4 secs

     total energy              =      -4.15343645 Ry
     estimated scf accuracy    <       0.00000444 Ry

     iteration # 12     ecut=    50.00 Ry     beta= 0.01
     Davidson diagonalization with overlap
     ethr =  4.27E-08,  avg # of iterations =  2.8

     total cpu time spent up to now is      681.2 secs

     total energy              =      -4.15345638 Ry
     estimated scf accuracy    <       0.00000087 Ry

     iteration # 13     ecut=    50.00 Ry     beta= 0.01
     Davidson diagonalization with overlap
     ethr =  2.91E-08,  avg # of iterations =  2.0

     total cpu time spent up to now is      681.8 secs

     total energy              =      -4.15345699 Ry
     estimated scf accuracy    <       0.00000035 Ry

     iteration # 14     ecut=    50.00 Ry     beta= 0.01
     Davidson diagonalization with overlap
     ethr =  1.15E-08,  avg # of iterations =  1.0

     total cpu time spent up to now is      682.4 secs

     total energy              =      -4.15345520 Ry
     estimated scf accuracy    <       0.00000035 Ry

     iteration # 15     ecut=    50.00 Ry     beta= 0.01
     Davidson diagonalization with overlap
     ethr =  1.15E-08,  avg # of iterations =  2.0

     total cpu time spent up to now is      683.0 secs

     total energy              =      -4.15345585 Ry
     estimated scf accuracy    <       0.00000001 Ry

     iteration # 16     ecut=    50.00 Ry     beta= 0.01
     Davidson diagonalization with overlap
     ethr =  3.95E-10,  avg # of iterations =  1.7

     total cpu time spent up to now is      683.6 secs

     total energy              =      -4.15345593 Ry
     estimated scf accuracy    <       0.00000001 Ry

     iteration # 17     ecut=    50.00 Ry     beta= 0.01
     Davidson diagonalization with overlap
     ethr =  3.64E-10,  avg # of iterations =  2.0

     total cpu time spent up to now is      684.2 secs

     End of self-consistent calculation

          k = 0.0000 0.0000 0.0000 (   645 PWs)   bands (ev):

    -3.6191  20.8734  20.8734  20.8734  22.6817  22.6817

          k =-0.1345 0.1345-0.1345 (   655 PWs)   bands (ev):

    -3.3346  17.6017  20.2209  20.2209  23.2724  23.7300

          k =-0.2690 0.2690-0.2690 (   655 PWs)   bands (ev):

    -2.4848  13.4990  19.4883  19.4883  22.9250  24.0863

          k =-0.4035 0.4035-0.4035 (   652 PWs)   bands (ev):

    -1.0807   9.6871  19.1500  19.1500  22.3411  22.3411

          k =-0.5380 0.5380-0.5380 (   664 PWs)   bands (ev):

     0.8588   6.2860  19.2594  19.2594  20.8689  20.8689

          k = 0.6725-0.6725 0.6725 (   652 PWs)   bands (ev):

     3.1072   3.5483  19.7683  19.7683  19.8988  19.8988

          k =-0.0000 0.2690-0.0000 (   665 PWs)   bands (ev):

    -3.2399  18.8266  18.8266  19.0079  21.8202  24.4380

          k =-0.1345 0.4035-0.1345 (   662 PWs)   bands (ev):

    -2.5790  15.0038  17.8455  19.2288  21.7396  22.6589

          k =-0.2690 0.5380-0.2690 (   655 PWs)   bands (ev):

    -1.3604  11.1232  17.3210  18.9127  19.6981  24.7417

          k =-0.4035 0.6725-0.4035 (   654 PWs)   bands (ev):

     0.3997   7.5966  17.2627  17.9652  18.9420  23.6292

          k = 0.8070-0.5380 0.8070 (   662 PWs)   bands (ev):

     2.6647   4.5215  16.7419  17.6736  19.3913  22.4700

          k = 0.6725-0.4035 0.6725 (   659 PWs)   bands (ev):

     1.8603   5.4868  15.9992  18.5533  20.3273  21.7529

          k = 0.5380-0.2690 0.5380 (   653 PWs)   bands (ev):

    -0.2456   8.7190  15.7530  19.8862  21.4931  21.7276

          k = 0.4035-0.1345 0.4035 (   652 PWs)   bands (ev):

    -1.8277  12.3495  16.0247  21.4091  21.8558  23.5342

          k = 0.2690 0.0000 0.2690 (   660 PWs)   bands (ev):

    -2.8618  15.9294  17.1413  21.6064  22.9085  24.1742

          k =-0.0000 0.5380-0.0000 (   653 PWs)   bands (ev):

    -2.1089  16.5805  16.6722  16.6722  19.1060  20.2145

          k =-0.1345 0.6725-0.1345 (   655 PWs)   bands (ev):

    -1.0811  12.9638  15.9732  16.6734  17.3822  20.9168

          k =-0.2690 0.8070-0.2690 (   662 PWs)   bands (ev):

     0.4906   9.3860  14.7854  15.7482  17.4021  23.4539

          k = 0.9414-0.4035 0.9414 (   667 PWs)   bands (ev):

     2.5796   6.1856  13.3637  15.9972  17.7422  25.5592

          k = 0.8070-0.2690 0.8070 (   660 PWs)   bands (ev):

     3.3820   5.2125  12.4526  16.7203  18.5571  24.7112

          k = 0.6725-0.1345 0.6725 (   667 PWs)   bands (ev):

     1.1332   8.2002  12.1070  17.9152  19.8531  24.2764

          k = 0.5380 0.0000 0.5380 (   656 PWs)   bands (ev):

    -0.6162  11.1096  12.8068  19.5698  21.5819  23.7898

          k =-0.0000 0.8070-0.0000 (   652 PWs)   bands (ev):

    -0.2470  14.0971  14.7470  15.1058  15.1058  18.7571

          k =-0.1345 0.9414-0.1345 (   668 PWs)   bands (ev):

     1.1286  11.5059  12.0559  14.7160  15.9739  19.7190

          k = 1.0759-0.2690 1.0759 (   668 PWs)   bands (ev):

     3.0186   8.3106  10.4011  14.8023  16.3682  22.5860

          k = 0.9414-0.1345 0.9414 (   669 PWs)   bands (ev):

     5.2006   5.6164   9.3479  15.3645  17.0706  26.0214

          k = 0.8070 0.0000 0.8070 (   670 PWs)   bands (ev):

     3.0348   7.6359   9.3940  16.4027  18.2399  27.3558

          k =-0.0000 1.0759-0.0000 (   664 PWs)   bands (ev):

     2.2982   9.6412  13.6300  14.1629  14.1629  17.7973

          k = 1.2104-0.1345 1.2104 (   664 PWs)   bands (ev):

     3.9455   7.8604  10.9200  14.0868  15.2686  19.0911

          k = 1.0759 0.0000 1.0759 (   678 PWs)   bands (ev):

     5.5517   7.0451   8.1487  14.4870  16.0146  22.2872

          k = 0.0000-1.3449 0.0000 (   652 PWs)   bands (ev):

     4.8575   6.4434  13.2558  13.8486  13.8486  17.4647

          k =-0.2690 0.5380-0.0000 (   652 PWs)   bands (ev):

    -1.7341  13.5332  14.9987  19.4095  20.3196  22.2978

          k =-0.4035 0.6725-0.1345 (   657 PWs)   bands (ev):

    -0.3384  10.2830  14.0827  17.3864  20.6870  23.8095

          k = 0.8070-0.5380 1.0759 (   661 PWs)   bands (ev):

     1.5882   6.9652  14.0960  15.8348  20.8973  22.6350

          k = 0.6725-0.4035 0.9414 (   668 PWs)   bands (ev):

     3.8107   4.2673  14.4515  14.9724  21.3198  21.7753

          k =-0.2690 0.8070-0.0000 (   656 PWs)   bands (ev):

     0.1223  11.8027  13.2928  14.5703  18.7163  20.9272

          k = 0.9414-0.4035 1.2104 (   663 PWs)   bands (ev):

     1.8576   8.8832  12.3868  13.0987  19.4564  23.1307

          k = 0.8070-0.2690 1.0759 (   669 PWs)   bands (ev):

     4.0797   5.9133  11.3777  13.2097  20.0232  24.7221

          k = 0.6725-0.1345 0.9414 (   671 PWs)   bands (ev):

     3.2996   6.7990  10.7161  14.0918  20.9675  24.0108

          k = 0.5380 0.0000 0.8070 (   665 PWs)   bands (ev):

     1.2238   9.3732  11.1077  15.4999  22.3031  23.0962

          k = 1.0759-0.2690 1.3449 (   668 PWs)   bands (ev):

     2.6593   9.9507  10.7593  12.4840  17.7146  20.0334

          k = 0.9414-0.1345 1.2104 (   671 PWs)   bands (ev):

     4.6518   8.0468   8.7327  12.1571  18.8039  22.5716

          k = 0.8070 0.0000 1.0759 (   666 PWs)   bands (ev):

     5.4910   6.5935   8.3315  12.8441  19.7085  25.9951

          k =-0.2690-1.3449 0.0000 (   666 PWs)   bands (ev):

     5.2046   6.7933  10.4107  12.1254  17.3777  19.7250

          k = 0.8070-0.2690 1.3449 (   668 PWs)   bands (ev):

     3.7351   8.3301   9.9047  11.3101  22.1637  23.5408

          k = 0.6725-0.1345 1.2104 (   674 PWs)   bands (ev):

     5.8896   6.2483   9.5956  10.5524  23.1466  23.6526

          k =-0.5380-1.3449 0.0000 (   670 PWs)   bands (ev):

     6.2460   7.7488   7.9823   9.9766  21.8390  23.4496

     the Fermi energy is     7.9755 ev

!    total energy              =      -4.15345592 Ry
     estimated scf accuracy    <          4.3E-09 Ry
     smearing contrib. (-TS)   =      -0.02625173 Ry
     internal energy E=F+TS    =      -4.12720419 Ry

     The total energy is F=E-TS. E is the sum of the following terms:
     one-electron contribution =       2.86879040 Ry
     hartree contribution      =       0.00704886 Ry
     xc contribution           =      -1.59563790 Ry
     ewald contribution        =      -5.40740554 Ry

     convergence has been achieved in  17 iterations
     Writing meta-gga kinetic term

     Forces acting on atoms (cartesian axes, Ry/au):

     atom    1 type  1   force =     0.00000000    0.00000000    0.00000000

     Total force =     0.000000     Total SCF correction =     0.000000


     Computing stress (Cartesian axis) and pressure

          total   stress  (Ry/bohr**3)                   (kbar)     P=       -0.92
  -0.00000627   0.00000000   0.00000000           -0.92        0.00        0.00
   0.00000000  -0.00000627   0.00000000            0.00       -0.92        0.00
   0.00000000   0.00000000  -0.00000627            0.00        0.00       -0.92


     Writing all to output data dir ./pwscf.save/
     Writing meta-gga kinetic term
 
     init_run     :      1.66s CPU      1.70s WALL (       2 calls)
     electrons    :    668.07s CPU    671.67s WALL (      14 calls)
     update_pot   :      2.58s CPU      2.60s WALL (      12 calls)
     forces       :      1.06s CPU      1.07s WALL (      14 calls)
     stress       :      7.14s CPU      7.24s WALL (      14 calls)

     Called by init_run:
     wfcinit      :      1.30s CPU      1.32s WALL (       2 calls)
     potinit      :      0.13s CPU      0.13s WALL (       2 calls)
     hinit0       :      0.21s CPU      0.23s WALL (       2 calls)

     Called by electrons:
     c_bands      :    558.15s CPU    561.10s WALL (     311 calls)
     sum_band     :    101.87s CPU    102.36s WALL (     311 calls)
     v_of_rho     :      5.49s CPU      5.55s WALL (     323 calls)
     mix_rho      :      2.61s CPU      2.71s WALL (     311 calls)

     Called by c_bands:
     init_us_2    :      2.70s CPU      2.71s WALL (   30644 calls)
     init_us_2:cp :      2.64s CPU      2.66s WALL (   30644 calls)
     cegterg      :    555.47s CPU    558.40s WALL (   14644 calls)

     Called by *egterg:
     cdiaghg      :      1.76s CPU      1.77s WALL (   50368 calls)
     h_psi        :    547.69s CPU    550.58s WALL (   51120 calls)
     g_psi        :      0.51s CPU      0.52s WALL (   36382 calls)

     Called by h_psi:
     h_psi:calbec :      0.86s CPU      0.86s WALL (   51120 calls)
     vloc_psi     :    135.68s CPU    136.54s WALL (   51120 calls)
     add_vuspsi   :      0.96s CPU      0.97s WALL (   51120 calls)
     h_psi_meta   :    409.57s CPU    411.58s WALL (   51120 calls)

     General routines
     calbec       :      0.81s CPU      0.82s WALL (   54410 calls)
     fft          :      0.93s CPU      0.97s WALL (    3950 calls)
     ffts         :      1.21s CPU      1.23s WALL (    5041 calls)
     fftw         :    578.23s CPU    581.24s WALL ( 2431076 calls)
     interpolate  :      0.01s CPU      0.01s WALL (     323 calls)
 
     Parallel routines
 
     PWSCF        :  11m20.67s CPU  11m24.47s WALL

 
   This run was terminated on:  20:41:48  19Feb2023            

=------------------------------------------------------------------------------=
   JOB DONE.
=------------------------------------------------------------------------------=
