
     Program PWSCF v.7.0 starts on 14Mar2023 at 14:31: 7 

     This program is part of the open-source Quantum ESPRESSO suite
     for quantum simulation of materials; please cite
         "P. Giannozzi et al., J. Phys.:Condens. Matter 21 395502 (2009);
         "P. Giannozzi et al., J. Phys.:Condens. Matter 29 465901 (2017);
         "P. Giannozzi et al., J. Chem. Phys. 152 154105 (2020);
          URL http://www.quantum-espresso.org", 
     in publications or presentations arising from this work. More details at
     http://www.quantum-espresso.org/quote

     Parallel version (MPI), running on     1 processors

     MPI processes distributed on     1 nodes
     26753 MiB available memory on the printing compute node when the environment starts
 
     Waiting for input...
     Reading input from standard input
Warning: card &CELL ignored
Warning: card / ignored

     Current dimensions of program PWSCF are:
     Max number of different atomic species (ntypx) = 10
     Max number of k-points (npk) =  40000
     Max angular momentum in pseudopotentials (lmaxx) =  4
     file Cl.SCAN.UPF2: wavefunction(s)  0D renormalized

     WARNING: the MGGA functional with ID    5 has been 
     read together with other dft terms, but it should 
     stand alone in order to work properly. The other 
     terms will be ignored.

     WARNING: the MGGA functional with ID    5 has been 
     read together with other dft terms, but it should 
     stand alone in order to work properly. The other 
     terms will be ignored.

     Subspace diagonalization in iterative solution of the eigenvalue problem:
     a serial algorithm will be used

 
     G-vector sticks info
     --------------------
     sticks:   dense  smooth     PW     G-vecs:    dense   smooth      PW
     Sum         871     871    265                17153    17153    2891
 
     Using Slab Decomposition
 


     bravais-lattice index     =            2
     lattice parameter (alat)  =      11.2960  a.u.
     unit-cell volume          =     360.3413 (a.u.)^3
     number of atoms/cell      =            2
     number of atomic types    =            2
     number of electrons       =         8.00
     number of Kohn-Sham states=            4
     kinetic-energy cutoff     =      50.0000  Ry
     charge density cutoff     =     200.0000  Ry
     scf convergence threshold =      1.0E-06
     mixing beta               =       0.0100
     number of iterations used =            8  local-TF  mixing
     Exchange-correlation= SLA  PW   SCAN SCAN
                           (   0   0   0   0   0 263 267)

     celldm(1)=  11.296000  celldm(2)=   0.000000  celldm(3)=   0.000000
     celldm(4)=   0.000000  celldm(5)=   0.000000  celldm(6)=   0.000000

     crystal axes: (cart. coord. in units of alat)
               a(1) = (  -0.500000   0.000000   0.500000 )  
               a(2) = (   0.000000   0.500000   0.500000 )  
               a(3) = (  -0.500000   0.500000   0.000000 )  

     reciprocal axes: (cart. coord. in units 2 pi/alat)
               b(1) = ( -1.000000 -1.000000  1.000000 )  
               b(2) = (  1.000000  1.000000  1.000000 )  
               b(3) = ( -1.000000  1.000000 -1.000000 )  


     PseudoPot. # 1 for Li read from file:
     ~/Documents/TA/PWDFT.jl/pseudopotentials/scan_upf/Li.SCAN.UPF2
     MD5 check sum: Not computed, couldn't open file
     Pseudo is Norm-conserving, Zval =  1.0
     Generated by new atomic code, or converted to UPF format
     Using radial grid of 1321 points,  1 beta functions with: 
                l(1) =   0

     PseudoPot. # 2 for Cl read from file:
     ~/Documents/TA/PWDFT.jl/pseudopotentials/scan_upf/Cl.SCAN.UPF2
     MD5 check sum: Not computed, couldn't open file
     Pseudo is Norm-conserving, Zval =  7.0
     Generated by new atomic code, or converted to UPF format
     Using radial grid of 1493 points,  2 beta functions with: 
                l(1) =   0
                l(2) =   1

     atomic species   valence    mass     pseudopotential
        Na             1.00     6.94100     Li( 1.00)
        Cl             7.00    35.45300     Cl( 1.00)

     48 Sym. Ops., with inversion, found



   Cartesian axes

     site n.     atom                  positions (alat units)
         1           Na  tau(   1) = (   0.0000000   0.0000000   0.0000000  )
         2           Cl  tau(   2) = (   0.5000000   0.5000000   0.5000000  )

     number of k points=    47
                       cart. coord. in units 2pi/alat
        k(    1) = (   0.0000000   0.0000000   0.0000000), wk =   0.0020000
        k(    2) = (  -0.1000000   0.1000000  -0.1000000), wk =   0.0160000
        k(    3) = (  -0.2000000   0.2000000  -0.2000000), wk =   0.0160000
        k(    4) = (  -0.3000000   0.3000000  -0.3000000), wk =   0.0160000
        k(    5) = (  -0.4000000   0.4000000  -0.4000000), wk =   0.0160000
        k(    6) = (   0.5000000  -0.5000000   0.5000000), wk =   0.0080000
        k(    7) = (   0.0000000   0.2000000   0.0000000), wk =   0.0120000
        k(    8) = (  -0.1000000   0.3000000  -0.1000000), wk =   0.0480000
        k(    9) = (  -0.2000000   0.4000000  -0.2000000), wk =   0.0480000
        k(   10) = (  -0.3000000   0.5000000  -0.3000000), wk =   0.0480000
        k(   11) = (   0.6000000  -0.4000000   0.6000000), wk =   0.0480000
        k(   12) = (   0.5000000  -0.3000000   0.5000000), wk =   0.0480000
        k(   13) = (   0.4000000  -0.2000000   0.4000000), wk =   0.0480000
        k(   14) = (   0.3000000  -0.1000000   0.3000000), wk =   0.0480000
        k(   15) = (   0.2000000   0.0000000   0.2000000), wk =   0.0240000
        k(   16) = (   0.0000000   0.4000000   0.0000000), wk =   0.0120000
        k(   17) = (  -0.1000000   0.5000000  -0.1000000), wk =   0.0480000
        k(   18) = (  -0.2000000   0.6000000  -0.2000000), wk =   0.0480000
        k(   19) = (   0.7000000  -0.3000000   0.7000000), wk =   0.0480000
        k(   20) = (   0.6000000  -0.2000000   0.6000000), wk =   0.0480000
        k(   21) = (   0.5000000  -0.1000000   0.5000000), wk =   0.0480000
        k(   22) = (   0.4000000   0.0000000   0.4000000), wk =   0.0240000
        k(   23) = (   0.0000000   0.6000000   0.0000000), wk =   0.0120000
        k(   24) = (  -0.1000000   0.7000000  -0.1000000), wk =   0.0480000
        k(   25) = (   0.8000000  -0.2000000   0.8000000), wk =   0.0480000
        k(   26) = (   0.7000000  -0.1000000   0.7000000), wk =   0.0480000
        k(   27) = (   0.6000000  -0.0000000   0.6000000), wk =   0.0240000
        k(   28) = (   0.0000000   0.8000000   0.0000000), wk =   0.0120000
        k(   29) = (   0.9000000  -0.1000000   0.9000000), wk =   0.0480000
        k(   30) = (   0.8000000   0.0000000   0.8000000), wk =   0.0240000
        k(   31) = (   0.0000000  -1.0000000   0.0000000), wk =   0.0060000
        k(   32) = (  -0.2000000   0.4000000   0.0000000), wk =   0.0480000
        k(   33) = (  -0.3000000   0.5000000  -0.1000000), wk =   0.0960000
        k(   34) = (   0.6000000  -0.4000000   0.8000000), wk =   0.0960000
        k(   35) = (   0.5000000  -0.3000000   0.7000000), wk =   0.0480000
        k(   36) = (  -0.2000000   0.6000000   0.0000000), wk =   0.0480000
        k(   37) = (   0.7000000  -0.3000000   0.9000000), wk =   0.0960000
        k(   38) = (   0.6000000  -0.2000000   0.8000000), wk =   0.0960000
        k(   39) = (   0.5000000  -0.1000000   0.7000000), wk =   0.0960000
        k(   40) = (   0.4000000   0.0000000   0.6000000), wk =   0.0480000
        k(   41) = (   0.8000000  -0.2000000   1.0000000), wk =   0.0480000
        k(   42) = (   0.7000000  -0.1000000   0.9000000), wk =   0.0960000
        k(   43) = (   0.6000000   0.0000000   0.8000000), wk =   0.0480000
        k(   44) = (  -0.2000000  -1.0000000   0.0000000), wk =   0.0240000
        k(   45) = (   0.6000000  -0.2000000   1.0000000), wk =   0.0480000
        k(   46) = (   0.5000000  -0.1000000   0.9000000), wk =   0.0480000
        k(   47) = (  -0.4000000  -1.0000000   0.0000000), wk =   0.0240000

     Dense  grid:    17153 G-vectors     FFT dimensions: (  36,  36,  36)

     Estimated max dynamical RAM per process >      31.96 MB

     WARNING: libxc functional with ID  263 depends
      on external parameters: check the user_guide of
      QE if you need to modify them or to check their
      default values.

     Initial potential from superposition of free atoms

     starting charge       7.9953, renormalised to       8.0000
     Starting wfcs are   13 randomized atomic wfcs

     total cpu time spent up to now is        8.4 secs

     Self-consistent Calculation

     iteration #  1     ecut=    50.00 Ry     beta= 0.01
     Davidson diagonalization with overlap
     ethr =  1.00E-02,  avg # of iterations =  1.0

     total cpu time spent up to now is       14.3 secs

     total energy              =     -30.63049284 Ry
     estimated scf accuracy    <       0.37171786 Ry

     iteration #  2     ecut=    50.00 Ry     beta= 0.01
     Davidson diagonalization with overlap
     ethr =  4.65E-03,  avg # of iterations =  1.0

     total cpu time spent up to now is       20.4 secs

     total energy              =     -30.66922168 Ry
     estimated scf accuracy    <       0.35397778 Ry

     iteration #  3     ecut=    50.00 Ry     beta= 0.01
     Davidson diagonalization with overlap
     ethr =  4.42E-03,  avg # of iterations =  1.0

     total cpu time spent up to now is       27.2 secs

     total energy              =     -30.71124540 Ry
     estimated scf accuracy    <       0.25718168 Ry

     iteration #  4     ecut=    50.00 Ry     beta= 0.01
     Davidson diagonalization with overlap
     ethr =  3.21E-03,  avg # of iterations =  1.0

     total cpu time spent up to now is       32.9 secs

     total energy              =     -30.71336960 Ry
     estimated scf accuracy    <       0.00896620 Ry

     iteration #  5     ecut=    50.00 Ry     beta= 0.01
     Davidson diagonalization with overlap
     ethr =  1.12E-04,  avg # of iterations =  1.0

     total cpu time spent up to now is       38.2 secs

     total energy              =     -30.71143315 Ry
     estimated scf accuracy    <       0.00820435 Ry

     iteration #  6     ecut=    50.00 Ry     beta= 0.01
     Davidson diagonalization with overlap
     ethr =  1.03E-04,  avg # of iterations =  1.0

     total cpu time spent up to now is       42.9 secs

     total energy              =     -30.71074033 Ry
     estimated scf accuracy    <       0.00522673 Ry

     iteration #  7     ecut=    50.00 Ry     beta= 0.01
     Davidson diagonalization with overlap
     ethr =  6.53E-05,  avg # of iterations =  2.0

     total cpu time spent up to now is       48.5 secs

     total energy              =     -30.71305863 Ry
     estimated scf accuracy    <       0.00310142 Ry

     iteration #  8     ecut=    50.00 Ry     beta= 0.01
     Davidson diagonalization with overlap
     ethr =  3.88E-05,  avg # of iterations =  1.0

     total cpu time spent up to now is       52.0 secs

     total energy              =     -30.71272394 Ry
     estimated scf accuracy    <       0.00341210 Ry

     iteration #  9     ecut=    50.00 Ry     beta= 0.01
     Davidson diagonalization with overlap
     ethr =  3.88E-05,  avg # of iterations =  1.0

     total cpu time spent up to now is       55.3 secs

     total energy              =     -30.71209082 Ry
     estimated scf accuracy    <       0.00244023 Ry

     iteration # 10     ecut=    50.00 Ry     beta= 0.01
     Davidson diagonalization with overlap
     ethr =  3.05E-05,  avg # of iterations =  1.9

     total cpu time spent up to now is       59.1 secs

     total energy              =     -30.71242561 Ry
     estimated scf accuracy    <       0.00004721 Ry

     iteration # 11     ecut=    50.00 Ry     beta= 0.01
     Davidson diagonalization with overlap
     ethr =  5.90E-07,  avg # of iterations =  2.0

     total cpu time spent up to now is       63.3 secs

     total energy              =     -30.71249795 Ry
     estimated scf accuracy    <       0.00008869 Ry

     iteration # 12     ecut=    50.00 Ry     beta= 0.01
     Davidson diagonalization with overlap
     ethr =  5.90E-07,  avg # of iterations =  2.0

     total cpu time spent up to now is       67.5 secs

     total energy              =     -30.71242738 Ry
     estimated scf accuracy    <       0.00022125 Ry

     iteration # 13     ecut=    50.00 Ry     beta= 0.01
     Davidson diagonalization with overlap
     ethr =  5.90E-07,  avg # of iterations =  2.0

     total cpu time spent up to now is       71.7 secs

     total energy              =     -30.71243717 Ry
     estimated scf accuracy    <       0.00001973 Ry

     iteration # 14     ecut=    50.00 Ry     beta= 0.01
     Davidson diagonalization with overlap
     ethr =  2.47E-07,  avg # of iterations =  2.0

     total cpu time spent up to now is       75.2 secs

     End of self-consistent calculation

          k = 0.0000 0.0000 0.0000 (  2109 PWs)   bands (ev):

   -14.5888  -1.8566  -1.8566  -1.8566

          k =-0.1000 0.1000-0.1000 (  2124 PWs)   bands (ev):

   -14.5721  -2.0281  -1.8687  -1.8687

          k =-0.2000 0.2000-0.2000 (  2127 PWs)   bands (ev):

   -14.5274  -2.4264  -1.8997  -1.8997

          k =-0.3000 0.3000-0.3000 (  2145 PWs)   bands (ev):

   -14.4711  -2.8504  -1.9369  -1.9369

          k =-0.4000 0.4000-0.4000 (  2144 PWs)   bands (ev):

   -14.4244  -3.1563  -1.9661  -1.9661

          k = 0.5000-0.5000 0.5000 (  2138 PWs)   bands (ev):

   -14.4062  -3.2666  -1.9771  -1.9771

          k = 0.0000 0.2000 0.0000 (  2133 PWs)   bands (ev):

   -14.5665  -2.0185  -1.9072  -1.9072

          k =-0.1000 0.3000-0.1000 (  2142 PWs)   bands (ev):

   -14.5311  -2.3195  -1.9592  -1.9298

          k =-0.2000 0.4000-0.2000 (  2136 PWs)   bands (ev):

   -14.4782  -2.7204  -2.0043  -1.9716

          k =-0.3000 0.5000-0.3000 (  2132 PWs)   bands (ev):

   -14.4279  -3.0505  -2.0320  -2.0258

          k = 0.6000-0.4000 0.6000 (  2151 PWs)   bands (ev):

   -14.4002  -3.2166  -2.0871  -2.0162

          k = 0.5000-0.3000 0.5000 (  2146 PWs)   bands (ev):

   -14.4062  -3.1794  -2.1152  -1.9794

          k = 0.4000-0.2000 0.4000 (  2151 PWs)   bands (ev):

   -14.4438  -2.9496  -2.1038  -1.9286

          k = 0.3000-0.1000 0.3000 (  2141 PWs)   bands (ev):

   -14.4972  -2.5899  -2.0516  -1.8826

          k = 0.2000 0.0000 0.2000 (  2143 PWs)   bands (ev):

   -14.5461  -2.2278  -1.9626  -1.8593

          k = 0.0000 0.4000 0.0000 (  2137 PWs)   bands (ev):

   -14.5065  -2.3962  -2.0366  -2.0366

          k =-0.1000 0.5000-0.1000 (  2139 PWs)   bands (ev):

   -14.4626  -2.6731  -2.1060  -2.1018

          k =-0.2000 0.6000-0.2000 (  2140 PWs)   bands (ev):

   -14.4157  -2.9449  -2.2084  -2.1314

          k = 0.7000-0.3000 0.7000 (  2154 PWs)   bands (ev):

   -14.3841  -3.1002  -2.3281  -2.1155

          k = 0.6000-0.2000 0.6000 (  2151 PWs)   bands (ev):

   -14.3804  -3.1004  -2.4126  -2.0595

          k = 0.5000-0.1000 0.5000 (  2152 PWs)   bands (ev):

   -14.4063  -2.9653  -2.4084  -1.9832

          k = 0.4000 0.0000 0.4000 (  2133 PWs)   bands (ev):

   -14.4509  -2.7725  -2.2741  -1.9150

          k = 0.0000 0.6000 0.0000 (  2149 PWs)   bands (ev):

   -14.4299  -2.8045  -2.1908  -2.1908

          k =-0.1000 0.7000-0.1000 (  2143 PWs)   bands (ev):

   -14.3920  -2.9790  -2.2945  -2.2397

          k = 0.8000-0.2000 0.8000 (  2155 PWs)   bands (ev):

   -14.3639  -3.0538  -2.4728  -2.2324

          k = 0.7000-0.1000 0.7000 (  2152 PWs)   bands (ev):

   -14.3564  -2.9827  -2.6748  -2.1712

          k = 0.6000-0.0000 0.6000 (  2153 PWs)   bands (ev):

   -14.3727  -2.8987  -2.7055  -2.0766

          k = 0.0000 0.8000 0.0000 (  2148 PWs)   bands (ev):

   -14.3658  -3.1056  -2.3113  -2.3113

          k = 0.9000-0.1000 0.9000 (  2149 PWs)   bands (ev):

   -14.3472  -3.1559  -2.4102  -2.3227

          k = 0.8000 0.0000 0.8000 (  2147 PWs)   bands (ev):

   -14.3436  -3.0734  -2.5951  -2.2705

          k = 0.0000-1.0000 0.0000 (  2164 PWs)   bands (ev):

   -14.3409  -3.2157  -2.3563  -2.3563

          k =-0.2000 0.4000 0.0000 (  2140 PWs)   bands (ev):

   -14.4913  -2.5513  -2.1039  -1.9455

          k =-0.3000 0.5000-0.1000 (  2151 PWs)   bands (ev):

   -14.4414  -2.8401  -2.2223  -1.9875

          k = 0.6000-0.4000 0.8000 (  2153 PWs)   bands (ev):

   -14.4002  -3.0676  -2.2824  -2.0419

          k = 0.5000-0.3000 0.7000 (  2154 PWs)   bands (ev):

   -14.3842  -3.1523  -2.2988  -2.0674

          k =-0.2000 0.6000 0.0000 (  2144 PWs)   bands (ev):

   -14.4217  -2.8542  -2.2715  -2.1272

          k = 0.7000-0.3000 0.9000 (  2153 PWs)   bands (ev):

   -14.3839  -2.9916  -2.4182  -2.1743

          k = 0.6000-0.2000 0.8000 (  2153 PWs)   bands (ev):

   -14.3641  -3.0306  -2.5452  -2.1799

          k = 0.5000-0.1000 0.7000 (  2165 PWs)   bands (ev):

   -14.3705  -2.9797  -2.5957  -2.1263

          k = 0.4000 0.0000 0.6000 (  2154 PWs)   bands (ev):

   -14.4001  -2.9156  -2.4732  -2.0463

          k = 0.8000-0.2000 1.0000 (  2157 PWs)   bands (ev):

   -14.3637  -3.0669  -2.4019  -2.2925

          k = 0.7000-0.1000 0.9000 (  2162 PWs)   bands (ev):

   -14.3477  -3.0384  -2.5783  -2.2981

          k = 0.6000 0.0000 0.8000 (  2158 PWs)   bands (ev):

   -14.3502  -2.8816  -2.7886  -2.2296

          k =-0.2000-1.0000 0.0000 (  2150 PWs)   bands (ev):

   -14.3410  -3.1436  -2.4505  -2.3574

          k = 0.6000-0.2000 1.0000 (  2182 PWs)   bands (ev):

   -14.3581  -2.9558  -2.6262  -2.2518

          k = 0.5000-0.1000 0.9000 (  2168 PWs)   bands (ev):

   -14.3480  -2.8895  -2.7477  -2.2937

          k =-0.4000-1.0000 0.0000 (  2172 PWs)   bands (ev):

   -14.3417  -2.9464  -2.6830  -2.3592

     highest occupied level (ev):    -1.8566

!    total energy              =     -30.71244080 Ry
     estimated scf accuracy    <       0.00000012 Ry

     The total energy is the sum of the following terms:
     one-electron contribution =     -10.87649736 Ry
     hartree contribution      =       8.05319555 Ry
     xc contribution           =      -6.24436521 Ry
     ewald contribution        =     -21.64477379 Ry

     convergence has been achieved in  14 iterations
     Writing meta-gga kinetic term

     Writing all to output data dir ./input_pw/NaCl/14/pwscf.save/
     Writing meta-gga kinetic term
 
     init_run     :      3.02s CPU      8.31s WALL (       1 calls)
     electrons    :     38.30s CPU     66.78s WALL (       1 calls)

     Called by init_run:
     wfcinit      :      2.87s CPU      7.88s WALL (       1 calls)
     potinit      :      0.03s CPU      0.15s WALL (       1 calls)
     hinit0       :      0.10s CPU      0.23s WALL (       1 calls)

     Called by electrons:
     c_bands      :     30.36s CPU     53.03s WALL (      14 calls)
     sum_band     :      6.95s CPU     12.07s WALL (      14 calls)
     v_of_rho     :      0.46s CPU      0.86s WALL (      15 calls)
     mix_rho      :      0.53s CPU      0.90s WALL (      14 calls)

     Called by c_bands:
     init_us_2    :      0.39s CPU      0.78s WALL (    1363 calls)
     init_us_2:cp :      0.38s CPU      0.75s WALL (    1363 calls)
     cegterg      :     30.00s CPU     52.31s WALL (     658 calls)

     Called by *egterg:
     cdiaghg      :      0.11s CPU      0.19s WALL (    1595 calls)
     h_psi        :     32.18s CPU     59.10s WALL (    1642 calls)
     g_psi        :      0.02s CPU      0.03s WALL (     937 calls)

     Called by h_psi:
     h_psi:calbec :      0.13s CPU      0.27s WALL (    1642 calls)
     vloc_psi     :      7.99s CPU     14.49s WALL (    1642 calls)
     add_vuspsi   :      0.10s CPU      0.12s WALL (    1642 calls)
     h_psi_meta   :     23.91s CPU     44.14s WALL (    1642 calls)

     General routines
     calbec       :      0.12s CPU      0.25s WALL (    1642 calls)
     fft          :      0.09s CPU      0.27s WALL (     177 calls)
     ffts         :      0.19s CPU      0.30s WALL (     355 calls)
     fftw         :     33.16s CPU     60.95s WALL (   64992 calls)
     interpolate  :      0.00s CPU      0.00s WALL (      15 calls)
 
     Parallel routines
 
     PWSCF        :     41.37s CPU   1m15.22s WALL

 
   This run was terminated on:  14:32:23  14Mar2023            

=------------------------------------------------------------------------------=
   JOB DONE.
=------------------------------------------------------------------------------=
