
     Program PWSCF v.7.0 starts on  7Jul2023 at 14:23:45 

     This program is part of the open-source Quantum ESPRESSO suite
     for quantum simulation of materials; please cite
         "P. Giannozzi et al., J. Phys.:Condens. Matter 21 395502 (2009);
         "P. Giannozzi et al., J. Phys.:Condens. Matter 29 465901 (2017);
         "P. Giannozzi et al., J. Chem. Phys. 152 154105 (2020);
          URL http://www.quantum-espresso.org", 
     in publications or presentations arising from this work. More details at
     http://www.quantum-espresso.org/quote

     Parallel version (MPI), running on     1 processors

     MPI processes distributed on     1 nodes
     27369 MiB available memory on the printing compute node when the environment starts
 
     Waiting for input...
     Reading input from standard input
Warning: card &CELL ignored
Warning: card / ignored

     Current dimensions of program PWSCF are:
     Max number of different atomic species (ntypx) = 10
     Max number of k-points (npk) =  40000
     Max angular momentum in pseudopotentials (lmaxx) =  4

     WARNING: the MGGA functional with ID    5 has been 
     read together with other dft terms, but it should 
     stand alone in order to work properly. The other 
     terms will be ignored.

     WARNING: the MGGA functional with ID    5 has been 
     read together with other dft terms, but it should 
     stand alone in order to work properly. The other 
     terms will be ignored.

     Subspace diagonalization in iterative solution of the eigenvalue problem:
     a serial algorithm will be used

 
     G-vector sticks info
     --------------------
     sticks:   dense  smooth     PW     G-vecs:    dense   smooth      PW
     Sum         397     397    127                 5161     5161     965
 
     Using Slab Decomposition
 


     bravais-lattice index     =            2
     lattice parameter (alat)  =       7.5841  a.u.
     unit-cell volume          =     109.0567 (a.u.)^3
     number of atoms/cell      =            2
     number of atomic types    =            2
     number of electrons       =         8.00
     number of Kohn-Sham states=            4
     kinetic-energy cutoff     =      50.0000  Ry
     charge density cutoff     =     200.0000  Ry
     scf convergence threshold =      2.0E-05
     mixing beta               =       0.2000
     number of iterations used =            8  local-TF  mixing
     Exchange-correlation= SLA  PW   SCAN SCAN
                           (   0   0   0   0   0 263 267)

     celldm(1)=   7.584101  celldm(2)=   0.000000  celldm(3)=   0.000000
     celldm(4)=   0.000000  celldm(5)=   0.000000  celldm(6)=   0.000000

     crystal axes: (cart. coord. in units of alat)
               a(1) = (  -0.500000   0.000000   0.500000 )  
               a(2) = (   0.000000   0.500000   0.500000 )  
               a(3) = (  -0.500000   0.500000   0.000000 )  

     reciprocal axes: (cart. coord. in units 2 pi/alat)
               b(1) = ( -1.000000 -1.000000  1.000000 )  
               b(2) = (  1.000000  1.000000  1.000000 )  
               b(3) = ( -1.000000  1.000000 -1.000000 )  


     PseudoPot. # 1 for Li read from file:
     ~/Documents/TA/PWDFT.jl/pseudopotentials/scan_upf/Li.SCAN.UPF2
     MD5 check sum: Not computed, couldn't open file
     Pseudo is Norm-conserving, Zval =  1.0
     Generated by new atomic code, or converted to UPF format
     Using radial grid of 1321 points,  1 beta functions with: 
                l(1) =   0

     PseudoPot. # 2 for F  read from file:
     ~/Documents/TA/PWDFT.jl/pseudopotentials/scan_upf/F.SCAN.UPF2
     MD5 check sum: Not computed, couldn't open file
     Pseudo is Norm-conserving, Zval =  7.0
     Generated by new atomic code, or converted to UPF format
     Using radial grid of 1431 points,  1 beta functions with: 
                l(1) =   0

     atomic species   valence    mass     pseudopotential
        Li             1.00     6.94100     Li( 1.00)
        F              7.00    18.99800     F ( 1.00)

     48 Sym. Ops., with inversion, found



   Cartesian axes

     site n.     atom                  positions (alat units)
         1           Li  tau(   1) = (   0.0000000   0.0000000   0.0000000  )
         2           F   tau(   2) = (   0.5000000   0.5000000   0.5000000  )

     number of k points=    47
                       cart. coord. in units 2pi/alat
        k(    1) = (   0.0000000   0.0000000   0.0000000), wk =   0.0020000
        k(    2) = (  -0.1000000   0.1000000  -0.1000000), wk =   0.0160000
        k(    3) = (  -0.2000000   0.2000000  -0.2000000), wk =   0.0160000
        k(    4) = (  -0.3000000   0.3000000  -0.3000000), wk =   0.0160000
        k(    5) = (  -0.4000000   0.4000000  -0.4000000), wk =   0.0160000
        k(    6) = (   0.5000000  -0.5000000   0.5000000), wk =   0.0080000
        k(    7) = (   0.0000000   0.2000000   0.0000000), wk =   0.0120000
        k(    8) = (  -0.1000000   0.3000000  -0.1000000), wk =   0.0480000
        k(    9) = (  -0.2000000   0.4000000  -0.2000000), wk =   0.0480000
        k(   10) = (  -0.3000000   0.5000000  -0.3000000), wk =   0.0480000
        k(   11) = (   0.6000000  -0.4000000   0.6000000), wk =   0.0480000
        k(   12) = (   0.5000000  -0.3000000   0.5000000), wk =   0.0480000
        k(   13) = (   0.4000000  -0.2000000   0.4000000), wk =   0.0480000
        k(   14) = (   0.3000000  -0.1000000   0.3000000), wk =   0.0480000
        k(   15) = (   0.2000000   0.0000000   0.2000000), wk =   0.0240000
        k(   16) = (   0.0000000   0.4000000   0.0000000), wk =   0.0120000
        k(   17) = (  -0.1000000   0.5000000  -0.1000000), wk =   0.0480000
        k(   18) = (  -0.2000000   0.6000000  -0.2000000), wk =   0.0480000
        k(   19) = (   0.7000000  -0.3000000   0.7000000), wk =   0.0480000
        k(   20) = (   0.6000000  -0.2000000   0.6000000), wk =   0.0480000
        k(   21) = (   0.5000000  -0.1000000   0.5000000), wk =   0.0480000
        k(   22) = (   0.4000000   0.0000000   0.4000000), wk =   0.0240000
        k(   23) = (   0.0000000   0.6000000   0.0000000), wk =   0.0120000
        k(   24) = (  -0.1000000   0.7000000  -0.1000000), wk =   0.0480000
        k(   25) = (   0.8000000  -0.2000000   0.8000000), wk =   0.0480000
        k(   26) = (   0.7000000  -0.1000000   0.7000000), wk =   0.0480000
        k(   27) = (   0.6000000  -0.0000000   0.6000000), wk =   0.0240000
        k(   28) = (   0.0000000   0.8000000   0.0000000), wk =   0.0120000
        k(   29) = (   0.9000000  -0.1000000   0.9000000), wk =   0.0480000
        k(   30) = (   0.8000000   0.0000000   0.8000000), wk =   0.0240000
        k(   31) = (   0.0000000  -1.0000000   0.0000000), wk =   0.0060000
        k(   32) = (  -0.2000000   0.4000000   0.0000000), wk =   0.0480000
        k(   33) = (  -0.3000000   0.5000000  -0.1000000), wk =   0.0960000
        k(   34) = (   0.6000000  -0.4000000   0.8000000), wk =   0.0960000
        k(   35) = (   0.5000000  -0.3000000   0.7000000), wk =   0.0480000
        k(   36) = (  -0.2000000   0.6000000   0.0000000), wk =   0.0480000
        k(   37) = (   0.7000000  -0.3000000   0.9000000), wk =   0.0960000
        k(   38) = (   0.6000000  -0.2000000   0.8000000), wk =   0.0960000
        k(   39) = (   0.5000000  -0.1000000   0.7000000), wk =   0.0960000
        k(   40) = (   0.4000000   0.0000000   0.6000000), wk =   0.0480000
        k(   41) = (   0.8000000  -0.2000000   1.0000000), wk =   0.0480000
        k(   42) = (   0.7000000  -0.1000000   0.9000000), wk =   0.0960000
        k(   43) = (   0.6000000   0.0000000   0.8000000), wk =   0.0480000
        k(   44) = (  -0.2000000  -1.0000000   0.0000000), wk =   0.0240000
        k(   45) = (   0.6000000  -0.2000000   1.0000000), wk =   0.0480000
        k(   46) = (   0.5000000  -0.1000000   0.9000000), wk =   0.0480000
        k(   47) = (  -0.4000000  -1.0000000   0.0000000), wk =   0.0240000

     Dense  grid:     5161 G-vectors     FFT dimensions: (  25,  25,  25)

     Estimated max dynamical RAM per process >       9.74 MB

     WARNING: libxc functional with ID  263 depends
      on external parameters: check the user_guide of
      QE if you need to modify them or to check their
      default values.

     Initial potential from superposition of free atoms

     starting charge       7.9953, renormalised to       8.0000
     Starting wfcs are    8 randomized atomic wfcs

     total cpu time spent up to now is        1.3 secs

     Self-consistent Calculation

     iteration #  1     ecut=    50.00 Ry     beta= 0.20
     Davidson diagonalization with overlap
     ethr =  1.00E-02,  avg # of iterations =  2.0

     total cpu time spent up to now is        3.1 secs

     total energy              =     -48.58600245 Ry
     estimated scf accuracy    <      17.69838866 Ry

     iteration #  2     ecut=    50.00 Ry     beta= 0.20
     Davidson diagonalization with overlap
     ethr =  1.00E-02,  avg # of iterations =  1.0

     total cpu time spent up to now is        4.5 secs

     total energy              =     -48.58957774 Ry
     estimated scf accuracy    <      11.34070123 Ry

     iteration #  3     ecut=    50.00 Ry     beta= 0.20
     Davidson diagonalization with overlap
     ethr =  1.00E-02,  avg # of iterations =  1.0

     total cpu time spent up to now is        6.0 secs

     total energy              =     -48.59185470 Ry
     estimated scf accuracy    <       0.00625579 Ry

     iteration #  4     ecut=    50.00 Ry     beta= 0.20
     Davidson diagonalization with overlap
     ethr =  7.82E-05,  avg # of iterations =  1.0

     total cpu time spent up to now is        7.4 secs

     total energy              =     -48.59199799 Ry
     estimated scf accuracy    <       0.00866021 Ry

     iteration #  5     ecut=    50.00 Ry     beta= 0.20
     Davidson diagonalization with overlap
     ethr =  7.82E-05,  avg # of iterations =  1.0

     total cpu time spent up to now is        8.8 secs

     total energy              =     -48.59519779 Ry
     estimated scf accuracy    <       0.00795404 Ry

     iteration #  6     ecut=    50.00 Ry     beta= 0.20
     Davidson diagonalization with overlap
     ethr =  7.82E-05,  avg # of iterations =  2.0

     total cpu time spent up to now is       10.8 secs

     total energy              =     -48.59335899 Ry
     estimated scf accuracy    <       0.20704018 Ry

     iteration #  7     ecut=    50.00 Ry     beta= 0.20
     Davidson diagonalization with overlap
     ethr =  7.82E-05,  avg # of iterations =  1.9

     total cpu time spent up to now is       12.1 secs

     total energy              =     -48.59189796 Ry
     estimated scf accuracy    <       0.07654034 Ry

     iteration #  8     ecut=    50.00 Ry     beta= 0.20
     Davidson diagonalization with overlap
     ethr =  7.82E-05,  avg # of iterations =  2.0

     total cpu time spent up to now is       13.6 secs

     End of self-consistent calculation

          k = 0.0000 0.0000 0.0000 (   645 PWs)   bands (ev):

   -21.9643   0.0992   0.0992   0.0992

          k =-0.1000 0.1000-0.1000 (   646 PWs)   bands (ev):

   -21.9176  -0.2439   0.0870   0.0870

          k =-0.2000 0.2000-0.2000 (   646 PWs)   bands (ev):

   -21.7927  -0.9914   0.0259   0.0259

          k =-0.3000 0.3000-0.3000 (   640 PWs)   bands (ev):

   -21.6323  -1.7406  -0.0445  -0.0445

          k =-0.4000 0.4000-0.4000 (   634 PWs)   bands (ev):

   -21.4981  -2.3862  -0.0321  -0.0321

          k = 0.5000-0.5000 0.5000 (   652 PWs)   bands (ev):

   -21.4472  -2.6967  -0.1199  -0.1199

          k = 0.0000 0.2000 0.0000 (   645 PWs)   bands (ev):

   -21.9012  -0.1725  -0.0063  -0.0063

          k =-0.1000 0.3000-0.1000 (   649 PWs)   bands (ev):

   -21.8012  -0.7911  -0.1410  -0.0412

          k =-0.2000 0.4000-0.2000 (   640 PWs)   bands (ev):

   -21.6500  -1.5158  -0.1896  -0.1212

          k =-0.3000 0.5000-0.3000 (   645 PWs)   bands (ev):

   -21.5053  -2.2199  -0.2657  -0.2297

          k = 0.6000-0.4000 0.6000 (   649 PWs)   bands (ev):

   -21.4246  -2.5994  -0.4012  -0.1826

          k = 0.5000-0.3000 0.5000 (   647 PWs)   bands (ev):

   -21.4425  -2.5063  -0.4481  -0.1053

          k = 0.4000-0.2000 0.4000 (   641 PWs)   bands (ev):

   -21.5513  -1.9702  -0.4262  -0.0033

          k = 0.3000-0.1000 0.3000 (   643 PWs)   bands (ev):

   -21.7055  -1.2432  -0.3346   0.0721

          k = 0.2000 0.0000 0.2000 (   650 PWs)   bands (ev):

   -21.8444  -0.6237  -0.1536   0.1149

          k = 0.0000 0.4000 0.0000 (   649 PWs)   bands (ev):

   -21.7282  -0.9375  -0.3098  -0.3098

          k =-0.1000 0.5000-0.1000 (   650 PWs)   bands (ev):

   -21.5985  -1.5142  -0.4958  -0.4508

          k =-0.2000 0.6000-0.2000 (   655 PWs)   bands (ev):

   -21.4595  -2.1269  -0.7380  -0.5065

          k = 0.7000-0.3000 0.7000 (   653 PWs)   bands (ev):

   -21.3653  -2.4720  -0.9793  -0.4206

          k = 0.6000-0.2000 0.6000 (   657 PWs)   bands (ev):

   -21.3565  -2.4565  -1.1834  -0.3103

          k = 0.5000-0.1000 0.5000 (   649 PWs)   bands (ev):

   -21.4355  -2.0852  -1.1491  -0.1291

          k = 0.4000 0.0000 0.4000 (   642 PWs)   bands (ev):

   -21.5696  -1.5768  -0.8838   0.0351

          k = 0.0000 0.6000 0.0000 (   644 PWs)   bands (ev):

   -21.4939  -1.9264  -0.6055  -0.6055

          k =-0.1000 0.7000-0.1000 (   648 PWs)   bands (ev):

   -21.3758  -2.3876  -0.8588  -0.6967

          k = 0.8000-0.2000 0.8000 (   658 PWs)   bands (ev):

   -21.2903  -2.6194  -1.2622  -0.7004

          k = 0.7000-0.1000 0.7000 (   655 PWs)   bands (ev):

   -21.2714  -2.4299  -1.6549  -0.5473

          k = 0.6000-0.0000 0.6000 (   666 PWs)   bands (ev):

   -21.3289  -2.0231  -1.9375  -0.3951

          k = 0.0000 0.8000 0.0000 (   660 PWs)   bands (ev):

   -21.2878  -2.8516  -0.9036  -0.9036

          k = 0.9000-0.1000 0.9000 (   658 PWs)   bands (ev):

   -21.2278  -2.9856  -1.1140  -0.9107

          k = 0.8000 0.0000 0.8000 (   648 PWs)   bands (ev):

   -21.2210  -2.7737  -1.3813  -0.7675

          k = 0.0000-1.0000 0.0000 (   636 PWs)   bands (ev):

   -21.2019  -3.0810  -0.9070  -0.9070

          k =-0.2000 0.4000 0.0000 (   643 PWs)   bands (ev):

   -21.6859  -1.1859  -0.4625  -0.0615

          k =-0.3000 0.5000-0.1000 (   644 PWs)   bands (ev):

   -21.5393  -1.7804  -0.7327  -0.1549

          k = 0.6000-0.4000 0.8000 (   651 PWs)   bands (ev):

   -21.4175  -2.3362  -0.8689  -0.2617

          k = 0.5000-0.3000 0.7000 (   658 PWs)   bands (ev):

   -21.3703  -2.5487  -0.9518  -0.3153

          k =-0.2000 0.6000 0.0000 (   648 PWs)   bands (ev):

   -21.4731  -1.9469  -0.8387  -0.4937

          k = 0.7000-0.3000 0.9000 (   654 PWs)   bands (ev):

   -21.3578  -2.3299  -1.1971  -0.5474

          k = 0.6000-0.2000 0.8000 (   657 PWs)   bands (ev):

   -21.2983  -2.4088  -1.5029  -0.5520

          k = 0.5000-0.1000 0.7000 (   658 PWs)   bands (ev):

   -21.3200  -2.2567  -1.6266  -0.4379

          k = 0.4000 0.0000 0.6000 (   651 PWs)   bands (ev):

   -21.4131  -2.0225  -1.3323  -0.2646

          k = 0.8000-0.2000 1.0000 (   658 PWs)   bands (ev):

   -21.2852  -2.6965  -1.1237  -0.8319

          k = 0.7000-0.1000 0.9000 (   657 PWs)   bands (ev):

   -21.2363  -2.6623  -1.4995  -0.7873

          k = 0.6000 0.0000 0.8000 (   659 PWs)   bands (ev):

   -21.2500  -2.3292  -1.8858  -0.6470

          k =-0.2000-1.0000 0.0000 (   658 PWs)   bands (ev):

   -21.2090  -2.9601  -1.2283  -0.9509

          k = 0.6000-0.2000 1.0000 (   656 PWs)   bands (ev):

   -21.2739  -2.3443  -1.6785  -0.6609

          k = 0.5000-0.1000 0.9000 (   656 PWs)   bands (ev):

   -21.2414  -2.2215  -1.9740  -0.7061

          k =-0.4000-1.0000 0.0000 (   662 PWs)   bands (ev):

   -21.2180  -2.4862  -1.8100  -0.8564

     highest occupied level (ev):     0.1149

!    total energy              =     -48.59280195 Ry
     estimated scf accuracy    <       0.00001004 Ry

     The total energy is the sum of the following terms:
     one-electron contribution =     -22.75794772 Ry
     hartree contribution      =      16.27431607 Ry
     xc contribution           =      -9.87075873 Ry
     ewald contribution        =     -32.23841158 Ry

     convergence has been achieved in   8 iterations
     Writing meta-gga kinetic term

     Writing all to output data dir ./input_pw/LiF/5/pwscf.save/
     Writing meta-gga kinetic term
 
     init_run     :      0.63s CPU      1.23s WALL (       1 calls)
     electrons    :      6.41s CPU     12.24s WALL (       1 calls)

     Called by init_run:
     wfcinit      :      0.55s CPU      0.98s WALL (       1 calls)
     potinit      :      0.01s CPU      0.02s WALL (       1 calls)
     hinit0       :      0.06s CPU      0.23s WALL (       1 calls)

     Called by electrons:
     c_bands      :      5.15s CPU      9.84s WALL (       8 calls)
     sum_band     :      1.13s CPU      2.11s WALL (       8 calls)
     v_of_rho     :      0.08s CPU      0.16s WALL (       9 calls)
     mix_rho      :      0.06s CPU      0.13s WALL (       8 calls)

     Called by c_bands:
     init_us_2    :      0.03s CPU      0.06s WALL (     799 calls)
     init_us_2:cp :      0.03s CPU      0.06s WALL (     799 calls)
     cegterg      :      5.12s CPU      9.77s WALL (     376 calls)

     Called by *egterg:
     cdiaghg      :      0.04s CPU      0.07s WALL (     936 calls)
     h_psi        :      5.52s CPU     10.49s WALL (     983 calls)
     g_psi        :      0.00s CPU      0.00s WALL (     560 calls)

     Called by h_psi:
     h_psi:calbec :      0.01s CPU      0.03s WALL (     983 calls)
     vloc_psi     :      1.36s CPU      2.62s WALL (     983 calls)
     add_vuspsi   :      0.02s CPU      0.04s WALL (     983 calls)
     h_psi_meta   :      4.12s CPU      7.76s WALL (     983 calls)

     General routines
     calbec       :      0.01s CPU      0.01s WALL (     983 calls)
     fft          :      0.02s CPU      0.05s WALL (     105 calls)
     ffts         :      0.03s CPU      0.08s WALL (     199 calls)
     fftw         :      5.91s CPU     11.15s WALL (   37312 calls)
     interpolate  :      0.00s CPU      0.00s WALL (       9 calls)
 
     Parallel routines
 
     PWSCF        :      7.09s CPU     13.58s WALL

 
   This run was terminated on:  14:23:59   7Jul2023            

=------------------------------------------------------------------------------=
   JOB DONE.
=------------------------------------------------------------------------------=
