
     Program PWSCF v.7.0 starts on 10Apr2023 at  9:43:45 

     This program is part of the open-source Quantum ESPRESSO suite
     for quantum simulation of materials; please cite
         "P. Giannozzi et al., J. Phys.:Condens. Matter 21 395502 (2009);
         "P. Giannozzi et al., J. Phys.:Condens. Matter 29 465901 (2017);
         "P. Giannozzi et al., J. Chem. Phys. 152 154105 (2020);
          URL http://www.quantum-espresso.org", 
     in publications or presentations arising from this work. More details at
     http://www.quantum-espresso.org/quote

     Parallel version (MPI), running on     1 processors

     MPI processes distributed on     1 nodes
     19078 MiB available memory on the printing compute node when the environment starts
 
     Waiting for input...
     Reading input from standard input
Warning: card &CELL ignored
Warning: card / ignored

     Current dimensions of program PWSCF are:
     Max number of different atomic species (ntypx) = 10
     Max number of k-points (npk) =  40000
     Max angular momentum in pseudopotentials (lmaxx) =  4

     WARNING: the MGGA functional with ID    5 has been 
     read together with other dft terms, but it should 
     stand alone in order to work properly. The other 
     terms will be ignored.

     WARNING: the MGGA functional with ID    5 has been 
     read together with other dft terms, but it should 
     stand alone in order to work properly. The other 
     terms will be ignored.

     Subspace diagonalization in iterative solution of the eigenvalue problem:
     a serial algorithm will be used

 
     G-vector sticks info
     --------------------
     sticks:   dense  smooth     PW     G-vecs:    dense   smooth      PW
     Sum         313     313    109                 3839     3839     749
 
     Using Slab Decomposition
 


     bravais-lattice index     =            2
     lattice parameter (alat)  =       6.8786  a.u.
     unit-cell volume          =      81.3656 (a.u.)^3
     number of atoms/cell      =            2
     number of atomic types    =            2
     number of electrons       =         8.00
     number of Kohn-Sham states=            4
     kinetic-energy cutoff     =      50.0000  Ry
     charge density cutoff     =     200.0000  Ry
     scf convergence threshold =      1.0E-06
     mixing beta               =       0.0100
     number of iterations used =            8  local-TF  mixing
     Exchange-correlation= SLA  PW   SCAN SCAN
                           (   0   0   0   0   0 263 267)

     celldm(1)=   6.878603  celldm(2)=   0.000000  celldm(3)=   0.000000
     celldm(4)=   0.000000  celldm(5)=   0.000000  celldm(6)=   0.000000

     crystal axes: (cart. coord. in units of alat)
               a(1) = (  -0.500000   0.000000   0.500000 )  
               a(2) = (   0.000000   0.500000   0.500000 )  
               a(3) = (  -0.500000   0.500000   0.000000 )  

     reciprocal axes: (cart. coord. in units 2 pi/alat)
               b(1) = ( -1.000000 -1.000000  1.000000 )  
               b(2) = (  1.000000  1.000000  1.000000 )  
               b(3) = ( -1.000000  1.000000 -1.000000 )  


     PseudoPot. # 1 for Li read from file:
     ~/Documents/TA/PWDFT.jl/pseudopotentials/scan_upf/Li.SCAN.UPF2
     MD5 check sum: Not computed, couldn't open file
     Pseudo is Norm-conserving, Zval =  1.0
     Generated by new atomic code, or converted to UPF format
     Using radial grid of 1321 points,  1 beta functions with: 
                l(1) =   0

     PseudoPot. # 2 for F  read from file:
     ~/Documents/TA/PWDFT.jl/pseudopotentials/scan_upf/F.SCAN.UPF2
     MD5 check sum: Not computed, couldn't open file
     Pseudo is Norm-conserving, Zval =  7.0
     Generated by new atomic code, or converted to UPF format
     Using radial grid of 1431 points,  1 beta functions with: 
                l(1) =   0

     atomic species   valence    mass     pseudopotential
        Li             1.00     6.94100     Li( 1.00)
        F              7.00    18.99800     F ( 1.00)

     48 Sym. Ops., with inversion, found



   Cartesian axes

     site n.     atom                  positions (alat units)
         1           Li  tau(   1) = (   0.0000000   0.0000000   0.0000000  )
         2           F   tau(   2) = (   0.5000000   0.5000000   0.5000000  )

     number of k points=    47
                       cart. coord. in units 2pi/alat
        k(    1) = (   0.0000000   0.0000000   0.0000000), wk =   0.0020000
        k(    2) = (  -0.1000000   0.1000000  -0.1000000), wk =   0.0160000
        k(    3) = (  -0.2000000   0.2000000  -0.2000000), wk =   0.0160000
        k(    4) = (  -0.3000000   0.3000000  -0.3000000), wk =   0.0160000
        k(    5) = (  -0.4000000   0.4000000  -0.4000000), wk =   0.0160000
        k(    6) = (   0.5000000  -0.5000000   0.5000000), wk =   0.0080000
        k(    7) = (   0.0000000   0.2000000   0.0000000), wk =   0.0120000
        k(    8) = (  -0.1000000   0.3000000  -0.1000000), wk =   0.0480000
        k(    9) = (  -0.2000000   0.4000000  -0.2000000), wk =   0.0480000
        k(   10) = (  -0.3000000   0.5000000  -0.3000000), wk =   0.0480000
        k(   11) = (   0.6000000  -0.4000000   0.6000000), wk =   0.0480000
        k(   12) = (   0.5000000  -0.3000000   0.5000000), wk =   0.0480000
        k(   13) = (   0.4000000  -0.2000000   0.4000000), wk =   0.0480000
        k(   14) = (   0.3000000  -0.1000000   0.3000000), wk =   0.0480000
        k(   15) = (   0.2000000   0.0000000   0.2000000), wk =   0.0240000
        k(   16) = (   0.0000000   0.4000000   0.0000000), wk =   0.0120000
        k(   17) = (  -0.1000000   0.5000000  -0.1000000), wk =   0.0480000
        k(   18) = (  -0.2000000   0.6000000  -0.2000000), wk =   0.0480000
        k(   19) = (   0.7000000  -0.3000000   0.7000000), wk =   0.0480000
        k(   20) = (   0.6000000  -0.2000000   0.6000000), wk =   0.0480000
        k(   21) = (   0.5000000  -0.1000000   0.5000000), wk =   0.0480000
        k(   22) = (   0.4000000   0.0000000   0.4000000), wk =   0.0240000
        k(   23) = (   0.0000000   0.6000000   0.0000000), wk =   0.0120000
        k(   24) = (  -0.1000000   0.7000000  -0.1000000), wk =   0.0480000
        k(   25) = (   0.8000000  -0.2000000   0.8000000), wk =   0.0480000
        k(   26) = (   0.7000000  -0.1000000   0.7000000), wk =   0.0480000
        k(   27) = (   0.6000000  -0.0000000   0.6000000), wk =   0.0240000
        k(   28) = (   0.0000000   0.8000000   0.0000000), wk =   0.0120000
        k(   29) = (   0.9000000  -0.1000000   0.9000000), wk =   0.0480000
        k(   30) = (   0.8000000   0.0000000   0.8000000), wk =   0.0240000
        k(   31) = (   0.0000000  -1.0000000   0.0000000), wk =   0.0060000
        k(   32) = (  -0.2000000   0.4000000   0.0000000), wk =   0.0480000
        k(   33) = (  -0.3000000   0.5000000  -0.1000000), wk =   0.0960000
        k(   34) = (   0.6000000  -0.4000000   0.8000000), wk =   0.0960000
        k(   35) = (   0.5000000  -0.3000000   0.7000000), wk =   0.0480000
        k(   36) = (  -0.2000000   0.6000000   0.0000000), wk =   0.0480000
        k(   37) = (   0.7000000  -0.3000000   0.9000000), wk =   0.0960000
        k(   38) = (   0.6000000  -0.2000000   0.8000000), wk =   0.0960000
        k(   39) = (   0.5000000  -0.1000000   0.7000000), wk =   0.0960000
        k(   40) = (   0.4000000   0.0000000   0.6000000), wk =   0.0480000
        k(   41) = (   0.8000000  -0.2000000   1.0000000), wk =   0.0480000
        k(   42) = (   0.7000000  -0.1000000   0.9000000), wk =   0.0960000
        k(   43) = (   0.6000000   0.0000000   0.8000000), wk =   0.0480000
        k(   44) = (  -0.2000000  -1.0000000   0.0000000), wk =   0.0240000
        k(   45) = (   0.6000000  -0.2000000   1.0000000), wk =   0.0480000
        k(   46) = (   0.5000000  -0.1000000   0.9000000), wk =   0.0480000
        k(   47) = (  -0.4000000  -1.0000000   0.0000000), wk =   0.0240000

     Dense  grid:     3839 G-vectors     FFT dimensions: (  24,  24,  24)

     Estimated max dynamical RAM per process >       7.51 MB

     WARNING: libxc functional with ID  263 depends
      on external parameters: check the user_guide of
      QE if you need to modify them or to check their
      default values.

     Initial potential from superposition of free atoms

     starting charge       7.9953, renormalised to       8.0000
     Starting wfcs are    8 randomized atomic wfcs

     total cpu time spent up to now is        1.4 secs

     Self-consistent Calculation

     iteration #  1     ecut=    50.00 Ry     beta= 0.01
     Davidson diagonalization with overlap
     ethr =  1.00E-02,  avg # of iterations =  2.0

     total cpu time spent up to now is        3.0 secs

     total energy              =     -48.43342398 Ry
     estimated scf accuracy    <      17.98143504 Ry

     iteration #  2     ecut=    50.00 Ry     beta= 0.01
     Davidson diagonalization with overlap
     ethr =  1.00E-02,  avg # of iterations =  1.0

     total cpu time spent up to now is        4.6 secs

     total energy              =     -48.49486820 Ry
     estimated scf accuracy    <      17.49473538 Ry

     iteration #  3     ecut=    50.00 Ry     beta= 0.01
     Davidson diagonalization with overlap
     ethr =  1.00E-02,  avg # of iterations =  1.0

     total cpu time spent up to now is        5.9 secs

     total energy              =     -48.50023892 Ry
     estimated scf accuracy    <       3.04794739 Ry

     iteration #  4     ecut=    50.00 Ry     beta= 0.01
     Davidson diagonalization with overlap
     ethr =  1.00E-02,  avg # of iterations =  1.0

     total cpu time spent up to now is        7.5 secs

     total energy              =     -48.50066847 Ry
     estimated scf accuracy    <       0.00547876 Ry

     iteration #  5     ecut=    50.00 Ry     beta= 0.01
     Davidson diagonalization with overlap
     ethr =  6.85E-05,  avg # of iterations =  1.0

     total cpu time spent up to now is        9.0 secs

     total energy              =     -48.50067909 Ry
     estimated scf accuracy    <       0.00512943 Ry

     iteration #  6     ecut=    50.00 Ry     beta= 0.01
     Davidson diagonalization with overlap
     ethr =  6.41E-05,  avg # of iterations =  1.0

     total cpu time spent up to now is       10.4 secs

     total energy              =     -48.50068377 Ry
     estimated scf accuracy    <       0.00505464 Ry

     iteration #  7     ecut=    50.00 Ry     beta= 0.01
     Davidson diagonalization with overlap
     ethr =  6.32E-05,  avg # of iterations =  1.0

     total cpu time spent up to now is       11.9 secs

     total energy              =     -48.49935271 Ry
     estimated scf accuracy    <       0.00508706 Ry

     iteration #  8     ecut=    50.00 Ry     beta= 0.01
     Davidson diagonalization with overlap
     ethr =  6.32E-05,  avg # of iterations =  2.0

     total cpu time spent up to now is       13.8 secs

     total energy              =     -48.50173327 Ry
     estimated scf accuracy    <       0.13850178 Ry

     iteration #  9     ecut=    50.00 Ry     beta= 0.01
     Davidson diagonalization with overlap
     ethr =  6.32E-05,  avg # of iterations =  1.0

     total cpu time spent up to now is       15.1 secs

     total energy              =     -48.50251734 Ry
     estimated scf accuracy    <       0.11376714 Ry

     iteration # 10     ecut=    50.00 Ry     beta= 0.01
     Davidson diagonalization with overlap
     ethr =  6.32E-05,  avg # of iterations =  1.0

     total cpu time spent up to now is       16.4 secs

     total energy              =     -48.50122231 Ry
     estimated scf accuracy    <       0.09906971 Ry

     iteration # 11     ecut=    50.00 Ry     beta= 0.01
     Davidson diagonalization with overlap
     ethr =  6.32E-05,  avg # of iterations =  1.0

     total cpu time spent up to now is       17.7 secs

     total energy              =     -48.50142826 Ry
     estimated scf accuracy    <       0.04201099 Ry

     iteration # 12     ecut=    50.00 Ry     beta= 0.01
     Davidson diagonalization with overlap
     ethr =  6.32E-05,  avg # of iterations =  1.0

     total cpu time spent up to now is       18.9 secs

     total energy              =     -48.50154574 Ry
     estimated scf accuracy    <       0.04415679 Ry

     iteration # 13     ecut=    50.00 Ry     beta= 0.01
     Davidson diagonalization with overlap
     ethr =  6.32E-05,  avg # of iterations =  1.0

     total cpu time spent up to now is       20.1 secs

     total energy              =     -48.50218428 Ry
     estimated scf accuracy    <       0.07112505 Ry

     iteration # 14     ecut=    50.00 Ry     beta= 0.01
     Davidson diagonalization with overlap
     ethr =  6.32E-05,  avg # of iterations =  1.0

     total cpu time spent up to now is       21.1 secs

     total energy              =     -48.49940700 Ry
     estimated scf accuracy    <       0.09603471 Ry

     iteration # 15     ecut=    50.00 Ry     beta= 0.01
     Davidson diagonalization with overlap
     ethr =  6.32E-05,  avg # of iterations =  2.0

     total cpu time spent up to now is       22.8 secs

     total energy              =     -48.50089582 Ry
     estimated scf accuracy    <       0.00271955 Ry

     iteration # 16     ecut=    50.00 Ry     beta= 0.01
     Davidson diagonalization with overlap
     ethr =  3.40E-05,  avg # of iterations =  1.0

     total cpu time spent up to now is       23.5 secs

     total energy              =     -48.50108952 Ry
     estimated scf accuracy    <       0.00313486 Ry

     iteration # 17     ecut=    50.00 Ry     beta= 0.01
     Davidson diagonalization with overlap
     ethr =  3.40E-05,  avg # of iterations =  1.0

     total cpu time spent up to now is       24.3 secs

     total energy              =     -48.50079969 Ry
     estimated scf accuracy    <       0.01136579 Ry

     iteration # 18     ecut=    50.00 Ry     beta= 0.01
     Davidson diagonalization with overlap
     ethr =  3.40E-05,  avg # of iterations =  1.0

     total cpu time spent up to now is       25.0 secs

     total energy              =     -48.50081108 Ry
     estimated scf accuracy    <       0.00112037 Ry

     iteration # 19     ecut=    50.00 Ry     beta= 0.01
     Davidson diagonalization with overlap
     ethr =  1.40E-05,  avg # of iterations =  1.0

     total cpu time spent up to now is       26.1 secs

     total energy              =     -48.50085010 Ry
     estimated scf accuracy    <       0.00025676 Ry

     iteration # 20     ecut=    50.00 Ry     beta= 0.01
     Davidson diagonalization with overlap
     ethr =  3.21E-06,  avg # of iterations =  1.0

     total cpu time spent up to now is       26.9 secs

     total energy              =     -48.50085462 Ry
     estimated scf accuracy    <       0.00006239 Ry

     iteration # 21     ecut=    50.00 Ry     beta= 0.01
     Davidson diagonalization with overlap
     ethr =  7.80E-07,  avg # of iterations =  1.0

     total cpu time spent up to now is       27.7 secs

     total energy              =     -48.50084476 Ry
     estimated scf accuracy    <       0.00062451 Ry

     iteration # 22     ecut=    50.00 Ry     beta= 0.01
     Davidson diagonalization with overlap
     ethr =  7.80E-07,  avg # of iterations =  1.8

     total cpu time spent up to now is       28.6 secs

     total energy              =     -48.50085120 Ry
     estimated scf accuracy    <       0.00000392 Ry

     iteration # 23     ecut=    50.00 Ry     beta= 0.01
     Davidson diagonalization with overlap
     ethr =  4.90E-08,  avg # of iterations =  2.0

     total cpu time spent up to now is       29.4 secs

     total energy              =     -48.50085013 Ry
     estimated scf accuracy    <       0.00011282 Ry

     iteration # 24     ecut=    50.00 Ry     beta= 0.01
     Davidson diagonalization with overlap
     ethr =  4.90E-08,  avg # of iterations =  2.0

     total cpu time spent up to now is       30.3 secs

     total energy              =     -48.50085077 Ry
     estimated scf accuracy    <       0.00000446 Ry

     iteration # 25     ecut=    50.00 Ry     beta= 0.01
     Davidson diagonalization with overlap
     ethr =  4.90E-08,  avg # of iterations =  2.0

     total cpu time spent up to now is       30.7 secs

     total energy              =     -48.50085100 Ry
     estimated scf accuracy    <       0.00016094 Ry

     iteration # 26     ecut=    50.00 Ry     beta= 0.01
     Davidson diagonalization with overlap
     ethr =  4.90E-08,  avg # of iterations =  2.0

     total cpu time spent up to now is       31.2 secs

     total energy              =     -48.50085081 Ry
     estimated scf accuracy    <       0.00001434 Ry

     iteration # 27     ecut=    50.00 Ry     beta= 0.01
     Davidson diagonalization with overlap
     ethr =  4.90E-08,  avg # of iterations =  1.2

     total cpu time spent up to now is       31.5 secs

     End of self-consistent calculation

          k = 0.0000 0.0000 0.0000 (   531 PWs)   bands (ev):

   -20.4190   2.4398   2.4398   2.4398

          k =-0.1000 0.1000-0.1000 (   507 PWs)   bands (ev):

   -20.3378   2.2651   2.5289   2.5289

          k =-0.2000 0.2000-0.2000 (   489 PWs)   bands (ev):

   -20.1228   1.3684   2.5451   2.5451

          k =-0.3000 0.3000-0.3000 (   492 PWs)   bands (ev):

   -19.8442   0.1691   2.4296   2.4296

          k =-0.4000 0.4000-0.4000 (   483 PWs)   bands (ev):

   -19.6034  -0.6079   2.3635   2.3635

          k = 0.5000-0.5000 0.5000 (   476 PWs)   bands (ev):

   -19.5074  -0.8950   2.3686   2.3686

          k = 0.0000 0.2000 0.0000 (   503 PWs)   bands (ev):

   -20.3097   2.3469   2.4328   2.4328

          k =-0.1000 0.3000-0.1000 (   497 PWs)   bands (ev):

   -20.1361   1.6311   2.2865   2.3741

          k =-0.2000 0.4000-0.2000 (   487 PWs)   bands (ev):

   -19.8705   0.5623   2.2175   2.3002

          k =-0.3000 0.5000-0.3000 (   488 PWs)   bands (ev):

   -19.6094  -0.4016   2.0690   2.1680

          k = 0.6000-0.4000 0.6000 (   481 PWs)   bands (ev):

   -19.4599  -0.8545   1.9378   2.2209

          k = 0.5000-0.3000 0.5000 (   486 PWs)   bands (ev):

   -19.4944  -0.7444   1.8112   2.3008

          k = 0.4000-0.2000 0.4000 (   491 PWs)   bands (ev):

   -19.6948  -0.1125   1.8597   2.4492

          k = 0.3000-0.1000 0.3000 (   493 PWs)   bands (ev):

   -19.9700   0.9549   2.0109   2.5310

          k = 0.2000 0.0000 0.2000 (   501 PWs)   bands (ev):

   -20.2118   1.8746   2.2204   2.5877

          k = 0.0000 0.4000 0.0000 (   488 PWs)   bands (ev):

   -20.0031   1.4037   2.0993   2.0993

          k =-0.1000 0.5000-0.1000 (   487 PWs)   bands (ev):

   -19.7671   0.5263   1.8755   1.8834

          k =-0.2000 0.6000-0.2000 (   496 PWs)   bands (ev):

   -19.5099  -0.3700   1.4345   1.7604

          k = 0.7000-0.3000 0.7000 (   483 PWs)   bands (ev):

   -19.3318  -0.7867   1.0965   1.9032

          k = 0.6000-0.2000 0.6000 (   477 PWs)   bands (ev):

   -19.3163  -0.7076   0.8874   2.1017

          k = 0.5000-0.1000 0.5000 (   490 PWs)   bands (ev):

   -19.4719  -0.2527   0.8380   2.2673

          k = 0.4000 0.0000 0.4000 (   489 PWs)   bands (ev):

   -19.7236   0.4696   1.2695   2.4475

          k = 0.0000 0.6000 0.0000 (   488 PWs)   bands (ev):

   -19.5655  -0.1542   1.6185   1.6185

          k =-0.1000 0.7000-0.1000 (   479 PWs)   bands (ev):

   -19.3340  -0.7732   1.3147   1.4720

          k = 0.8000-0.2000 0.8000 (   484 PWs)   bands (ev):

   -19.1667  -1.1301   0.7385   1.4928

          k = 0.7000-0.1000 0.7000 (   485 PWs)   bands (ev):

   -19.1355  -0.9542   0.2190   1.7193

          k = 0.6000-0.0000 0.6000 (   492 PWs)   bands (ev):

   -19.2561  -0.2834  -0.0959   1.9266

          k = 0.0000 0.8000 0.0000 (   488 PWs)   bands (ev):

   -19.1493  -1.4924   1.2090   1.2090

          k = 0.9000-0.1000 0.9000 (   476 PWs)   bands (ev):

   -19.0258  -1.7277   0.9667   1.2645

          k = 0.8000 0.0000 0.8000 (   480 PWs)   bands (ev):

   -19.0212  -1.5124   0.4963   1.4242

          k = 0.0000-1.0000 0.0000 (   468 PWs)   bands (ev):

   -18.9699  -1.9588   1.1657   1.1657

          k =-0.2000 0.4000 0.0000 (   490 PWs)   bands (ev):

   -19.9314   1.0466   1.8400   2.3465

          k =-0.3000 0.5000-0.1000 (   485 PWs)   bands (ev):

   -19.6649   0.1567   1.4857   2.2810

          k = 0.6000-0.4000 0.8000 (   487 PWs)   bands (ev):

   -19.4375  -0.5767   1.2361   2.1151

          k = 0.5000-0.3000 0.7000 (   480 PWs)   bands (ev):

   -19.3466  -0.8053   1.2110   2.0536

          k =-0.2000 0.6000 0.0000 (   485 PWs)   bands (ev):

   -19.5304  -0.1489   1.3120   1.8504

          k = 0.7000-0.3000 0.9000 (   486 PWs)   bands (ev):

   -19.3079  -0.6502   0.7865   1.6963

          k = 0.6000-0.2000 0.8000 (   484 PWs)   bands (ev):

   -19.1924  -0.8078   0.3763   1.7405

          k = 0.5000-0.1000 0.7000 (   483 PWs)   bands (ev):

   -19.2380  -0.5465   0.2198   1.9195

          k = 0.4000 0.0000 0.6000 (   489 PWs)   bands (ev):

   -19.4234  -0.1479   0.5514   2.0783

          k = 0.8000-0.2000 1.0000 (   477 PWs)   bands (ev):

   -19.1497  -1.2445   0.9084   1.4278

          k = 0.7000-0.1000 0.9000 (   482 PWs)   bands (ev):

   -19.0540  -1.2911   0.3648   1.4412

          k = 0.6000 0.0000 0.8000 (   485 PWs)   bands (ev):

   -19.0890  -0.8690  -0.0822   1.6341

          k =-0.2000-1.0000 0.0000 (   480 PWs)   bands (ev):

   -18.9887  -1.7346   0.7401   1.2232

          k = 0.6000-0.2000 1.0000 (   487 PWs)   bands (ev):

   -19.1381  -0.7750   0.0464   1.6041

          k = 0.5000-0.1000 0.9000 (   486 PWs)   bands (ev):

   -19.0712  -0.6512  -0.3945   1.5844

          k =-0.4000-1.0000 0.0000 (   484 PWs)   bands (ev):

   -19.0172  -1.0547  -0.1367   1.4488

     highest occupied level (ev):     2.5877

!    total energy              =     -48.50085128 Ry
     estimated scf accuracy    <       0.00000040 Ry

     The total energy is the sum of the following terms:
     one-electron contribution =     -17.09086372 Ry
     hartree contribution      =      14.13729046 Ry
     xc contribution           =     -10.00236270 Ry
     ewald contribution        =     -35.54491532 Ry

     convergence has been achieved in  27 iterations
     Writing meta-gga kinetic term

     Writing all to output data dir ./input_pw/LiF/5/pwscf.save/
     Writing meta-gga kinetic term
 
     init_run     :      0.57s CPU      1.34s WALL (       1 calls)
     electrons    :     17.63s CPU     30.14s WALL (       1 calls)

     Called by init_run:
     wfcinit      :      0.49s CPU      1.23s WALL (       1 calls)
     potinit      :      0.01s CPU      0.01s WALL (       1 calls)
     hinit0       :      0.06s CPU      0.09s WALL (       1 calls)

     Called by electrons:
     c_bands      :     14.00s CPU     23.82s WALL (      27 calls)
     sum_band     :      3.24s CPU      5.65s WALL (      27 calls)
     v_of_rho     :      0.20s CPU      0.34s WALL (      28 calls)
     mix_rho      :      0.19s CPU      0.31s WALL (      27 calls)

     Called by c_bands:
     init_us_2    :      0.07s CPU      0.12s WALL (    2585 calls)
     init_us_2:cp :      0.06s CPU      0.12s WALL (    2585 calls)
     cegterg      :     13.92s CPU     23.69s WALL (    1269 calls)

     Called by *egterg:
     cdiaghg      :      0.10s CPU      0.15s WALL (    2916 calls)
     h_psi        :     14.09s CPU     24.44s WALL (    2963 calls)
     g_psi        :      0.01s CPU      0.01s WALL (    1647 calls)

     Called by h_psi:
     h_psi:calbec :      0.03s CPU      0.08s WALL (    2963 calls)
     vloc_psi     :      3.48s CPU      6.29s WALL (    2963 calls)
     add_vuspsi   :      0.04s CPU      0.04s WALL (    2963 calls)
     h_psi_meta   :     10.51s CPU     17.97s WALL (    2963 calls)

     General routines
     calbec       :      0.02s CPU      0.07s WALL (    2963 calls)
     fft          :      0.05s CPU      0.09s WALL (     333 calls)
     ffts         :      0.10s CPU      0.24s WALL (     720 calls)
     fftw         :     15.50s CPU     26.94s WALL (  114616 calls)
     interpolate  :      0.00s CPU      0.00s WALL (      28 calls)
 
     Parallel routines
 
     PWSCF        :     18.24s CPU     31.53s WALL

 
   This run was terminated on:   9:44:16  10Apr2023            

=------------------------------------------------------------------------------=
   JOB DONE.
=------------------------------------------------------------------------------=
