
     Program PWSCF v.7.0 starts on 14Mar2023 at 14:31: 8 

     This program is part of the open-source Quantum ESPRESSO suite
     for quantum simulation of materials; please cite
         "P. Giannozzi et al., J. Phys.:Condens. Matter 21 395502 (2009);
         "P. Giannozzi et al., J. Phys.:Condens. Matter 29 465901 (2017);
         "P. Giannozzi et al., J. Chem. Phys. 152 154105 (2020);
          URL http://www.quantum-espresso.org", 
     in publications or presentations arising from this work. More details at
     http://www.quantum-espresso.org/quote

     Parallel version (MPI), running on     1 processors

     MPI processes distributed on     1 nodes
     26552 MiB available memory on the printing compute node when the environment starts
 
     Waiting for input...
     Reading input from standard input
Warning: card &CELL ignored
Warning: card / ignored

     Current dimensions of program PWSCF are:
     Max number of different atomic species (ntypx) = 10
     Max number of k-points (npk) =  40000
     Max angular momentum in pseudopotentials (lmaxx) =  4
     file Cl.SCAN.UPF2: wavefunction(s)  0D renormalized

     WARNING: the MGGA functional with ID    5 has been 
     read together with other dft terms, but it should 
     stand alone in order to work properly. The other 
     terms will be ignored.

     WARNING: the MGGA functional with ID    5 has been 
     read together with other dft terms, but it should 
     stand alone in order to work properly. The other 
     terms will be ignored.

     Subspace diagonalization in iterative solution of the eigenvalue problem:
     a serial algorithm will be used

 
     G-vector sticks info
     --------------------
     sticks:   dense  smooth     PW     G-vecs:    dense   smooth      PW
     Sum         835     835    253                15665    15665    2685
 
     Using Slab Decomposition
 


     bravais-lattice index     =            2
     lattice parameter (alat)  =      10.9730  a.u.
     unit-cell volume          =     330.3058 (a.u.)^3
     number of atoms/cell      =            2
     number of atomic types    =            2
     number of electrons       =         8.00
     number of Kohn-Sham states=            4
     kinetic-energy cutoff     =      50.0000  Ry
     charge density cutoff     =     200.0000  Ry
     scf convergence threshold =      1.0E-06
     mixing beta               =       0.0100
     number of iterations used =            8  local-TF  mixing
     Exchange-correlation= SLA  PW   SCAN SCAN
                           (   0   0   0   0   0 263 267)

     celldm(1)=  10.973000  celldm(2)=   0.000000  celldm(3)=   0.000000
     celldm(4)=   0.000000  celldm(5)=   0.000000  celldm(6)=   0.000000

     crystal axes: (cart. coord. in units of alat)
               a(1) = (  -0.500000   0.000000   0.500000 )  
               a(2) = (   0.000000   0.500000   0.500000 )  
               a(3) = (  -0.500000   0.500000   0.000000 )  

     reciprocal axes: (cart. coord. in units 2 pi/alat)
               b(1) = ( -1.000000 -1.000000  1.000000 )  
               b(2) = (  1.000000  1.000000  1.000000 )  
               b(3) = ( -1.000000  1.000000 -1.000000 )  


     PseudoPot. # 1 for Li read from file:
     ~/Documents/TA/PWDFT.jl/pseudopotentials/scan_upf/Li.SCAN.UPF2
     MD5 check sum: Not computed, couldn't open file
     Pseudo is Norm-conserving, Zval =  1.0
     Generated by new atomic code, or converted to UPF format
     Using radial grid of 1321 points,  1 beta functions with: 
                l(1) =   0

     PseudoPot. # 2 for Cl read from file:
     ~/Documents/TA/PWDFT.jl/pseudopotentials/scan_upf/Cl.SCAN.UPF2
     MD5 check sum: Not computed, couldn't open file
     Pseudo is Norm-conserving, Zval =  7.0
     Generated by new atomic code, or converted to UPF format
     Using radial grid of 1493 points,  2 beta functions with: 
                l(1) =   0
                l(2) =   1

     atomic species   valence    mass     pseudopotential
        Na             1.00     6.94100     Li( 1.00)
        Cl             7.00    35.45300     Cl( 1.00)

     48 Sym. Ops., with inversion, found



   Cartesian axes

     site n.     atom                  positions (alat units)
         1           Na  tau(   1) = (   0.0000000   0.0000000   0.0000000  )
         2           Cl  tau(   2) = (   0.5000000   0.5000000   0.5000000  )

     number of k points=    47
                       cart. coord. in units 2pi/alat
        k(    1) = (   0.0000000   0.0000000   0.0000000), wk =   0.0020000
        k(    2) = (  -0.1000000   0.1000000  -0.1000000), wk =   0.0160000
        k(    3) = (  -0.2000000   0.2000000  -0.2000000), wk =   0.0160000
        k(    4) = (  -0.3000000   0.3000000  -0.3000000), wk =   0.0160000
        k(    5) = (  -0.4000000   0.4000000  -0.4000000), wk =   0.0160000
        k(    6) = (   0.5000000  -0.5000000   0.5000000), wk =   0.0080000
        k(    7) = (   0.0000000   0.2000000   0.0000000), wk =   0.0120000
        k(    8) = (  -0.1000000   0.3000000  -0.1000000), wk =   0.0480000
        k(    9) = (  -0.2000000   0.4000000  -0.2000000), wk =   0.0480000
        k(   10) = (  -0.3000000   0.5000000  -0.3000000), wk =   0.0480000
        k(   11) = (   0.6000000  -0.4000000   0.6000000), wk =   0.0480000
        k(   12) = (   0.5000000  -0.3000000   0.5000000), wk =   0.0480000
        k(   13) = (   0.4000000  -0.2000000   0.4000000), wk =   0.0480000
        k(   14) = (   0.3000000  -0.1000000   0.3000000), wk =   0.0480000
        k(   15) = (   0.2000000   0.0000000   0.2000000), wk =   0.0240000
        k(   16) = (   0.0000000   0.4000000   0.0000000), wk =   0.0120000
        k(   17) = (  -0.1000000   0.5000000  -0.1000000), wk =   0.0480000
        k(   18) = (  -0.2000000   0.6000000  -0.2000000), wk =   0.0480000
        k(   19) = (   0.7000000  -0.3000000   0.7000000), wk =   0.0480000
        k(   20) = (   0.6000000  -0.2000000   0.6000000), wk =   0.0480000
        k(   21) = (   0.5000000  -0.1000000   0.5000000), wk =   0.0480000
        k(   22) = (   0.4000000   0.0000000   0.4000000), wk =   0.0240000
        k(   23) = (   0.0000000   0.6000000   0.0000000), wk =   0.0120000
        k(   24) = (  -0.1000000   0.7000000  -0.1000000), wk =   0.0480000
        k(   25) = (   0.8000000  -0.2000000   0.8000000), wk =   0.0480000
        k(   26) = (   0.7000000  -0.1000000   0.7000000), wk =   0.0480000
        k(   27) = (   0.6000000  -0.0000000   0.6000000), wk =   0.0240000
        k(   28) = (   0.0000000   0.8000000   0.0000000), wk =   0.0120000
        k(   29) = (   0.9000000  -0.1000000   0.9000000), wk =   0.0480000
        k(   30) = (   0.8000000   0.0000000   0.8000000), wk =   0.0240000
        k(   31) = (   0.0000000  -1.0000000   0.0000000), wk =   0.0060000
        k(   32) = (  -0.2000000   0.4000000   0.0000000), wk =   0.0480000
        k(   33) = (  -0.3000000   0.5000000  -0.1000000), wk =   0.0960000
        k(   34) = (   0.6000000  -0.4000000   0.8000000), wk =   0.0960000
        k(   35) = (   0.5000000  -0.3000000   0.7000000), wk =   0.0480000
        k(   36) = (  -0.2000000   0.6000000   0.0000000), wk =   0.0480000
        k(   37) = (   0.7000000  -0.3000000   0.9000000), wk =   0.0960000
        k(   38) = (   0.6000000  -0.2000000   0.8000000), wk =   0.0960000
        k(   39) = (   0.5000000  -0.1000000   0.7000000), wk =   0.0960000
        k(   40) = (   0.4000000   0.0000000   0.6000000), wk =   0.0480000
        k(   41) = (   0.8000000  -0.2000000   1.0000000), wk =   0.0480000
        k(   42) = (   0.7000000  -0.1000000   0.9000000), wk =   0.0960000
        k(   43) = (   0.6000000   0.0000000   0.8000000), wk =   0.0480000
        k(   44) = (  -0.2000000  -1.0000000   0.0000000), wk =   0.0240000
        k(   45) = (   0.6000000  -0.2000000   1.0000000), wk =   0.0480000
        k(   46) = (   0.5000000  -0.1000000   0.9000000), wk =   0.0480000
        k(   47) = (  -0.4000000  -1.0000000   0.0000000), wk =   0.0240000

     Dense  grid:    15665 G-vectors     FFT dimensions: (  36,  36,  36)

     Estimated max dynamical RAM per process >      29.69 MB

     WARNING: libxc functional with ID  263 depends
      on external parameters: check the user_guide of
      QE if you need to modify them or to check their
      default values.

     Initial potential from superposition of free atoms

     starting charge       7.9953, renormalised to       8.0000
     Starting wfcs are   13 randomized atomic wfcs

     total cpu time spent up to now is        8.1 secs

     Self-consistent Calculation

     iteration #  1     ecut=    50.00 Ry     beta= 0.01
     Davidson diagonalization with overlap
     ethr =  1.00E-02,  avg # of iterations =  1.0

     total cpu time spent up to now is       14.1 secs

     total energy              =     -30.64022242 Ry
     estimated scf accuracy    <       0.36549637 Ry

     iteration #  2     ecut=    50.00 Ry     beta= 0.01
     Davidson diagonalization with overlap
     ethr =  4.57E-03,  avg # of iterations =  1.0

     total cpu time spent up to now is       20.6 secs

     total energy              =     -30.67609111 Ry
     estimated scf accuracy    <       0.34790936 Ry

     iteration #  3     ecut=    50.00 Ry     beta= 0.01
     Davidson diagonalization with overlap
     ethr =  4.35E-03,  avg # of iterations =  1.0

     total cpu time spent up to now is       26.7 secs

     total energy              =     -30.72223017 Ry
     estimated scf accuracy    <       0.25504058 Ry

     iteration #  4     ecut=    50.00 Ry     beta= 0.01
     Davidson diagonalization with overlap
     ethr =  3.19E-03,  avg # of iterations =  1.0

     total cpu time spent up to now is       32.6 secs

     total energy              =     -30.72435366 Ry
     estimated scf accuracy    <       0.00742523 Ry

     iteration #  5     ecut=    50.00 Ry     beta= 0.01
     Davidson diagonalization with overlap
     ethr =  9.28E-05,  avg # of iterations =  1.0

     total cpu time spent up to now is       37.7 secs

     total energy              =     -30.72311302 Ry
     estimated scf accuracy    <       0.00698697 Ry

     iteration #  6     ecut=    50.00 Ry     beta= 0.01
     Davidson diagonalization with overlap
     ethr =  8.73E-05,  avg # of iterations =  1.0

     total cpu time spent up to now is       42.6 secs

     total energy              =     -30.72174296 Ry
     estimated scf accuracy    <       0.00485006 Ry

     iteration #  7     ecut=    50.00 Ry     beta= 0.01
     Davidson diagonalization with overlap
     ethr =  6.06E-05,  avg # of iterations =  2.0

     total cpu time spent up to now is       48.6 secs

     total energy              =     -30.72395504 Ry
     estimated scf accuracy    <       0.00307830 Ry

     iteration #  8     ecut=    50.00 Ry     beta= 0.01
     Davidson diagonalization with overlap
     ethr =  3.85E-05,  avg # of iterations =  1.0

     total cpu time spent up to now is       51.9 secs

     total energy              =     -30.72358102 Ry
     estimated scf accuracy    <       0.00312877 Ry

     iteration #  9     ecut=    50.00 Ry     beta= 0.01
     Davidson diagonalization with overlap
     ethr =  3.85E-05,  avg # of iterations =  1.0

     total cpu time spent up to now is       55.4 secs

     total energy              =     -30.72315224 Ry
     estimated scf accuracy    <       0.00193214 Ry

     iteration # 10     ecut=    50.00 Ry     beta= 0.01
     Davidson diagonalization with overlap
     ethr =  2.42E-05,  avg # of iterations =  1.9

     total cpu time spent up to now is       59.2 secs

     total energy              =     -30.72339197 Ry
     estimated scf accuracy    <       0.00002999 Ry

     iteration # 11     ecut=    50.00 Ry     beta= 0.01
     Davidson diagonalization with overlap
     ethr =  3.75E-07,  avg # of iterations =  2.0

     total cpu time spent up to now is       63.0 secs

     total energy              =     -30.72343312 Ry
     estimated scf accuracy    <       0.00005700 Ry

     iteration # 12     ecut=    50.00 Ry     beta= 0.01
     Davidson diagonalization with overlap
     ethr =  3.75E-07,  avg # of iterations =  1.9

     total cpu time spent up to now is       66.5 secs

     total energy              =     -30.72339275 Ry
     estimated scf accuracy    <       0.00011683 Ry

     iteration # 13     ecut=    50.00 Ry     beta= 0.01
     Davidson diagonalization with overlap
     ethr =  3.75E-07,  avg # of iterations =  2.0

     total cpu time spent up to now is       71.0 secs

     total energy              =     -30.72339962 Ry
     estimated scf accuracy    <       0.00000649 Ry

     iteration # 14     ecut=    50.00 Ry     beta= 0.01
     Davidson diagonalization with overlap
     ethr =  8.12E-08,  avg # of iterations =  2.0

     total cpu time spent up to now is       74.4 secs

     End of self-consistent calculation

          k = 0.0000 0.0000 0.0000 (  1989 PWs)   bands (ev):

   -14.3285  -1.4467  -1.4467  -1.4467

          k =-0.1000 0.1000-0.1000 (  1977 PWs)   bands (ev):

   -14.3068  -1.6448  -1.4609  -1.4609

          k =-0.2000 0.2000-0.2000 (  1976 PWs)   bands (ev):

   -14.2497  -2.1034  -1.4972  -1.4972

          k =-0.3000 0.3000-0.3000 (  1979 PWs)   bands (ev):

   -14.1771  -2.5905  -1.5406  -1.5406

          k =-0.4000 0.4000-0.4000 (  1970 PWs)   bands (ev):

   -14.1165  -2.9423  -1.5745  -1.5745

          k = 0.5000-0.5000 0.5000 (  1946 PWs)   bands (ev):

   -14.0927  -3.0692  -1.5872  -1.5872

          k = 0.0000 0.2000 0.0000 (  1973 PWs)   bands (ev):

   -14.2996  -1.6322  -1.5065  -1.5065

          k =-0.1000 0.3000-0.1000 (  1974 PWs)   bands (ev):

   -14.2541  -1.9797  -1.5677  -1.5328

          k =-0.2000 0.4000-0.2000 (  1970 PWs)   bands (ev):

   -14.1863  -2.4413  -1.6204  -1.5820

          k =-0.3000 0.5000-0.3000 (  1973 PWs)   bands (ev):

   -14.1213  -2.8216  -1.6531  -1.6451

          k = 0.6000-0.4000 0.6000 (  1970 PWs)   bands (ev):

   -14.0851  -3.0132  -1.7178  -1.6335

          k = 0.5000-0.3000 0.5000 (  1971 PWs)   bands (ev):

   -14.0930  -2.9703  -1.7508  -1.5901

          k = 0.4000-0.2000 0.4000 (  1974 PWs)   bands (ev):

   -14.1416  -2.7051  -1.7378  -1.5305

          k = 0.3000-0.1000 0.3000 (  1969 PWs)   bands (ev):

   -14.2107  -2.2906  -1.6768  -1.4766

          k = 0.2000 0.0000 0.2000 (  1971 PWs)   bands (ev):

   -14.2733  -1.8741  -1.5721  -1.4495

          k = 0.0000 0.4000 0.0000 (  1980 PWs)   bands (ev):

   -14.2227  -2.0673  -1.6588  -1.6588

          k =-0.1000 0.5000-0.1000 (  1979 PWs)   bands (ev):

   -14.1662  -2.3879  -1.7405  -1.7350

          k =-0.2000 0.6000-0.2000 (  1972 PWs)   bands (ev):

   -14.1053  -2.7028  -1.8610  -1.7694

          k = 0.7000-0.3000 0.7000 (  1967 PWs)   bands (ev):

   -14.0640  -2.8835  -2.0011  -1.7504

          k = 0.6000-0.2000 0.6000 (  1974 PWs)   bands (ev):

   -14.0592  -2.8837  -2.0995  -1.6846

          k = 0.5000-0.1000 0.5000 (  1961 PWs)   bands (ev):

   -14.0928  -2.7252  -2.0955  -1.5949

          k = 0.4000 0.0000 0.4000 (  1973 PWs)   bands (ev):

   -14.1511  -2.5003  -1.9391  -1.5147

          k = 0.0000 0.6000 0.0000 (  1980 PWs)   bands (ev):

   -14.1237  -2.5424  -1.8391  -1.8391

          k =-0.1000 0.7000-0.1000 (  1969 PWs)   bands (ev):

   -14.0743  -2.7468  -1.9606  -1.8959

          k = 0.8000-0.2000 0.8000 (  1967 PWs)   bands (ev):

   -14.0374  -2.8362  -2.1683  -1.8872

          k = 0.7000-0.1000 0.7000 (  1972 PWs)   bands (ev):

   -14.0278  -2.7561  -2.4014  -1.8157

          k = 0.6000-0.0000 0.6000 (  1959 PWs)   bands (ev):

   -14.0491  -2.6515  -2.4417  -1.7049

          k = 0.0000 0.8000 0.0000 (  1984 PWs)   bands (ev):

   -14.0401  -2.8966  -1.9791  -1.9791

          k = 0.9000-0.1000 0.9000 (  1985 PWs)   bands (ev):

   -14.0158  -2.9575  -2.0942  -1.9923

          k = 0.8000 0.0000 0.8000 (  1968 PWs)   bands (ev):

   -14.0109  -2.8648  -2.3075  -1.9316

          k = 0.0000-1.0000 0.0000 (  1964 PWs)   bands (ev):

   -14.0071  -3.0271  -2.0313  -2.0313

          k =-0.2000 0.4000 0.0000 (  1974 PWs)   bands (ev):

   -14.2031  -2.2459  -1.7386  -1.5511

          k =-0.3000 0.5000-0.1000 (  1967 PWs)   bands (ev):

   -14.1385  -2.5796  -1.8776  -1.6004

          k = 0.6000-0.4000 0.8000 (  1970 PWs)   bands (ev):

   -14.0849  -2.8438  -1.9478  -1.6640

          k = 0.5000-0.3000 0.7000 (  1980 PWs)   bands (ev):

   -14.0643  -2.9423  -1.9670  -1.6938

          k =-0.2000 0.6000 0.0000 (  1978 PWs)   bands (ev):

   -14.1131  -2.5987  -1.9347  -1.7646

          k = 0.7000-0.3000 0.9000 (  1973 PWs)   bands (ev):

   -14.0638  -2.7602  -2.1065  -1.8191

          k = 0.6000-0.2000 0.8000 (  1974 PWs)   bands (ev):

   -14.0379  -2.8075  -2.2542  -1.8253

          k = 0.5000-0.1000 0.7000 (  1974 PWs)   bands (ev):

   -14.0461  -2.7472  -2.3132  -1.7628

          k = 0.4000 0.0000 0.6000 (  1967 PWs)   bands (ev):

   -14.0848  -2.6688  -2.1717  -1.6694

          k = 0.8000-0.2000 1.0000 (  1980 PWs)   bands (ev):

   -14.0373  -2.8520  -2.0862  -1.9566

          k = 0.7000-0.1000 0.9000 (  1962 PWs)   bands (ev):

   -14.0161  -2.8229  -2.2907  -1.9626

          k = 0.6000 0.0000 0.8000 (  1964 PWs)   bands (ev):

   -14.0196  -2.6447  -2.5304  -1.8831

          k =-0.2000-1.0000 0.0000 (  1980 PWs)   bands (ev):

   -14.0076  -2.9449  -2.1425  -2.0312

          k = 0.6000-0.2000 1.0000 (  1978 PWs)   bands (ev):

   -14.0297  -2.7237  -2.3490  -1.9084

          k = 0.5000-0.1000 0.9000 (  1962 PWs)   bands (ev):

   -14.0164  -2.6500  -2.4896  -1.9563

          k =-0.4000-1.0000 0.0000 (  1958 PWs)   bands (ev):

   -14.0080  -2.7191  -2.4145  -2.0310

     highest occupied level (ev):    -1.4467

!    total energy              =     -30.72340115 Ry
     estimated scf accuracy    <       0.00000035 Ry

     The total energy is the sum of the following terms:
     one-electron contribution =      -9.79806465 Ry
     hartree contribution      =       7.61788133 Ry
     xc contribution           =      -6.26131091 Ry
     ewald contribution        =     -22.28190693 Ry

     convergence has been achieved in  14 iterations
     Writing meta-gga kinetic term

     Writing all to output data dir ./input_pw/NaCl/13/pwscf.save/
     Writing meta-gga kinetic term
 
     init_run     :      3.05s CPU      8.03s WALL (       1 calls)
     electrons    :     37.84s CPU     66.27s WALL (       1 calls)

     Called by init_run:
     wfcinit      :      2.90s CPU      7.52s WALL (       1 calls)
     potinit      :      0.04s CPU      0.17s WALL (       1 calls)
     hinit0       :      0.09s CPU      0.27s WALL (       1 calls)

     Called by electrons:
     c_bands      :     29.92s CPU     52.42s WALL (      14 calls)
     sum_band     :      6.95s CPU     12.19s WALL (      14 calls)
     v_of_rho     :      0.47s CPU      0.92s WALL (      15 calls)
     mix_rho      :      0.51s CPU      0.86s WALL (      14 calls)

     Called by c_bands:
     init_us_2    :      0.35s CPU      0.70s WALL (    1363 calls)
     init_us_2:cp :      0.34s CPU      0.69s WALL (    1363 calls)
     cegterg      :     29.59s CPU     51.82s WALL (     658 calls)

     Called by *egterg:
     cdiaghg      :      0.11s CPU      0.15s WALL (    1591 calls)
     h_psi        :     31.85s CPU     58.22s WALL (    1638 calls)
     g_psi        :      0.02s CPU      0.04s WALL (     933 calls)

     Called by h_psi:
     h_psi:calbec :      0.12s CPU      0.20s WALL (    1638 calls)
     vloc_psi     :      7.89s CPU     14.54s WALL (    1638 calls)
     add_vuspsi   :      0.09s CPU      0.13s WALL (    1638 calls)
     h_psi_meta   :     23.69s CPU     43.26s WALL (    1638 calls)

     General routines
     calbec       :      0.11s CPU      0.19s WALL (    1638 calls)
     fft          :      0.09s CPU      0.25s WALL (     177 calls)
     ffts         :      0.19s CPU      0.38s WALL (     355 calls)
     fftw         :     32.94s CPU     60.24s WALL (   64568 calls)
     interpolate  :      0.00s CPU      0.00s WALL (      15 calls)
 
     Parallel routines
 
     PWSCF        :     40.96s CPU   1m14.39s WALL

 
   This run was terminated on:  14:32:22  14Mar2023            

=------------------------------------------------------------------------------=
   JOB DONE.
=------------------------------------------------------------------------------=
