
     Program PWSCF v.7.0 starts on  7Jul2023 at 14:25:48 

     This program is part of the open-source Quantum ESPRESSO suite
     for quantum simulation of materials; please cite
         "P. Giannozzi et al., J. Phys.:Condens. Matter 21 395502 (2009);
         "P. Giannozzi et al., J. Phys.:Condens. Matter 29 465901 (2017);
         "P. Giannozzi et al., J. Chem. Phys. 152 154105 (2020);
          URL http://www.quantum-espresso.org", 
     in publications or presentations arising from this work. More details at
     http://www.quantum-espresso.org/quote

     Parallel version (MPI), running on     1 processors

     MPI processes distributed on     1 nodes
     27431 MiB available memory on the printing compute node when the environment starts
 
     Waiting for input...
     Reading input from standard input
Warning: card &CELL ignored
Warning: card / ignored

     Current dimensions of program PWSCF are:
     Max number of different atomic species (ntypx) = 10
     Max number of k-points (npk) =  40000
     Max angular momentum in pseudopotentials (lmaxx) =  4
     file Ge.SCAN.UPF2: wavefunction(s)  0D renormalized

     WARNING: the MGGA functional with ID    5 has been 
     read together with other dft terms, but it should 
     stand alone in order to work properly. The other 
     terms will be ignored.

     Subspace diagonalization in iterative solution of the eigenvalue problem:
     a serial algorithm will be used

 
     G-vector sticks info
     --------------------
     sticks:   dense  smooth     PW     G-vecs:    dense   smooth      PW
     Sum         703     703    211                12387    12387    2109
 
     Using Slab Decomposition
 


     bravais-lattice index     =            2
     lattice parameter (alat)  =      10.1379  a.u.
     unit-cell volume          =     260.4855 (a.u.)^3
     number of atoms/cell      =            2
     number of atomic types    =            1
     number of electrons       =         8.00
     number of Kohn-Sham states=            4
     kinetic-energy cutoff     =      50.0000  Ry
     charge density cutoff     =     200.0000  Ry
     scf convergence threshold =      2.0E-05
     mixing beta               =       0.2000
     number of iterations used =            8  local-TF  mixing
     Exchange-correlation= SLA  PW  SCAN SCAN
                           (   0   0   0   0   0 263 267)

     celldm(1)=  10.137897  celldm(2)=   0.000000  celldm(3)=   0.000000
     celldm(4)=   0.000000  celldm(5)=   0.000000  celldm(6)=   0.000000

     crystal axes: (cart. coord. in units of alat)
               a(1) = (  -0.500000   0.000000   0.500000 )  
               a(2) = (   0.000000   0.500000   0.500000 )  
               a(3) = (  -0.500000   0.500000   0.000000 )  

     reciprocal axes: (cart. coord. in units 2 pi/alat)
               b(1) = ( -1.000000 -1.000000  1.000000 )  
               b(2) = (  1.000000  1.000000  1.000000 )  
               b(3) = ( -1.000000  1.000000 -1.000000 )  


     PseudoPot. # 1 for Ge read from file:
     ~/Documents/TA/PWDFT.jl/pseudopotentials/scan_upf/Ge.SCAN.UPF2
     MD5 check sum: Not computed, couldn't open file
     Pseudo is Norm-conserving, Zval =  4.0
     Generated by new atomic code, or converted to UPF format
     Using radial grid of 1557 points,  2 beta functions with: 
                l(1) =   0
                l(2) =   1

     atomic species   valence    mass     pseudopotential
        Ge             4.00    72.64000     Ge( 1.00)

     48 Sym. Ops., with inversion, found (24 have fractional translation)



   Cartesian axes

     site n.     atom                  positions (alat units)
         1           Ge  tau(   1) = (   0.0000000   0.0000000   0.0000000  )
         2           Ge  tau(   2) = (   0.2500000   0.2500000   0.2500000  )

     number of k points=    47
                       cart. coord. in units 2pi/alat
        k(    1) = (   0.0000000   0.0000000   0.0000000), wk =   0.0020000
        k(    2) = (  -0.1000000   0.1000000  -0.1000000), wk =   0.0160000
        k(    3) = (  -0.2000000   0.2000000  -0.2000000), wk =   0.0160000
        k(    4) = (  -0.3000000   0.3000000  -0.3000000), wk =   0.0160000
        k(    5) = (  -0.4000000   0.4000000  -0.4000000), wk =   0.0160000
        k(    6) = (   0.5000000  -0.5000000   0.5000000), wk =   0.0080000
        k(    7) = (   0.0000000   0.2000000   0.0000000), wk =   0.0120000
        k(    8) = (  -0.1000000   0.3000000  -0.1000000), wk =   0.0480000
        k(    9) = (  -0.2000000   0.4000000  -0.2000000), wk =   0.0480000
        k(   10) = (  -0.3000000   0.5000000  -0.3000000), wk =   0.0480000
        k(   11) = (   0.6000000  -0.4000000   0.6000000), wk =   0.0480000
        k(   12) = (   0.5000000  -0.3000000   0.5000000), wk =   0.0480000
        k(   13) = (   0.4000000  -0.2000000   0.4000000), wk =   0.0480000
        k(   14) = (   0.3000000  -0.1000000   0.3000000), wk =   0.0480000
        k(   15) = (   0.2000000   0.0000000   0.2000000), wk =   0.0240000
        k(   16) = (   0.0000000   0.4000000   0.0000000), wk =   0.0120000
        k(   17) = (  -0.1000000   0.5000000  -0.1000000), wk =   0.0480000
        k(   18) = (  -0.2000000   0.6000000  -0.2000000), wk =   0.0480000
        k(   19) = (   0.7000000  -0.3000000   0.7000000), wk =   0.0480000
        k(   20) = (   0.6000000  -0.2000000   0.6000000), wk =   0.0480000
        k(   21) = (   0.5000000  -0.1000000   0.5000000), wk =   0.0480000
        k(   22) = (   0.4000000   0.0000000   0.4000000), wk =   0.0240000
        k(   23) = (   0.0000000   0.6000000   0.0000000), wk =   0.0120000
        k(   24) = (  -0.1000000   0.7000000  -0.1000000), wk =   0.0480000
        k(   25) = (   0.8000000  -0.2000000   0.8000000), wk =   0.0480000
        k(   26) = (   0.7000000  -0.1000000   0.7000000), wk =   0.0480000
        k(   27) = (   0.6000000  -0.0000000   0.6000000), wk =   0.0240000
        k(   28) = (   0.0000000   0.8000000   0.0000000), wk =   0.0120000
        k(   29) = (   0.9000000  -0.1000000   0.9000000), wk =   0.0480000
        k(   30) = (   0.8000000   0.0000000   0.8000000), wk =   0.0240000
        k(   31) = (   0.0000000  -1.0000000   0.0000000), wk =   0.0060000
        k(   32) = (  -0.2000000   0.4000000   0.0000000), wk =   0.0480000
        k(   33) = (  -0.3000000   0.5000000  -0.1000000), wk =   0.0960000
        k(   34) = (   0.6000000  -0.4000000   0.8000000), wk =   0.0960000
        k(   35) = (   0.5000000  -0.3000000   0.7000000), wk =   0.0480000
        k(   36) = (  -0.2000000   0.6000000   0.0000000), wk =   0.0480000
        k(   37) = (   0.7000000  -0.3000000   0.9000000), wk =   0.0960000
        k(   38) = (   0.6000000  -0.2000000   0.8000000), wk =   0.0960000
        k(   39) = (   0.5000000  -0.1000000   0.7000000), wk =   0.0960000
        k(   40) = (   0.4000000   0.0000000   0.6000000), wk =   0.0480000
        k(   41) = (   0.8000000  -0.2000000   1.0000000), wk =   0.0480000
        k(   42) = (   0.7000000  -0.1000000   0.9000000), wk =   0.0960000
        k(   43) = (   0.6000000   0.0000000   0.8000000), wk =   0.0480000
        k(   44) = (  -0.2000000  -1.0000000   0.0000000), wk =   0.0240000
        k(   45) = (   0.6000000  -0.2000000   1.0000000), wk =   0.0480000
        k(   46) = (   0.5000000  -0.1000000   0.9000000), wk =   0.0480000
        k(   47) = (  -0.4000000  -1.0000000   0.0000000), wk =   0.0240000

     Dense  grid:    12387 G-vectors     FFT dimensions: (  36,  36,  36)

     Estimated max dynamical RAM per process >      24.22 MB

     WARNING: libxc functional with ID  263 depends
      on external parameters: check the user_guide of
      QE if you need to modify them or to check their
      default values.

     Initial potential from superposition of free atoms

     starting charge       7.9987, renormalised to       8.0000
     Starting wfcs are   18 randomized atomic wfcs

     total cpu time spent up to now is        9.9 secs

     Self-consistent Calculation

     iteration #  1     ecut=    50.00 Ry     beta= 0.20
     Davidson diagonalization with overlap
     ethr =  1.00E-02,  avg # of iterations =  1.9

     Threshold (ethr) on eigenvalues was too large:
     Diagonalizing with lowered threshold

     Davidson diagonalization with overlap
     ethr =  4.80E-04,  avg # of iterations =  6.1

     total cpu time spent up to now is       30.9 secs

     total energy              =     -15.73976498 Ry
     estimated scf accuracy    <       0.04750810 Ry

     iteration #  2     ecut=    50.00 Ry     beta= 0.20
     Davidson diagonalization with overlap
     ethr =  5.94E-04,  avg # of iterations =  1.5

     total cpu time spent up to now is       37.2 secs

     total energy              =     -15.79495101 Ry
     estimated scf accuracy    <       0.03691827 Ry

     iteration #  3     ecut=    50.00 Ry     beta= 0.20
     Davidson diagonalization with overlap
     ethr =  4.61E-04,  avg # of iterations =  1.2

     total cpu time spent up to now is       43.0 secs

     total energy              =     -15.79763364 Ry
     estimated scf accuracy    <       0.00299437 Ry

     iteration #  4     ecut=    50.00 Ry     beta= 0.20
     Davidson diagonalization with overlap
     c_bands:  3 eigenvalues not converged
     ethr =  3.74E-05,  avg # of iterations =  9.0

     total cpu time spent up to now is       57.9 secs

     total energy              =     -15.80197545 Ry
     estimated scf accuracy    <       0.00354495 Ry

     iteration #  5     ecut=    50.00 Ry     beta= 0.20
     Davidson diagonalization with overlap
     ethr =  3.74E-05,  avg # of iterations =  2.0

     total cpu time spent up to now is       62.1 secs

     total energy              =     -15.80220871 Ry
     estimated scf accuracy    <       0.00025633 Ry

     iteration #  6     ecut=    50.00 Ry     beta= 0.20
     Davidson diagonalization with overlap
     c_bands:  3 eigenvalues not converged
     ethr =  3.20E-06,  avg # of iterations = 11.7

     total cpu time spent up to now is       77.8 secs

     total energy              =     -15.80305185 Ry
     estimated scf accuracy    <       0.00005719 Ry

     iteration #  7     ecut=    50.00 Ry     beta= 0.20
     Davidson diagonalization with overlap
     c_bands:  2 eigenvalues not converged
     ethr =  7.15E-07,  avg # of iterations =  6.4

     total cpu time spent up to now is       87.1 secs

     total energy              =     -15.80311121 Ry
     estimated scf accuracy    <       0.00007093 Ry

     iteration #  8     ecut=    50.00 Ry     beta= 0.20
     Davidson diagonalization with overlap
     ethr =  7.15E-07,  avg # of iterations =  3.4

     total cpu time spent up to now is       93.3 secs

     End of self-consistent calculation

          k = 0.0000 0.0000 0.0000 (  1471 PWs)   bands (ev):

    -6.9421   7.2752   7.2753   7.2753

          k =-0.1000 0.1000-0.1000 (  1528 PWs)   bands (ev):

    -6.7993   5.6700   7.0029   7.0029

          k =-0.2000 0.2000-0.2000 (  1540 PWs)   bands (ev):

    -6.3775   3.3711   6.4874   6.4874

          k =-0.3000 0.3000-0.3000 (  1552 PWs)   bands (ev):

    -5.7062   1.2618   6.0347   6.0347

          k =-0.4000 0.4000-0.4000 (  1549 PWs)   bands (ev):

    -4.8973  -0.4322   5.7457   5.7457

          k = 0.5000-0.5000 0.5000 (  1538 PWs)   bands (ev):

    -4.4192  -1.2082   5.6476   5.6476

          k = 0.0000 0.2000 0.0000 (  1523 PWs)   bands (ev):

    -6.7513   5.8423   6.5170   6.5170

          k =-0.1000 0.3000-0.1000 (  1541 PWs)   bands (ev):

    -6.4209   4.0017   5.9520   6.1160

          k =-0.2000 0.4000-0.2000 (  1553 PWs)   bands (ev):

    -5.8272   1.9179   5.5309   5.5488

          k =-0.3000 0.5000-0.3000 (  1559 PWs)   bands (ev):

    -5.0394   0.1019   5.0293   5.3258

          k = 0.6000-0.4000 0.6000 (  1543 PWs)   bands (ev):

    -4.3543  -1.0606   4.6739   5.3520

          k = 0.5000-0.3000 0.5000 (  1541 PWs)   bands (ev):

    -4.5312  -0.7856   4.5289   5.5976

          k = 0.4000-0.2000 0.4000 (  1562 PWs)   bands (ev):

    -5.3169   0.6672   4.6235   6.0273

          k = 0.3000-0.1000 0.3000 (  1541 PWs)   bands (ev):

    -6.0539   2.5845   4.9914   6.5639

          k = 0.2000 0.0000 0.2000 (  1538 PWs)   bands (ev):

    -6.5629   4.5154   5.7768   7.0120

          k = 0.0000 0.4000 0.0000 (  1535 PWs)   bands (ev):

    -6.1819   3.6969   5.3524   5.3524

          k =-0.1000 0.5000-0.1000 (  1551 PWs)   bands (ev):

    -5.6716   2.2310   4.7042   4.9073

          k =-0.2000 0.6000-0.2000 (  1567 PWs)   bands (ev):

    -4.9329   0.5802   3.9366   4.6951

          k = 0.7000-0.3000 0.7000 (  1559 PWs)   bands (ev):

    -4.1422  -0.7494   3.3281   4.7377

          k = 0.6000-0.2000 0.6000 (  1555 PWs)   bands (ev):

    -3.9818  -0.9753   2.9846   5.0266

          k = 0.5000-0.1000 0.5000 (  1556 PWs)   bands (ev):

    -4.6853   0.1223   2.9857   5.5212

          k = 0.4000 0.0000 0.4000 (  1554 PWs)   bands (ev):

    -5.4685   1.5432   3.5470   6.1178

          k = 0.0000 0.6000 0.0000 (  1572 PWs)   bands (ev):

    -5.2440   1.5491   4.4162   4.4162

          k =-0.1000 0.7000-0.1000 (  1565 PWs)   bands (ev):

    -4.5692   0.3778   3.6850   4.1553

          k = 0.8000-0.2000 0.8000 (  1560 PWs)   bands (ev):

    -3.7477  -0.7684   2.7396   4.1560

          k = 0.7000-0.1000 0.7000 (  1555 PWs)   bands (ev):

    -3.3033  -1.2883   2.1131   4.4167

          k = 0.6000-0.0000 0.6000 (  1554 PWs)   bands (ev):

    -3.8909  -0.6215   2.0887   4.9038

          k = 0.0000 0.8000 0.0000 (  1584 PWs)   bands (ev):

    -3.9575  -0.4966   3.8316   3.8316

          k = 0.9000-0.1000 0.9000 (  1567 PWs)   bands (ev):

    -3.1490  -1.4587   3.1801   3.7681

          k = 0.8000 0.0000 0.8000 (  1558 PWs)   bands (ev):

    -2.6429  -1.9232   2.3190   3.9713

          k = 0.0000-1.0000 0.0000 (  1588 PWs)   bands (ev):

    -2.3570  -2.3570   3.6337   3.6337

          k =-0.2000 0.4000 0.0000 (  1549 PWs)   bands (ev):

    -6.0015   2.8466   4.6393   5.9605

          k =-0.3000 0.5000-0.1000 (  1555 PWs)   bands (ev):

    -5.3330   1.2037   3.9020   5.4916

          k = 0.6000-0.4000 0.8000 (  1561 PWs)   bands (ev):

    -4.5215  -0.3426   3.5953   5.0625

          k = 0.5000-0.3000 0.7000 (  1548 PWs)   bands (ev):

    -4.0329  -1.0914   3.5129   4.8957

          k =-0.2000 0.6000 0.0000 (  1561 PWs)   bands (ev):

    -5.0813   1.1469   3.7532   4.6008

          k = 0.7000-0.3000 0.9000 (  1555 PWs)   bands (ev):

    -4.2925  -0.1191   3.0227   4.2145

          k = 0.6000-0.2000 0.8000 (  1552 PWs)   bands (ev):

    -3.5916  -1.0752   2.5449   4.1467

          k = 0.5000-0.1000 0.7000 (  1554 PWs)   bands (ev):

    -3.8101  -0.7884   2.3833   4.4314

          k = 0.4000 0.0000 0.6000 (  1556 PWs)   bands (ev):

    -4.6103   0.2862   2.7456   4.9592

          k = 0.8000-0.2000 1.0000 (  1558 PWs)   bands (ev):

    -3.8310  -0.6011   3.2556   3.6418

          k = 0.7000-0.1000 0.9000 (  1566 PWs)   bands (ev):

    -3.0219  -1.4845   2.4796   3.5357

          k = 0.6000 0.0000 0.8000 (  1564 PWs)   bands (ev):

    -3.0436  -1.4408   2.0169   3.8555

          k =-0.2000-1.0000 0.0000 (  1564 PWs)   bands (ev):

    -2.3055  -2.3055   3.2029   3.2029

          k = 0.6000-0.2000 1.0000 (  1562 PWs)   bands (ev):

    -3.4882  -0.9411   2.4097   3.5557

          k = 0.5000-0.1000 0.9000 (  1566 PWs)   bands (ev):

    -2.9308  -1.5172   2.2358   3.2660

          k =-0.4000-1.0000 0.0000 (  1572 PWs)   bands (ev):

    -2.2163  -2.2163   2.6536   2.6536

     highest occupied level (ev):     7.2753

!    total energy              =     -15.80313010 Ry
     estimated scf accuracy    <       0.00000222 Ry

     The total energy is the sum of the following terms:
     one-electron contribution =       4.97908187 Ry
     hartree contribution      =       1.05918632 Ry
     xc contribution           =      -4.83811451 Ry
     ewald contribution        =     -17.00328378 Ry

     convergence has been achieved in   8 iterations
     Writing meta-gga kinetic term

     Writing all to output data dir ./input_pw/Ge/3/pwscf.save/
     Writing meta-gga kinetic term
 
     init_run     :      4.74s CPU      9.82s WALL (       1 calls)
     electrons    :     48.85s CPU     83.41s WALL (       1 calls)

     Called by init_run:
     wfcinit      :      4.62s CPU      9.60s WALL (       1 calls)
     potinit      :      0.04s CPU      0.11s WALL (       1 calls)
     hinit0       :      0.07s CPU      0.09s WALL (       1 calls)

     Called by electrons:
     c_bands      :     43.07s CPU     73.24s WALL (       9 calls)
     sum_band     :      5.31s CPU      9.35s WALL (       9 calls)
     v_of_rho     :      0.30s CPU      0.58s WALL (       9 calls)
     mix_rho      :      0.19s CPU      0.32s WALL (       9 calls)

     Called by c_bands:
     init_us_2    :      0.20s CPU      0.35s WALL (     893 calls)
     init_us_2:cp :      0.20s CPU      0.35s WALL (     893 calls)
     cegterg      :     42.83s CPU     72.79s WALL (     423 calls)

     Called by *egterg:
     cdiaghg      :      0.22s CPU      0.42s WALL (    2410 calls)
     h_psi        :     46.37s CPU     80.44s WALL (    2504 calls)
     g_psi        :      0.04s CPU      0.05s WALL (    2034 calls)

     Called by h_psi:
     h_psi:calbec :      0.22s CPU      0.33s WALL (    2504 calls)
     vloc_psi     :     11.58s CPU     19.75s WALL (    2504 calls)
     add_vuspsi   :      0.14s CPU      0.29s WALL (    2504 calls)
     h_psi_meta   :     34.36s CPU     59.93s WALL (    2504 calls)

     General routines
     calbec       :      0.21s CPU      0.32s WALL (    2504 calls)
     fft          :      0.06s CPU      0.15s WALL (     107 calls)
     ffts         :      0.08s CPU      0.13s WALL (     131 calls)
     fftw         :     42.48s CPU     74.28s WALL (   75768 calls)
     interpolate  :      0.00s CPU      0.00s WALL (       9 calls)
 
     Parallel routines
 
     PWSCF        :     53.65s CPU   1m33.35s WALL

 
   This run was terminated on:  14:27:22   7Jul2023            

=------------------------------------------------------------------------------=
   JOB DONE.
=------------------------------------------------------------------------------=
