
     Program PWSCF v.7.0 starts on 29Mar2023 at 11:45:50 

     This program is part of the open-source Quantum ESPRESSO suite
     for quantum simulation of materials; please cite
         "P. Giannozzi et al., J. Phys.:Condens. Matter 21 395502 (2009);
         "P. Giannozzi et al., J. Phys.:Condens. Matter 29 465901 (2017);
         "P. Giannozzi et al., J. Chem. Phys. 152 154105 (2020);
          URL http://www.quantum-espresso.org", 
     in publications or presentations arising from this work. More details at
     http://www.quantum-espresso.org/quote

     Parallel version (MPI), running on     1 processors

     MPI processes distributed on     1 nodes
     23623 MiB available memory on the printing compute node when the environment starts
 
     Waiting for input...
     Reading input from standard input
Warning: card &CELL ignored
Warning: card / ignored

     Current dimensions of program PWSCF are:
     Max number of different atomic species (ntypx) = 10
     Max number of k-points (npk) =  40000
     Max angular momentum in pseudopotentials (lmaxx) =  4
     file Ge.SCAN.UPF2: wavefunction(s)  0D renormalized

     WARNING: the MGGA functional with ID    5 has been 
     read together with other dft terms, but it should 
     stand alone in order to work properly. The other 
     terms will be ignored.

     Subspace diagonalization in iterative solution of the eigenvalue problem:
     a serial algorithm will be used

 
     G-vector sticks info
     --------------------
     sticks:   dense  smooth     PW     G-vecs:    dense   smooth      PW
     Sum         703     703    211                12387    12387    2109
 
     Using Slab Decomposition
 


     bravais-lattice index     =            2
     lattice parameter (alat)  =      10.1379  a.u.
     unit-cell volume          =     260.4855 (a.u.)^3
     number of atoms/cell      =            2
     number of atomic types    =            1
     number of electrons       =         8.00
     number of Kohn-Sham states=            4
     kinetic-energy cutoff     =      50.0000  Ry
     charge density cutoff     =     200.0000  Ry
     scf convergence threshold =      1.0E-06
     mixing beta               =       0.0100
     number of iterations used =            8  local-TF  mixing
     Exchange-correlation= SLA  PW  SCAN SCAN
                           (   0   0   0   0   0 263 267)

     celldm(1)=  10.137897  celldm(2)=   0.000000  celldm(3)=   0.000000
     celldm(4)=   0.000000  celldm(5)=   0.000000  celldm(6)=   0.000000

     crystal axes: (cart. coord. in units of alat)
               a(1) = (  -0.500000   0.000000   0.500000 )  
               a(2) = (   0.000000   0.500000   0.500000 )  
               a(3) = (  -0.500000   0.500000   0.000000 )  

     reciprocal axes: (cart. coord. in units 2 pi/alat)
               b(1) = ( -1.000000 -1.000000  1.000000 )  
               b(2) = (  1.000000  1.000000  1.000000 )  
               b(3) = ( -1.000000  1.000000 -1.000000 )  


     PseudoPot. # 1 for Ge read from file:
     ~/Documents/TA/PWDFT.jl/pseudopotentials/scan_upf/Ge.SCAN.UPF2
     MD5 check sum: Not computed, couldn't open file
     Pseudo is Norm-conserving, Zval =  4.0
     Generated by new atomic code, or converted to UPF format
     Using radial grid of 1557 points,  2 beta functions with: 
                l(1) =   0
                l(2) =   1

     atomic species   valence    mass     pseudopotential
        Ge             4.00    72.64000     Ge( 1.00)

     48 Sym. Ops., with inversion, found (24 have fractional translation)



   Cartesian axes

     site n.     atom                  positions (alat units)
         1           Ge  tau(   1) = (   0.0000000   0.0000000   0.0000000  )
         2           Ge  tau(   2) = (   0.2500000   0.2500000   0.2500000  )

     number of k points=    47
                       cart. coord. in units 2pi/alat
        k(    1) = (   0.0000000   0.0000000   0.0000000), wk =   0.0020000
        k(    2) = (  -0.1000000   0.1000000  -0.1000000), wk =   0.0160000
        k(    3) = (  -0.2000000   0.2000000  -0.2000000), wk =   0.0160000
        k(    4) = (  -0.3000000   0.3000000  -0.3000000), wk =   0.0160000
        k(    5) = (  -0.4000000   0.4000000  -0.4000000), wk =   0.0160000
        k(    6) = (   0.5000000  -0.5000000   0.5000000), wk =   0.0080000
        k(    7) = (   0.0000000   0.2000000   0.0000000), wk =   0.0120000
        k(    8) = (  -0.1000000   0.3000000  -0.1000000), wk =   0.0480000
        k(    9) = (  -0.2000000   0.4000000  -0.2000000), wk =   0.0480000
        k(   10) = (  -0.3000000   0.5000000  -0.3000000), wk =   0.0480000
        k(   11) = (   0.6000000  -0.4000000   0.6000000), wk =   0.0480000
        k(   12) = (   0.5000000  -0.3000000   0.5000000), wk =   0.0480000
        k(   13) = (   0.4000000  -0.2000000   0.4000000), wk =   0.0480000
        k(   14) = (   0.3000000  -0.1000000   0.3000000), wk =   0.0480000
        k(   15) = (   0.2000000   0.0000000   0.2000000), wk =   0.0240000
        k(   16) = (   0.0000000   0.4000000   0.0000000), wk =   0.0120000
        k(   17) = (  -0.1000000   0.5000000  -0.1000000), wk =   0.0480000
        k(   18) = (  -0.2000000   0.6000000  -0.2000000), wk =   0.0480000
        k(   19) = (   0.7000000  -0.3000000   0.7000000), wk =   0.0480000
        k(   20) = (   0.6000000  -0.2000000   0.6000000), wk =   0.0480000
        k(   21) = (   0.5000000  -0.1000000   0.5000000), wk =   0.0480000
        k(   22) = (   0.4000000   0.0000000   0.4000000), wk =   0.0240000
        k(   23) = (   0.0000000   0.6000000   0.0000000), wk =   0.0120000
        k(   24) = (  -0.1000000   0.7000000  -0.1000000), wk =   0.0480000
        k(   25) = (   0.8000000  -0.2000000   0.8000000), wk =   0.0480000
        k(   26) = (   0.7000000  -0.1000000   0.7000000), wk =   0.0480000
        k(   27) = (   0.6000000  -0.0000000   0.6000000), wk =   0.0240000
        k(   28) = (   0.0000000   0.8000000   0.0000000), wk =   0.0120000
        k(   29) = (   0.9000000  -0.1000000   0.9000000), wk =   0.0480000
        k(   30) = (   0.8000000   0.0000000   0.8000000), wk =   0.0240000
        k(   31) = (   0.0000000  -1.0000000   0.0000000), wk =   0.0060000
        k(   32) = (  -0.2000000   0.4000000   0.0000000), wk =   0.0480000
        k(   33) = (  -0.3000000   0.5000000  -0.1000000), wk =   0.0960000
        k(   34) = (   0.6000000  -0.4000000   0.8000000), wk =   0.0960000
        k(   35) = (   0.5000000  -0.3000000   0.7000000), wk =   0.0480000
        k(   36) = (  -0.2000000   0.6000000   0.0000000), wk =   0.0480000
        k(   37) = (   0.7000000  -0.3000000   0.9000000), wk =   0.0960000
        k(   38) = (   0.6000000  -0.2000000   0.8000000), wk =   0.0960000
        k(   39) = (   0.5000000  -0.1000000   0.7000000), wk =   0.0960000
        k(   40) = (   0.4000000   0.0000000   0.6000000), wk =   0.0480000
        k(   41) = (   0.8000000  -0.2000000   1.0000000), wk =   0.0480000
        k(   42) = (   0.7000000  -0.1000000   0.9000000), wk =   0.0960000
        k(   43) = (   0.6000000   0.0000000   0.8000000), wk =   0.0480000
        k(   44) = (  -0.2000000  -1.0000000   0.0000000), wk =   0.0240000
        k(   45) = (   0.6000000  -0.2000000   1.0000000), wk =   0.0480000
        k(   46) = (   0.5000000  -0.1000000   0.9000000), wk =   0.0480000
        k(   47) = (  -0.4000000  -1.0000000   0.0000000), wk =   0.0240000

     Dense  grid:    12387 G-vectors     FFT dimensions: (  36,  36,  36)

     Estimated max dynamical RAM per process >      24.22 MB

     WARNING: libxc functional with ID  263 depends
      on external parameters: check the user_guide of
      QE if you need to modify them or to check their
      default values.

     Initial potential from superposition of free atoms

     starting charge       7.9987, renormalised to       8.0000
     Starting wfcs are   18 randomized atomic wfcs

     total cpu time spent up to now is        8.9 secs

     Self-consistent Calculation

     iteration #  1     ecut=    50.00 Ry     beta= 0.01
     Davidson diagonalization with overlap
     ethr =  1.00E-02,  avg # of iterations =  1.9

     Threshold (ethr) on eigenvalues was too large:
     Diagonalizing with lowered threshold

     Davidson diagonalization with overlap
     ethr =  4.80E-04,  avg # of iterations =  6.1

     total cpu time spent up to now is       27.7 secs

     total energy              =     -15.69332822 Ry
     estimated scf accuracy    <       0.04750810 Ry

     iteration #  2     ecut=    50.00 Ry     beta= 0.01
     Davidson diagonalization with overlap
     ethr =  5.94E-04,  avg # of iterations =  1.0

     total cpu time spent up to now is       33.2 secs

     total energy              =     -15.74982553 Ry
     estimated scf accuracy    <       0.04736508 Ry

     iteration #  3     ecut=    50.00 Ry     beta= 0.01
     Davidson diagonalization with overlap
     ethr =  5.92E-04,  avg # of iterations =  1.4

     total cpu time spent up to now is       39.2 secs

     total energy              =     -15.79705809 Ry
     estimated scf accuracy    <       0.03455890 Ry

     iteration #  4     ecut=    50.00 Ry     beta= 0.01
     Davidson diagonalization with overlap
     ethr =  4.32E-04,  avg # of iterations =  1.2

     total cpu time spent up to now is       44.7 secs

     total energy              =     -15.79940993 Ry
     estimated scf accuracy    <       0.00426735 Ry

     iteration #  5     ecut=    50.00 Ry     beta= 0.01
     Davidson diagonalization with overlap
     ethr =  5.33E-05,  avg # of iterations =  6.9

     total cpu time spent up to now is       58.2 secs

     total energy              =     -15.80337060 Ry
     estimated scf accuracy    <       0.00699479 Ry

     iteration #  6     ecut=    50.00 Ry     beta= 0.01
     Davidson diagonalization with overlap
     ethr =  5.33E-05,  avg # of iterations =  1.5

     total cpu time spent up to now is       63.9 secs

     total energy              =     -15.80164890 Ry
     estimated scf accuracy    <       0.00553394 Ry

     iteration #  7     ecut=    50.00 Ry     beta= 0.01
     Davidson diagonalization with overlap
     ethr =  5.33E-05,  avg # of iterations =  2.1

     total cpu time spent up to now is       70.2 secs

     total energy              =     -15.80245358 Ry
     estimated scf accuracy    <       0.00013541 Ry

     iteration #  8     ecut=    50.00 Ry     beta= 0.01
     Davidson diagonalization with overlap
     c_bands:  2 eigenvalues not converged
     c_bands:  3 eigenvalues not converged
     c_bands:  2 eigenvalues not converged
     ethr =  1.69E-06,  avg # of iterations = 12.9

     total cpu time spent up to now is       91.2 secs

     total energy              =     -15.80316727 Ry
     estimated scf accuracy    <       0.00051455 Ry

     iteration #  9     ecut=    50.00 Ry     beta= 0.01
     Davidson diagonalization with overlap
     ethr =  1.69E-06,  avg # of iterations =  2.1

     total cpu time spent up to now is       97.8 secs

     total energy              =     -15.80304590 Ry
     estimated scf accuracy    <       0.00035171 Ry

     iteration # 10     ecut=    50.00 Ry     beta= 0.01
     Davidson diagonalization with overlap
     ethr =  1.69E-06,  avg # of iterations =  4.2

     total cpu time spent up to now is      106.3 secs

     total energy              =     -15.80313635 Ry
     estimated scf accuracy    <       0.00000993 Ry

     iteration # 11     ecut=    50.00 Ry     beta= 0.01
     Davidson diagonalization with overlap
     ethr =  1.24E-07,  avg # of iterations = 10.0

     total cpu time spent up to now is      123.5 secs

     total energy              =     -15.80316054 Ry
     estimated scf accuracy    <       0.00008376 Ry

     iteration # 12     ecut=    50.00 Ry     beta= 0.01
     Davidson diagonalization with overlap
     ethr =  1.24E-07,  avg # of iterations =  1.0

     total cpu time spent up to now is      128.8 secs

     total energy              =     -15.80313267 Ry
     estimated scf accuracy    <       0.00006965 Ry

     iteration # 13     ecut=    50.00 Ry     beta= 0.01
     Davidson diagonalization with overlap
     ethr =  1.24E-07,  avg # of iterations =  4.5

     total cpu time spent up to now is      136.6 secs

     End of self-consistent calculation

          k = 0.0000 0.0000 0.0000 (  1471 PWs)   bands (ev):

    -6.9459   7.2674   7.2674   7.2674

          k =-0.1000 0.1000-0.1000 (  1528 PWs)   bands (ev):

    -6.8032   5.6637   6.9955   6.9955

          k =-0.2000 0.2000-0.2000 (  1540 PWs)   bands (ev):

    -6.3814   3.3656   6.4806   6.4806

          k =-0.3000 0.3000-0.3000 (  1552 PWs)   bands (ev):

    -5.7103   1.2569   6.0282   6.0282

          k =-0.4000 0.4000-0.4000 (  1549 PWs)   bands (ev):

    -4.9017  -0.4365   5.7393   5.7393

          k = 0.5000-0.5000 0.5000 (  1538 PWs)   bands (ev):

    -4.4238  -1.2122   5.6412   5.6412

          k = 0.0000 0.2000 0.0000 (  1523 PWs)   bands (ev):

    -6.7552   5.8354   6.5104   6.5104

          k =-0.1000 0.3000-0.1000 (  1541 PWs)   bands (ev):

    -6.4248   3.9958   5.9458   6.1097

          k =-0.2000 0.4000-0.2000 (  1553 PWs)   bands (ev):

    -5.8312   1.9128   5.5249   5.5429

          k =-0.3000 0.5000-0.3000 (  1559 PWs)   bands (ev):

    -5.0437   0.0973   5.0237   5.3199

          k = 0.6000-0.4000 0.6000 (  1543 PWs)   bands (ev):

    -4.3589  -1.0648   4.6685   5.3460

          k = 0.5000-0.3000 0.5000 (  1541 PWs)   bands (ev):

    -4.5357  -0.7899   4.5236   5.5913

          k = 0.4000-0.2000 0.4000 (  1562 PWs)   bands (ev):

    -5.3211   0.6624   4.6183   6.0207

          k = 0.3000-0.1000 0.3000 (  1541 PWs)   bands (ev):

    -6.0579   2.5791   4.9861   6.5568

          k = 0.2000 0.0000 0.2000 (  1538 PWs)   bands (ev):

    -6.5667   4.5093   5.7711   7.0045

          k = 0.0000 0.4000 0.0000 (  1535 PWs)   bands (ev):

    -6.1858   3.6906   5.3467   5.3467

          k =-0.1000 0.5000-0.1000 (  1551 PWs)   bands (ev):

    -5.6757   2.2252   4.6990   4.9018

          k =-0.2000 0.6000-0.2000 (  1567 PWs)   bands (ev):

    -4.9372   0.5750   3.9318   4.6897

          k = 0.7000-0.3000 0.7000 (  1559 PWs)   bands (ev):

    -4.1467  -0.7541   3.3235   4.7322

          k = 0.6000-0.2000 0.6000 (  1555 PWs)   bands (ev):

    -3.9865  -0.9799   2.9802   5.0208

          k = 0.5000-0.1000 0.5000 (  1556 PWs)   bands (ev):

    -4.6897   0.1173   2.9815   5.5151

          k = 0.4000 0.0000 0.4000 (  1554 PWs)   bands (ev):

    -5.4726   1.5377   3.5427   6.1112

          k = 0.0000 0.6000 0.0000 (  1572 PWs)   bands (ev):

    -5.2481   1.5433   4.4110   4.4110

          k =-0.1000 0.7000-0.1000 (  1565 PWs)   bands (ev):

    -4.5735   0.3723   3.6803   4.1501

          k = 0.8000-0.2000 0.8000 (  1560 PWs)   bands (ev):

    -3.7524  -0.7736   2.7356   4.1507

          k = 0.7000-0.1000 0.7000 (  1555 PWs)   bands (ev):

    -3.3082  -1.2932   2.1094   4.4114

          k = 0.6000-0.0000 0.6000 (  1554 PWs)   bands (ev):

    -3.8955  -0.6266   2.0851   4.8982

          k = 0.0000 0.8000 0.0000 (  1584 PWs)   bands (ev):

    -3.9620  -0.5019   3.8265   3.8265

          k = 0.9000-0.1000 0.9000 (  1567 PWs)   bands (ev):

    -3.1537  -1.4638   3.1757   3.7631

          k = 0.8000 0.0000 0.8000 (  1558 PWs)   bands (ev):

    -2.6478  -1.9282   2.3153   3.9662

          k = 0.0000-1.0000 0.0000 (  1588 PWs)   bands (ev):

    -2.3618  -2.3618   3.6288   3.6288

          k =-0.2000 0.4000 0.0000 (  1549 PWs)   bands (ev):

    -6.0056   2.8408   4.6343   5.9541

          k =-0.3000 0.5000-0.1000 (  1555 PWs)   bands (ev):

    -5.3372   1.1984   3.8973   5.4856

          k = 0.6000-0.4000 0.8000 (  1561 PWs)   bands (ev):

    -4.5260  -0.3472   3.5906   5.0569

          k = 0.5000-0.3000 0.7000 (  1548 PWs)   bands (ev):

    -4.0375  -1.0958   3.5082   4.8902

          k =-0.2000 0.6000 0.0000 (  1561 PWs)   bands (ev):

    -5.0855   1.1413   3.7487   4.5956

          k = 0.7000-0.3000 0.9000 (  1555 PWs)   bands (ev):

    -4.2970  -0.1244   3.0185   4.2095

          k = 0.6000-0.2000 0.8000 (  1552 PWs)   bands (ev):

    -3.5963  -1.0800   2.5409   4.1417

          k = 0.5000-0.1000 0.7000 (  1554 PWs)   bands (ev):

    -3.8148  -0.7934   2.3795   4.4262

          k = 0.4000 0.0000 0.6000 (  1556 PWs)   bands (ev):

    -4.6147   0.2809   2.7416   4.9537

          k = 0.8000-0.2000 1.0000 (  1558 PWs)   bands (ev):

    -3.8355  -0.6065   3.2512   3.6372

          k = 0.7000-0.1000 0.9000 (  1566 PWs)   bands (ev):

    -3.0267  -1.4896   2.4758   3.5311

          k = 0.6000 0.0000 0.8000 (  1564 PWs)   bands (ev):

    -3.0485  -1.4459   2.0134   3.8508

          k =-0.2000-1.0000 0.0000 (  1564 PWs)   bands (ev):

    -2.3104  -2.3104   3.1985   3.1985

          k = 0.6000-0.2000 1.0000 (  1562 PWs)   bands (ev):

    -3.4929  -0.9463   2.4059   3.5513

          k = 0.5000-0.1000 0.9000 (  1566 PWs)   bands (ev):

    -2.9357  -1.5223   2.2322   3.2618

          k =-0.4000-1.0000 0.0000 (  1572 PWs)   bands (ev):

    -2.2213  -2.2213   2.6497   2.6497

     highest occupied level (ev):     7.2674

!    total energy              =     -15.80313964 Ry
     estimated scf accuracy    <       0.00000066 Ry

     The total energy is the sum of the following terms:
     one-electron contribution =       4.97991494 Ry
     hartree contribution      =       1.05780180 Ry
     xc contribution           =      -4.83757260 Ry
     ewald contribution        =     -17.00328378 Ry

     convergence has been achieved in  13 iterations
     Writing meta-gga kinetic term

     Writing all to output data dir ./input_pw/Ge/3/pwscf.save/
     Writing meta-gga kinetic term
 
     init_run     :      4.39s CPU      8.84s WALL (       1 calls)
     electrons    :     67.02s CPU    127.70s WALL (       1 calls)

     Called by init_run:
     wfcinit      :      4.27s CPU      8.44s WALL (       1 calls)
     potinit      :      0.03s CPU      0.17s WALL (       1 calls)
     hinit0       :      0.08s CPU      0.21s WALL (       1 calls)

     Called by electrons:
     c_bands      :     58.28s CPU    110.35s WALL (      14 calls)
     sum_band     :      7.96s CPU     15.84s WALL (      14 calls)
     v_of_rho     :      0.47s CPU      1.00s WALL (      14 calls)
     mix_rho      :      0.33s CPU      0.62s WALL (      14 calls)

     Called by c_bands:
     init_us_2    :      0.30s CPU      0.50s WALL (    1363 calls)
     init_us_2:cp :      0.29s CPU      0.50s WALL (    1363 calls)
     cegterg      :     57.91s CPU    109.59s WALL (     658 calls)

     Called by *egterg:
     cdiaghg      :      0.29s CPU      0.55s WALL (    3282 calls)
     h_psi        :     60.82s CPU    115.49s WALL (    3376 calls)
     g_psi        :      0.05s CPU      0.07s WALL (    2671 calls)

     Called by h_psi:
     h_psi:calbec :      0.29s CPU      0.57s WALL (    3376 calls)
     vloc_psi     :     15.20s CPU     29.16s WALL (    3376 calls)
     add_vuspsi   :      0.18s CPU      0.36s WALL (    3376 calls)
     h_psi_meta   :     45.05s CPU     85.24s WALL (    3376 calls)

     General routines
     calbec       :      0.27s CPU      0.54s WALL (    3376 calls)
     fft          :      0.10s CPU      0.27s WALL (     167 calls)
     ffts         :      0.13s CPU      0.24s WALL (     222 calls)
     fftw         :     56.81s CPU    109.30s WALL (  103168 calls)
     interpolate  :      0.00s CPU      0.00s WALL (      14 calls)
 
     Parallel routines
 
     PWSCF        :   1m11.47s CPU   2m16.65s WALL

 
   This run was terminated on:  11:48: 7  29Mar2023            

=------------------------------------------------------------------------------=
   JOB DONE.
=------------------------------------------------------------------------------=
