
     Program PWSCF v.7.0 starts on 14Mar2023 at 11:36:59 

     This program is part of the open-source Quantum ESPRESSO suite
     for quantum simulation of materials; please cite
         "P. Giannozzi et al., J. Phys.:Condens. Matter 21 395502 (2009);
         "P. Giannozzi et al., J. Phys.:Condens. Matter 29 465901 (2017);
         "P. Giannozzi et al., J. Chem. Phys. 152 154105 (2020);
          URL http://www.quantum-espresso.org", 
     in publications or presentations arising from this work. More details at
     http://www.quantum-espresso.org/quote

     Parallel version (MPI), running on     1 processors

     MPI processes distributed on     1 nodes
     27434 MiB available memory on the printing compute node when the environment starts
 
     Waiting for input...
     Reading input from standard input
Warning: card &CELL ignored
Warning: card / ignored

     Current dimensions of program PWSCF are:
     Max number of different atomic species (ntypx) = 10
     Max number of k-points (npk) =  40000
     Max angular momentum in pseudopotentials (lmaxx) =  4
     file Ge.SCAN.UPF2: wavefunction(s)  0D renormalized

     WARNING: the MGGA functional with ID    5 has been 
     read together with other dft terms, but it should 
     stand alone in order to work properly. The other 
     terms will be ignored.

     Subspace diagonalization in iterative solution of the eigenvalue problem:
     a serial algorithm will be used

 
     G-vector sticks info
     --------------------
     sticks:   dense  smooth     PW     G-vecs:    dense   smooth      PW
     Sum         721     721    223                12627    12627    2133
 
     Using Slab Decomposition
 


     bravais-lattice index     =            2
     lattice parameter (alat)  =      10.2052  a.u.
     unit-cell volume          =     265.7080 (a.u.)^3
     number of atoms/cell      =            2
     number of atomic types    =            1
     number of electrons       =         8.00
     number of Kohn-Sham states=            4
     kinetic-energy cutoff     =      50.0000  Ry
     charge density cutoff     =     200.0000  Ry
     scf convergence threshold =      1.0E-06
     mixing beta               =       0.0100
     number of iterations used =            8  local-TF  mixing
     Exchange-correlation= SLA  PW  SCAN SCAN
                           (   0   0   0   0   0 263 267)

     celldm(1)=  10.205200  celldm(2)=   0.000000  celldm(3)=   0.000000
     celldm(4)=   0.000000  celldm(5)=   0.000000  celldm(6)=   0.000000

     crystal axes: (cart. coord. in units of alat)
               a(1) = (  -0.500000   0.000000   0.500000 )  
               a(2) = (   0.000000   0.500000   0.500000 )  
               a(3) = (  -0.500000   0.500000   0.000000 )  

     reciprocal axes: (cart. coord. in units 2 pi/alat)
               b(1) = ( -1.000000 -1.000000  1.000000 )  
               b(2) = (  1.000000  1.000000  1.000000 )  
               b(3) = ( -1.000000  1.000000 -1.000000 )  


     PseudoPot. # 1 for Ge read from file:
     ~/Documents/TA/PWDFT.jl/pseudopotentials/scan_upf/Ge.SCAN.UPF2
     MD5 check sum: Not computed, couldn't open file
     Pseudo is Norm-conserving, Zval =  4.0
     Generated by new atomic code, or converted to UPF format
     Using radial grid of 1557 points,  2 beta functions with: 
                l(1) =   0
                l(2) =   1

     atomic species   valence    mass     pseudopotential
        Ge             4.00    72.64000     Ge( 1.00)

     48 Sym. Ops., with inversion, found (24 have fractional translation)



   Cartesian axes

     site n.     atom                  positions (alat units)
         1           Ge  tau(   1) = (   0.0000000   0.0000000   0.0000000  )
         2           Ge  tau(   2) = (   0.2500000   0.2500000   0.2500000  )

     number of k points=    47
                       cart. coord. in units 2pi/alat
        k(    1) = (   0.0000000   0.0000000   0.0000000), wk =   0.0020000
        k(    2) = (  -0.1000000   0.1000000  -0.1000000), wk =   0.0160000
        k(    3) = (  -0.2000000   0.2000000  -0.2000000), wk =   0.0160000
        k(    4) = (  -0.3000000   0.3000000  -0.3000000), wk =   0.0160000
        k(    5) = (  -0.4000000   0.4000000  -0.4000000), wk =   0.0160000
        k(    6) = (   0.5000000  -0.5000000   0.5000000), wk =   0.0080000
        k(    7) = (   0.0000000   0.2000000   0.0000000), wk =   0.0120000
        k(    8) = (  -0.1000000   0.3000000  -0.1000000), wk =   0.0480000
        k(    9) = (  -0.2000000   0.4000000  -0.2000000), wk =   0.0480000
        k(   10) = (  -0.3000000   0.5000000  -0.3000000), wk =   0.0480000
        k(   11) = (   0.6000000  -0.4000000   0.6000000), wk =   0.0480000
        k(   12) = (   0.5000000  -0.3000000   0.5000000), wk =   0.0480000
        k(   13) = (   0.4000000  -0.2000000   0.4000000), wk =   0.0480000
        k(   14) = (   0.3000000  -0.1000000   0.3000000), wk =   0.0480000
        k(   15) = (   0.2000000   0.0000000   0.2000000), wk =   0.0240000
        k(   16) = (   0.0000000   0.4000000   0.0000000), wk =   0.0120000
        k(   17) = (  -0.1000000   0.5000000  -0.1000000), wk =   0.0480000
        k(   18) = (  -0.2000000   0.6000000  -0.2000000), wk =   0.0480000
        k(   19) = (   0.7000000  -0.3000000   0.7000000), wk =   0.0480000
        k(   20) = (   0.6000000  -0.2000000   0.6000000), wk =   0.0480000
        k(   21) = (   0.5000000  -0.1000000   0.5000000), wk =   0.0480000
        k(   22) = (   0.4000000   0.0000000   0.4000000), wk =   0.0240000
        k(   23) = (   0.0000000   0.6000000   0.0000000), wk =   0.0120000
        k(   24) = (  -0.1000000   0.7000000  -0.1000000), wk =   0.0480000
        k(   25) = (   0.8000000  -0.2000000   0.8000000), wk =   0.0480000
        k(   26) = (   0.7000000  -0.1000000   0.7000000), wk =   0.0480000
        k(   27) = (   0.6000000  -0.0000000   0.6000000), wk =   0.0240000
        k(   28) = (   0.0000000   0.8000000   0.0000000), wk =   0.0120000
        k(   29) = (   0.9000000  -0.1000000   0.9000000), wk =   0.0480000
        k(   30) = (   0.8000000   0.0000000   0.8000000), wk =   0.0240000
        k(   31) = (   0.0000000  -1.0000000   0.0000000), wk =   0.0060000
        k(   32) = (  -0.2000000   0.4000000   0.0000000), wk =   0.0480000
        k(   33) = (  -0.3000000   0.5000000  -0.1000000), wk =   0.0960000
        k(   34) = (   0.6000000  -0.4000000   0.8000000), wk =   0.0960000
        k(   35) = (   0.5000000  -0.3000000   0.7000000), wk =   0.0480000
        k(   36) = (  -0.2000000   0.6000000   0.0000000), wk =   0.0480000
        k(   37) = (   0.7000000  -0.3000000   0.9000000), wk =   0.0960000
        k(   38) = (   0.6000000  -0.2000000   0.8000000), wk =   0.0960000
        k(   39) = (   0.5000000  -0.1000000   0.7000000), wk =   0.0960000
        k(   40) = (   0.4000000   0.0000000   0.6000000), wk =   0.0480000
        k(   41) = (   0.8000000  -0.2000000   1.0000000), wk =   0.0480000
        k(   42) = (   0.7000000  -0.1000000   0.9000000), wk =   0.0960000
        k(   43) = (   0.6000000   0.0000000   0.8000000), wk =   0.0480000
        k(   44) = (  -0.2000000  -1.0000000   0.0000000), wk =   0.0240000
        k(   45) = (   0.6000000  -0.2000000   1.0000000), wk =   0.0480000
        k(   46) = (   0.5000000  -0.1000000   0.9000000), wk =   0.0480000
        k(   47) = (  -0.4000000  -1.0000000   0.0000000), wk =   0.0240000

     Dense  grid:    12627 G-vectors     FFT dimensions: (  36,  36,  36)

     Estimated max dynamical RAM per process >      24.58 MB

     WARNING: libxc functional with ID  263 depends
      on external parameters: check the user_guide of
      QE if you need to modify them or to check their
      default values.

     Initial potential from superposition of free atoms

     starting charge       7.9987, renormalised to       8.0000
     Starting wfcs are   18 randomized atomic wfcs

     total cpu time spent up to now is        9.2 secs

     Self-consistent Calculation

     iteration #  1     ecut=    50.00 Ry     beta= 0.01
     Davidson diagonalization with overlap
     ethr =  1.00E-02,  avg # of iterations =  1.9

     Threshold (ethr) on eigenvalues was too large:
     Diagonalizing with lowered threshold

     Davidson diagonalization with overlap
     ethr =  4.68E-04,  avg # of iterations =  6.1

     total cpu time spent up to now is       28.0 secs

     total energy              =     -15.70159164 Ry
     estimated scf accuracy    <       0.04649012 Ry

     iteration #  2     ecut=    50.00 Ry     beta= 0.01
     Davidson diagonalization with overlap
     ethr =  5.81E-04,  avg # of iterations =  1.0

     total cpu time spent up to now is       33.1 secs

     total energy              =     -15.76490949 Ry
     estimated scf accuracy    <       0.04633009 Ry

     iteration #  3     ecut=    50.00 Ry     beta= 0.01
     Davidson diagonalization with overlap
     ethr =  5.79E-04,  avg # of iterations =  1.5

     total cpu time spent up to now is       38.3 secs

     total energy              =     -15.80380245 Ry
     estimated scf accuracy    <       0.03172664 Ry

     iteration #  4     ecut=    50.00 Ry     beta= 0.01
     Davidson diagonalization with overlap
     ethr =  3.97E-04,  avg # of iterations =  1.3

     total cpu time spent up to now is       43.6 secs

     total energy              =     -15.80597197 Ry
     estimated scf accuracy    <       0.00424805 Ry

     iteration #  5     ecut=    50.00 Ry     beta= 0.01
     Davidson diagonalization with overlap
     ethr =  5.31E-05,  avg # of iterations =  6.8

     total cpu time spent up to now is       53.6 secs

     total energy              =     -15.80944416 Ry
     estimated scf accuracy    <       0.00682775 Ry

     iteration #  6     ecut=    50.00 Ry     beta= 0.01
     Davidson diagonalization with overlap
     ethr =  5.31E-05,  avg # of iterations =  1.5

     total cpu time spent up to now is       58.5 secs

     total energy              =     -15.80795476 Ry
     estimated scf accuracy    <       0.00470531 Ry

     iteration #  7     ecut=    50.00 Ry     beta= 0.01
     Davidson diagonalization with overlap
     ethr =  5.31E-05,  avg # of iterations =  1.8

     total cpu time spent up to now is       62.3 secs

     total energy              =     -15.80850477 Ry
     estimated scf accuracy    <       0.00016302 Ry

     iteration #  8     ecut=    50.00 Ry     beta= 0.01
     Davidson diagonalization with overlap
     c_bands:  3 eigenvalues not converged
     c_bands:  1 eigenvalues not converged
     c_bands:  1 eigenvalues not converged
     ethr =  2.04E-06,  avg # of iterations = 12.9

     total cpu time spent up to now is       80.9 secs

     total energy              =     -15.80932622 Ry
     estimated scf accuracy    <       0.00018797 Ry

     iteration #  9     ecut=    50.00 Ry     beta= 0.01
     Davidson diagonalization with overlap
     ethr =  2.04E-06,  avg # of iterations =  1.6

     total cpu time spent up to now is       85.0 secs

     total energy              =     -15.80926145 Ry
     estimated scf accuracy    <       0.00021656 Ry

     iteration # 10     ecut=    50.00 Ry     beta= 0.01
     Davidson diagonalization with overlap
     ethr =  2.04E-06,  avg # of iterations =  2.4

     total cpu time spent up to now is       89.5 secs

     total energy              =     -15.80929518 Ry
     estimated scf accuracy    <       0.00001739 Ry

     iteration # 11     ecut=    50.00 Ry     beta= 0.01
     Davidson diagonalization with overlap
     ethr =  2.17E-07,  avg # of iterations =  9.7

     total cpu time spent up to now is      100.4 secs

     total energy              =     -15.80933126 Ry
     estimated scf accuracy    <       0.00003090 Ry

     iteration # 12     ecut=    50.00 Ry     beta= 0.01
     Davidson diagonalization with overlap
     ethr =  2.17E-07,  avg # of iterations =  1.3

     total cpu time spent up to now is      103.5 secs

     total energy              =     -15.80933893 Ry
     estimated scf accuracy    <       0.00002414 Ry

     iteration # 13     ecut=    50.00 Ry     beta= 0.01
     Davidson diagonalization with overlap
     ethr =  2.17E-07,  avg # of iterations =  2.9

     total cpu time spent up to now is      107.7 secs

     End of self-consistent calculation

          k = 0.0000 0.0000 0.0000 (  1591 PWs)   bands (ev):

    -7.0108   7.0317   7.0317   7.0317

          k =-0.1000 0.1000-0.1000 (  1570 PWs)   bands (ev):

    -6.8704   5.4256   6.7669   6.7669

          k =-0.2000 0.2000-0.2000 (  1576 PWs)   bands (ev):

    -6.4559   3.1606   6.2629   6.2629

          k =-0.3000 0.3000-0.3000 (  1600 PWs)   bands (ev):

    -5.7974   1.0877   5.8185   5.8185

          k =-0.4000 0.4000-0.4000 (  1586 PWs)   bands (ev):

    -5.0065  -0.5734   5.5343   5.5343

          k = 0.5000-0.5000 0.5000 (  1568 PWs)   bands (ev):

    -4.5421  -1.3306   5.4378   5.4378

          k = 0.0000 0.2000 0.0000 (  1571 PWs)   bands (ev):

    -6.8232   5.5714   6.2950   6.2951

          k =-0.1000 0.3000-0.1000 (  1575 PWs)   bands (ev):

    -6.4985   3.7692   5.7424   5.8910

          k =-0.2000 0.4000-0.2000 (  1584 PWs)   bands (ev):

    -5.9156   1.7256   5.3287   5.3318

          k =-0.3000 0.5000-0.3000 (  1590 PWs)   bands (ev):

    -5.1442  -0.0550   4.8215   5.1262

          k = 0.6000-0.4000 0.6000 (  1581 PWs)   bands (ev):

    -4.4773  -1.1906   4.4738   5.1504

          k = 0.5000-0.3000 0.5000 (  1585 PWs)   bands (ev):

    -4.6489  -0.9226   4.3340   5.3897

          k = 0.4000-0.2000 0.4000 (  1586 PWs)   bands (ev):

    -5.4157   0.4989   4.4307   5.8098

          k = 0.3000-0.1000 0.3000 (  1585 PWs)   bands (ev):

    -6.1382   2.3789   4.7975   6.3345

          k = 0.2000 0.0000 0.2000 (  1568 PWs)   bands (ev):

    -6.6380   4.2752   5.5733   6.7728

          k = 0.0000 0.4000 0.0000 (  1571 PWs)   bands (ev):

    -6.2635   3.4445   5.1560   5.1560

          k =-0.1000 0.5000-0.1000 (  1591 PWs)   bands (ev):

    -5.7624   2.0098   4.5153   4.7193

          k =-0.2000 0.6000-0.2000 (  1598 PWs)   bands (ev):

    -5.0380   0.3962   3.7581   4.5104

          k = 0.7000-0.3000 0.7000 (  1587 PWs)   bands (ev):

    -4.2660  -0.9017   3.1599   4.5510

          k = 0.6000-0.2000 0.6000 (  1572 PWs)   bands (ev):

    -4.1107  -1.1209   2.8250   4.8330

          k = 0.5000-0.1000 0.5000 (  1583 PWs)   bands (ev):

    -4.7965  -0.0509   2.8323   5.3163

          k = 0.4000 0.0000 0.4000 (  1580 PWs)   bands (ev):

    -5.5636   1.3410   3.3892   5.8988

          k = 0.0000 0.6000 0.0000 (  1588 PWs)   bands (ev):

    -5.3419   1.3293   4.2381   4.2381

          k =-0.1000 0.7000-0.1000 (  1592 PWs)   bands (ev):

    -4.6796   0.1795   3.5231   3.9817

          k = 0.8000-0.2000 0.8000 (  1597 PWs)   bands (ev):

    -3.8757  -0.9431   2.5987   3.9817

          k = 0.7000-0.1000 0.7000 (  1587 PWs)   bands (ev):

    -3.4445  -1.4485   1.9865   4.2367

          k = 0.6000-0.0000 0.6000 (  1582 PWs)   bands (ev):

    -4.0187  -0.7946   1.9634   4.7131

          k = 0.0000 0.8000 0.0000 (  1604 PWs)   bands (ev):

    -4.0784  -0.6806   3.6642   3.6642

          k = 0.9000-0.1000 0.9000 (  1596 PWs)   bands (ev):

    -3.2855  -1.6258   3.0300   3.6017

          k = 0.8000 0.0000 0.8000 (  1596 PWs)   bands (ev):

    -2.7945  -2.0790   2.1917   3.8007

          k = 0.0000-1.0000 0.0000 (  1588 PWs)   bands (ev):

    -2.5069  -2.5069   3.4700   3.4701

          k =-0.2000 0.4000 0.0000 (  1583 PWs)   bands (ev):

    -6.0866   2.6221   4.4592   5.7428

          k =-0.3000 0.5000-0.1000 (  1582 PWs)   bands (ev):

    -5.4306   1.0120   3.7294   5.2863

          k = 0.6000-0.4000 0.8000 (  1587 PWs)   bands (ev):

    -4.6369  -0.4995   3.4209   4.8690

          k = 0.5000-0.3000 0.7000 (  1578 PWs)   bands (ev):

    -4.1619  -1.2289   3.3372   4.7070

          k =-0.2000 0.6000 0.0000 (  1587 PWs)   bands (ev):

    -5.1828   0.9389   3.5905   4.4182

          k = 0.7000-0.3000 0.9000 (  1594 PWs)   bands (ev):

    -4.4100  -0.3019   2.8718   4.0426

          k = 0.6000-0.2000 0.8000 (  1585 PWs)   bands (ev):

    -3.7267  -1.2336   2.4015   3.9765

          k = 0.5000-0.1000 0.7000 (  1578 PWs)   bands (ev):

    -3.9400  -0.9541   2.2462   4.2539

          k = 0.4000 0.0000 0.6000 (  1590 PWs)   bands (ev):

    -4.7222   0.0980   2.6046   4.7686

          k = 0.8000-0.2000 1.0000 (  1593 PWs)   bands (ev):

    -3.9554  -0.7840   3.1030   3.4828

          k = 0.7000-0.1000 0.9000 (  1592 PWs)   bands (ev):

    -3.1642  -1.6513   2.3476   3.3786

          k = 0.6000 0.0000 0.8000 (  1590 PWs)   bands (ev):

    -3.1890  -1.6052   1.8963   3.6911

          k =-0.2000-1.0000 0.0000 (  1594 PWs)   bands (ev):

    -2.4582  -2.4582   3.0524   3.0524

          k = 0.6000-0.2000 1.0000 (  1586 PWs)   bands (ev):

    -3.6221  -1.1170   2.2779   3.4009

          k = 0.5000-0.1000 0.9000 (  1592 PWs)   bands (ev):

    -3.0778  -1.6823   2.1087   3.1182

          k =-0.4000-1.0000 0.0000 (  1598 PWs)   bands (ev):

    -2.3739  -2.3739   2.5193   2.5194

     highest occupied level (ev):     7.0317

!    total energy              =     -15.80934291 Ry
     estimated scf accuracy    <       0.00000086 Ry

     The total energy is the sum of the following terms:
     one-electron contribution =       4.82268252 Ry
     hartree contribution      =       1.07558930 Ry
     xc contribution           =      -4.81646730 Ry
     ewald contribution        =     -16.89114744 Ry

     convergence has been achieved in  13 iterations
     Writing meta-gga kinetic term

     Writing all to output data dir ./input_pw/Ge/3/pwscf.save/
     Writing meta-gga kinetic term
 
     init_run     :      4.30s CPU      9.15s WALL (       1 calls)
     electrons    :     61.49s CPU     98.48s WALL (       1 calls)

     Called by init_run:
     wfcinit      :      4.18s CPU      8.62s WALL (       1 calls)
     potinit      :      0.04s CPU      0.10s WALL (       1 calls)
     hinit0       :      0.07s CPU      0.31s WALL (       1 calls)

     Called by electrons:
     c_bands      :     53.12s CPU     84.74s WALL (      14 calls)
     sum_band     :      7.62s CPU     12.50s WALL (      14 calls)
     v_of_rho     :      0.45s CPU      0.80s WALL (      14 calls)
     mix_rho      :      0.31s CPU      0.47s WALL (      14 calls)

     Called by c_bands:
     init_us_2    :      0.29s CPU      0.46s WALL (    1363 calls)
     init_us_2:cp :      0.29s CPU      0.45s WALL (    1363 calls)
     cegterg      :     52.77s CPU     84.28s WALL (     658 calls)

     Called by *egterg:
     cdiaghg      :      0.25s CPU      0.42s WALL (    3084 calls)
     h_psi        :     55.73s CPU     90.92s WALL (    3178 calls)
     g_psi        :      0.04s CPU      0.07s WALL (    2473 calls)

     Called by h_psi:
     h_psi:calbec :      0.25s CPU      0.53s WALL (    3178 calls)
     vloc_psi     :     13.87s CPU     22.69s WALL (    3178 calls)
     add_vuspsi   :      0.16s CPU      0.25s WALL (    3178 calls)
     h_psi_meta   :     41.37s CPU     67.36s WALL (    3178 calls)

     General routines
     calbec       :      0.23s CPU      0.51s WALL (    3178 calls)
     fft          :      0.10s CPU      0.36s WALL (     167 calls)
     ffts         :      0.13s CPU      0.17s WALL (     222 calls)
     fftw         :     52.88s CPU     87.13s WALL (   98240 calls)
     interpolate  :      0.00s CPU      0.00s WALL (      14 calls)
 
     Parallel routines
 
     PWSCF        :   1m 5.83s CPU   1m47.70s WALL

 
   This run was terminated on:  11:38:47  14Mar2023            

=------------------------------------------------------------------------------=
   JOB DONE.
=------------------------------------------------------------------------------=
