
     Program PWSCF v.7.0 starts on 14Mar2023 at 12: 2:31 

     This program is part of the open-source Quantum ESPRESSO suite
     for quantum simulation of materials; please cite
         "P. Giannozzi et al., J. Phys.:Condens. Matter 21 395502 (2009);
         "P. Giannozzi et al., J. Phys.:Condens. Matter 29 465901 (2017);
         "P. Giannozzi et al., J. Chem. Phys. 152 154105 (2020);
          URL http://www.quantum-espresso.org", 
     in publications or presentations arising from this work. More details at
     http://www.quantum-espresso.org/quote

     Parallel version (MPI), running on     1 processors

     MPI processes distributed on     1 nodes
     27411 MiB available memory on the printing compute node when the environment starts
 
     Waiting for input...
     Reading input from standard input
Warning: card &CELL ignored
Warning: card / ignored

     Current dimensions of program PWSCF are:
     Max number of different atomic species (ntypx) = 10
     Max number of k-points (npk) =  40000
     Max angular momentum in pseudopotentials (lmaxx) =  4
     file Si.SCAN.UPF2: wavefunction(s)  0D renormalized

     WARNING: the MGGA functional with ID    5 has been 
     read together with other dft terms, but it should 
     stand alone in order to work properly. The other 
     terms will be ignored.

     WARNING: the MGGA functional with ID    5 has been 
     read together with other dft terms, but it should 
     stand alone in order to work properly. The other 
     terms will be ignored.

     Subspace diagonalization in iterative solution of the eigenvalue problem:
     a serial algorithm will be used

 
     G-vector sticks info
     --------------------
     sticks:   dense  smooth     PW     G-vecs:    dense   smooth      PW
     Sum         349     349    121                 4279     4279     869
 
     Using Slab Decomposition
 


     bravais-lattice index     =            2
     lattice parameter (alat)  =       7.1000  a.u.
     unit-cell volume          =      89.4777 (a.u.)^3
     number of atoms/cell      =            2
     number of atomic types    =            2
     number of electrons       =         8.00
     number of Kohn-Sham states=            4
     kinetic-energy cutoff     =      50.0000  Ry
     charge density cutoff     =     200.0000  Ry
     scf convergence threshold =      1.0E-06
     mixing beta               =       0.0100
     number of iterations used =            8  local-TF  mixing
     Exchange-correlation= SLA  PW   SCAN SCAN
                           (   0   0   0   0   0 263 267)

     celldm(1)=   7.100000  celldm(2)=   0.000000  celldm(3)=   0.000000
     celldm(4)=   0.000000  celldm(5)=   0.000000  celldm(6)=   0.000000

     crystal axes: (cart. coord. in units of alat)
               a(1) = (  -0.500000   0.000000   0.500000 )  
               a(2) = (   0.000000   0.500000   0.500000 )  
               a(3) = (  -0.500000   0.500000   0.000000 )  

     reciprocal axes: (cart. coord. in units 2 pi/alat)
               b(1) = ( -1.000000 -1.000000  1.000000 )  
               b(2) = (  1.000000  1.000000  1.000000 )  
               b(3) = ( -1.000000  1.000000 -1.000000 )  


     PseudoPot. # 1 for Si read from file:
     ~/Documents/TA/PWDFT.jl/pseudopotentials/scan_upf/Si.SCAN.UPF2
     MD5 check sum: Not computed, couldn't open file
     Pseudo is Norm-conserving, Zval =  4.0
     Generated by new atomic code, or converted to UPF format
     Using radial grid of 1475 points,  2 beta functions with: 
                l(1) =   0
                l(2) =   1

     PseudoPot. # 2 for C  read from file:
     ~/Documents/TA/PWDFT.jl/pseudopotentials/scan_upf/C.SCAN.UPF2
     MD5 check sum: Not computed, couldn't open file
     Pseudo is Norm-conserving, Zval =  4.0
     Generated by new atomic code, or converted to UPF format
     Using radial grid of 1389 points,  1 beta functions with: 
                l(1) =   0

     atomic species   valence    mass     pseudopotential
        Si             4.00    28.08550     Si( 1.00)
        C              4.00    12.01100     C ( 1.00)

     24 Sym. Ops. (no inversion) found



   Cartesian axes

     site n.     atom                  positions (alat units)
         1           Si  tau(   1) = (   0.0000000   0.0000000   0.0000000  )
         2           C   tau(   2) = (   0.2500000   0.2500000   0.2500000  )

     number of k points=    47
                       cart. coord. in units 2pi/alat
        k(    1) = (   0.0000000   0.0000000   0.0000000), wk =   0.0020000
        k(    2) = (  -0.1000000   0.1000000  -0.1000000), wk =   0.0160000
        k(    3) = (  -0.2000000   0.2000000  -0.2000000), wk =   0.0160000
        k(    4) = (  -0.3000000   0.3000000  -0.3000000), wk =   0.0160000
        k(    5) = (  -0.4000000   0.4000000  -0.4000000), wk =   0.0160000
        k(    6) = (   0.5000000  -0.5000000   0.5000000), wk =   0.0080000
        k(    7) = (   0.0000000   0.2000000   0.0000000), wk =   0.0120000
        k(    8) = (  -0.1000000   0.3000000  -0.1000000), wk =   0.0480000
        k(    9) = (  -0.2000000   0.4000000  -0.2000000), wk =   0.0480000
        k(   10) = (  -0.3000000   0.5000000  -0.3000000), wk =   0.0480000
        k(   11) = (   0.6000000  -0.4000000   0.6000000), wk =   0.0480000
        k(   12) = (   0.5000000  -0.3000000   0.5000000), wk =   0.0480000
        k(   13) = (   0.4000000  -0.2000000   0.4000000), wk =   0.0480000
        k(   14) = (   0.3000000  -0.1000000   0.3000000), wk =   0.0480000
        k(   15) = (   0.2000000   0.0000000   0.2000000), wk =   0.0240000
        k(   16) = (   0.0000000   0.4000000   0.0000000), wk =   0.0120000
        k(   17) = (  -0.1000000   0.5000000  -0.1000000), wk =   0.0480000
        k(   18) = (  -0.2000000   0.6000000  -0.2000000), wk =   0.0480000
        k(   19) = (   0.7000000  -0.3000000   0.7000000), wk =   0.0480000
        k(   20) = (   0.6000000  -0.2000000   0.6000000), wk =   0.0480000
        k(   21) = (   0.5000000  -0.1000000   0.5000000), wk =   0.0480000
        k(   22) = (   0.4000000   0.0000000   0.4000000), wk =   0.0240000
        k(   23) = (   0.0000000   0.6000000   0.0000000), wk =   0.0120000
        k(   24) = (  -0.1000000   0.7000000  -0.1000000), wk =   0.0480000
        k(   25) = (   0.8000000  -0.2000000   0.8000000), wk =   0.0480000
        k(   26) = (   0.7000000  -0.1000000   0.7000000), wk =   0.0480000
        k(   27) = (   0.6000000  -0.0000000   0.6000000), wk =   0.0240000
        k(   28) = (   0.0000000   0.8000000   0.0000000), wk =   0.0120000
        k(   29) = (   0.9000000  -0.1000000   0.9000000), wk =   0.0480000
        k(   30) = (   0.8000000   0.0000000   0.8000000), wk =   0.0240000
        k(   31) = (   0.0000000  -1.0000000   0.0000000), wk =   0.0060000
        k(   32) = (  -0.2000000   0.4000000   0.0000000), wk =   0.0480000
        k(   33) = (  -0.3000000   0.5000000  -0.1000000), wk =   0.0960000
        k(   34) = (   0.6000000  -0.4000000   0.8000000), wk =   0.0960000
        k(   35) = (   0.5000000  -0.3000000   0.7000000), wk =   0.0480000
        k(   36) = (  -0.2000000   0.6000000   0.0000000), wk =   0.0480000
        k(   37) = (   0.7000000  -0.3000000   0.9000000), wk =   0.0960000
        k(   38) = (   0.6000000  -0.2000000   0.8000000), wk =   0.0960000
        k(   39) = (   0.5000000  -0.1000000   0.7000000), wk =   0.0960000
        k(   40) = (   0.4000000   0.0000000   0.6000000), wk =   0.0480000
        k(   41) = (   0.8000000  -0.2000000   1.0000000), wk =   0.0480000
        k(   42) = (   0.7000000  -0.1000000   0.9000000), wk =   0.0960000
        k(   43) = (   0.6000000   0.0000000   0.8000000), wk =   0.0480000
        k(   44) = (  -0.2000000  -1.0000000   0.0000000), wk =   0.0240000
        k(   45) = (   0.6000000  -0.2000000   1.0000000), wk =   0.0480000
        k(   46) = (   0.5000000  -0.1000000   0.9000000), wk =   0.0480000
        k(   47) = (  -0.4000000  -1.0000000   0.0000000), wk =   0.0240000

     Dense  grid:     4279 G-vectors     FFT dimensions: (  24,  24,  24)

     Estimated max dynamical RAM per process >       8.36 MB

     WARNING: libxc functional with ID  263 depends
      on external parameters: check the user_guide of
      QE if you need to modify them or to check their
      default values.

     Initial potential from superposition of free atoms

     starting charge       7.9995, renormalised to       8.0000
     Starting wfcs are   13 randomized atomic wfcs

     total cpu time spent up to now is        2.1 secs

     Self-consistent Calculation

     iteration #  1     ecut=    50.00 Ry     beta= 0.01
     Davidson diagonalization with overlap
     ethr =  1.00E-02,  avg # of iterations =  2.0

     total cpu time spent up to now is        4.2 secs

     total energy              =     -19.17635794 Ry
     estimated scf accuracy    <       3.56358797 Ry

     iteration #  2     ecut=    50.00 Ry     beta= 0.01
     Davidson diagonalization with overlap
     ethr =  1.00E-02,  avg # of iterations =  1.0

     total cpu time spent up to now is        5.8 secs

     total energy              =     -19.00389997 Ry
     estimated scf accuracy    <       3.46704836 Ry

     iteration #  3     ecut=    50.00 Ry     beta= 0.01
     Davidson diagonalization with overlap
     ethr =  1.00E-02,  avg # of iterations =  1.0

     total cpu time spent up to now is        7.3 secs

     total energy              =     -19.00917858 Ry
     estimated scf accuracy    <       0.28430282 Ry

     iteration #  4     ecut=    50.00 Ry     beta= 0.01
     Davidson diagonalization with overlap
     ethr =  3.55E-03,  avg # of iterations =  1.0

     total cpu time spent up to now is        8.8 secs

     total energy              =     -19.02584419 Ry
     estimated scf accuracy    <       0.06602592 Ry

     iteration #  5     ecut=    50.00 Ry     beta= 0.01
     Davidson diagonalization with overlap
     ethr =  8.25E-04,  avg # of iterations =  1.0

     total cpu time spent up to now is       10.5 secs

     total energy              =     -19.04758662 Ry
     estimated scf accuracy    <       0.05811997 Ry

     iteration #  6     ecut=    50.00 Ry     beta= 0.01
     Davidson diagonalization with overlap
     ethr =  7.26E-04,  avg # of iterations =  1.0

     total cpu time spent up to now is       12.2 secs

     total energy              =     -19.02502909 Ry
     estimated scf accuracy    <       0.22101481 Ry

     iteration #  7     ecut=    50.00 Ry     beta= 0.01
     Davidson diagonalization with overlap
     ethr =  7.26E-04,  avg # of iterations =  2.0

     total cpu time spent up to now is       14.5 secs

     total energy              =     -19.03953333 Ry
     estimated scf accuracy    <       0.00144543 Ry

     iteration #  8     ecut=    50.00 Ry     beta= 0.01
     Davidson diagonalization with overlap
     ethr =  1.81E-05,  avg # of iterations =  2.4

     total cpu time spent up to now is       16.8 secs

     total energy              =     -19.04035261 Ry
     estimated scf accuracy    <       0.00840808 Ry

     iteration #  9     ecut=    50.00 Ry     beta= 0.01
     Davidson diagonalization with overlap
     ethr =  1.81E-05,  avg # of iterations =  1.0

     total cpu time spent up to now is       18.6 secs

     total energy              =     -19.03970370 Ry
     estimated scf accuracy    <       0.01187275 Ry

     iteration # 10     ecut=    50.00 Ry     beta= 0.01
     Davidson diagonalization with overlap
     ethr =  1.81E-05,  avg # of iterations =  2.0

     total cpu time spent up to now is       20.6 secs

     total energy              =     -19.04013216 Ry
     estimated scf accuracy    <       0.00007809 Ry

     iteration # 11     ecut=    50.00 Ry     beta= 0.01
     Davidson diagonalization with overlap
     ethr =  9.76E-07,  avg # of iterations =  2.8

     total cpu time spent up to now is       22.9 secs

     total energy              =     -19.04015421 Ry
     estimated scf accuracy    <       0.00077895 Ry

     iteration # 12     ecut=    50.00 Ry     beta= 0.01
     Davidson diagonalization with overlap
     ethr =  9.76E-07,  avg # of iterations =  1.0

     total cpu time spent up to now is       24.4 secs

     total energy              =     -19.04015141 Ry
     estimated scf accuracy    <       0.00049997 Ry

     iteration # 13     ecut=    50.00 Ry     beta= 0.01
     Davidson diagonalization with overlap
     ethr =  9.76E-07,  avg # of iterations =  1.0

     total cpu time spent up to now is       26.0 secs

     total energy              =     -19.04008628 Ry
     estimated scf accuracy    <       0.00046093 Ry

     iteration # 14     ecut=    50.00 Ry     beta= 0.01
     Davidson diagonalization with overlap
     ethr =  9.76E-07,  avg # of iterations =  2.0

     total cpu time spent up to now is       28.3 secs

     total energy              =     -19.04015331 Ry
     estimated scf accuracy    <       0.00001881 Ry

     iteration # 15     ecut=    50.00 Ry     beta= 0.01
     Davidson diagonalization with overlap
     ethr =  2.35E-07,  avg # of iterations =  3.0

     total cpu time spent up to now is       31.1 secs

     total energy              =     -19.04013118 Ry
     estimated scf accuracy    <       0.00088330 Ry

     iteration # 16     ecut=    50.00 Ry     beta= 0.01
     Davidson diagonalization with overlap
     ethr =  2.35E-07,  avg # of iterations =  2.0

     total cpu time spent up to now is       33.4 secs

     total energy              =     -19.04009792 Ry
     estimated scf accuracy    <       0.00026908 Ry

     iteration # 17     ecut=    50.00 Ry     beta= 0.01
     Davidson diagonalization with overlap
     ethr =  2.35E-07,  avg # of iterations =  3.3

     total cpu time spent up to now is       36.3 secs

     total energy              =     -19.04013058 Ry
     estimated scf accuracy    <       0.00023536 Ry

     iteration # 18     ecut=    50.00 Ry     beta= 0.01
     Davidson diagonalization with overlap
     ethr =  2.35E-07,  avg # of iterations =  1.0

     total cpu time spent up to now is       37.9 secs

     total energy              =     -19.04014423 Ry
     estimated scf accuracy    <       0.00010992 Ry

     iteration # 19     ecut=    50.00 Ry     beta= 0.01
     Davidson diagonalization with overlap
     ethr =  2.35E-07,  avg # of iterations =  1.0

     total cpu time spent up to now is       39.5 secs

     total energy              =     -19.04011228 Ry
     estimated scf accuracy    <       0.00018871 Ry

     iteration # 20     ecut=    50.00 Ry     beta= 0.01
     Davidson diagonalization with overlap
     ethr =  2.35E-07,  avg # of iterations =  2.2

     total cpu time spent up to now is       41.9 secs

     total energy              =     -19.04012384 Ry
     estimated scf accuracy    <       0.00000332 Ry

     iteration # 21     ecut=    50.00 Ry     beta= 0.01
     Davidson diagonalization with overlap
     ethr =  4.15E-08,  avg # of iterations =  1.0

     total cpu time spent up to now is       43.7 secs

     End of self-consistent calculation

          k = 0.0000 0.0000 0.0000 (   531 PWs)   bands (ev):

    -4.3464  15.7352  15.7352  15.7352

          k =-0.1000 0.1000-0.1000 (   534 PWs)   bands (ev):

    -4.0643  14.5963  15.5989  15.5989

          k =-0.2000 0.2000-0.2000 (   537 PWs)   bands (ev):

    -3.2262  11.9572  15.2816  15.2816

          k =-0.3000 0.3000-0.3000 (   537 PWs)   bands (ev):

    -1.8643   8.8652  14.9461  14.9461

          k =-0.4000 0.4000-0.4000 (   547 PWs)   bands (ev):

    -0.0869   5.9198  14.7078  14.7078

          k = 0.5000-0.5000 0.5000 (   544 PWs)   bands (ev):

     1.2698   4.1551  14.6283  14.6283

          k = 0.0000 0.2000 0.0000 (   532 PWs)   bands (ev):

    -3.9703  15.0482  15.1490  15.1490

          k =-0.1000 0.3000-0.1000 (   544 PWs)   bands (ev):

    -3.3178  12.9424  14.6235  15.1437

          k =-0.2000 0.4000-0.2000 (   535 PWs)   bands (ev):

    -2.1295  10.0377  14.2339  14.7867

          k =-0.3000 0.5000-0.3000 (   532 PWs)   bands (ev):

    -0.4766   7.0533  14.0864  14.2599

          k = 0.6000-0.4000 0.6000 (   537 PWs)   bands (ev):

     1.2540   4.6691  13.7731  14.2117

          k = 0.5000-0.3000 0.5000 (   538 PWs)   bands (ev):

     0.7448   5.3121  13.4749  14.5641

          k = 0.4000-0.2000 0.4000 (   539 PWs)   bands (ev):

    -1.0711   8.0243  13.4529  15.0491

          k = 0.3000-0.1000 0.3000 (   540 PWs)   bands (ev):

    -2.5831  11.0160  13.7550  15.5110

          k = 0.2000 0.0000 0.2000 (   537 PWs)   bands (ev):

    -3.5968  13.5141  14.5098  15.7430

          k = 0.0000 0.4000 0.0000 (   536 PWs)   bands (ev):

    -2.8546  13.3488  13.9027  13.9027

          k =-0.1000 0.5000-0.1000 (   535 PWs)   bands (ev):

    -1.8534  11.1995  13.3748  13.5781

          k =-0.2000 0.6000-0.2000 (   533 PWs)   bands (ev):

    -0.3671   8.4919  12.7594  13.1627

          k = 0.7000-0.3000 0.7000 (   532 PWs)   bands (ev):

     1.3895   5.9671  11.8457  13.3065

          k = 0.6000-0.2000 0.6000 (   531 PWs)   bands (ev):

     1.8544   5.3958  11.1878  13.7750

          k = 0.5000-0.1000 0.5000 (   539 PWs)   bands (ev):

     0.2001   7.5988  10.9794  14.4620

          k = 0.4000 0.0000 0.4000 (   532 PWs)   bands (ev):

    -1.4144   9.9047  11.6694  15.1580

          k = 0.0000 0.6000 0.0000 (   548 PWs)   bands (ev):

    -1.0464  11.0069  12.6971  12.6971

          k =-0.1000 0.7000-0.1000 (   535 PWs)   bands (ev):

     0.2466   9.3155  11.6666  12.3631

          k = 0.8000-0.2000 0.8000 (   528 PWs)   bands (ev):

     1.8660   7.4211  10.0219  12.4193

          k = 0.7000-0.1000 0.7000 (   531 PWs)   bands (ev):

     2.9068   6.3407   8.8070  12.8566

          k = 0.6000-0.0000 0.6000 (   530 PWs)   bands (ev):

     1.7928   7.3225   8.7648  13.6031

          k = 0.0000 0.8000 0.0000 (   532 PWs)   bands (ev):

     1.3186   8.1650  11.8907  11.8907

          k = 0.9000-0.1000 0.9000 (   531 PWs)   bands (ev):

     2.6570   6.8905  10.6058  11.8177

          k = 0.8000 0.0000 0.8000 (   538 PWs)   bands (ev):

     3.4337   6.7418   8.5064  12.1537

          k = 0.0000-1.0000 0.0000 (   524 PWs)   bands (ev):

     3.2259   6.0374  11.6099  11.6099

          k =-0.2000 0.4000 0.0000 (   540 PWs)   bands (ev):

    -2.4899  11.7258  13.1678  14.9801

          k =-0.3000 0.5000-0.1000 (   533 PWs)   bands (ev):

    -1.1490   9.2809  12.3885  14.4753

          k = 0.6000-0.4000 0.8000 (   538 PWs)   bands (ev):

     0.5852   6.5508  12.2174  13.8205

          k = 0.5000-0.3000 0.7000 (   542 PWs)   bands (ev):

     1.8693   4.9012  12.2398  13.4967

          k =-0.2000 0.6000 0.0000 (   537 PWs)   bands (ev):

    -0.7020  10.0362  11.8879  13.1210

          k = 0.7000-0.3000 0.9000 (   534 PWs)   bands (ev):

     0.8742   7.9992  10.9842  12.3485

          k = 0.6000-0.2000 0.8000 (   535 PWs)   bands (ev):

     2.4282   6.0666  10.2713  12.2336

          k = 0.5000-0.1000 0.7000 (   533 PWs)   bands (ev):

     1.9726   6.6203   9.8036  12.7945

          k = 0.4000 0.0000 0.6000 (   533 PWs)   bands (ev):

     0.2967   8.4690  10.2637  13.6857

          k = 0.8000-0.2000 1.0000 (   524 PWs)   bands (ev):

     1.6097   8.1112  11.0310  11.2219

          k = 0.7000-0.1000 0.9000 (   530 PWs)   bands (ev):

     3.0342   7.1355   9.0673  11.2063

          k = 0.6000 0.0000 0.8000 (   529 PWs)   bands (ev):

     3.2158   7.3154   7.7837  11.8107

          k =-0.2000-1.0000 0.0000 (   528 PWs)   bands (ev):

     3.3847   6.3926  10.5568  10.7323

          k = 0.6000-0.2000 1.0000 (   539 PWs)   bands (ev):

     2.3880   7.6076   9.3283  11.0247

          k = 0.5000-0.1000 0.9000 (   530 PWs)   bands (ev):

     3.3353   7.0319   8.8436  10.4152

          k =-0.4000-1.0000 0.0000 (   526 PWs)   bands (ev):

     3.6863   7.4213   9.0098   9.2986

     highest occupied level (ev):    15.7430

!    total energy              =     -19.04012475 Ry
     estimated scf accuracy    <       0.00000042 Ry

     The total energy is the sum of the following terms:
     one-electron contribution =       9.96270688 Ry
     hartree contribution      =       2.09708823 Ry
     xc contribution           =      -6.82139343 Ry
     ewald contribution        =     -24.27852643 Ry

     convergence has been achieved in  21 iterations
     Writing meta-gga kinetic term

     Writing all to output data dir ./input_pw/SiC/1/pwscf.save/
     Writing meta-gga kinetic term
 
     init_run     :      0.90s CPU      1.93s WALL (       1 calls)
     electrons    :     16.51s CPU     41.61s WALL (       1 calls)

     Called by init_run:
     wfcinit      :      0.80s CPU      1.59s WALL (       1 calls)
     potinit      :      0.01s CPU      0.03s WALL (       1 calls)
     hinit0       :      0.09s CPU      0.30s WALL (       1 calls)

     Called by electrons:
     c_bands      :     13.46s CPU     33.66s WALL (      21 calls)
     sum_band     :      2.74s CPU      7.13s WALL (      21 calls)
     v_of_rho     :      0.19s CPU      0.51s WALL (      22 calls)
     mix_rho      :      0.13s CPU      0.30s WALL (      21 calls)

     Called by c_bands:
     init_us_2    :      0.15s CPU      0.41s WALL (    2021 calls)
     init_us_2:cp :      0.14s CPU      0.39s WALL (    2021 calls)
     cegterg      :     13.31s CPU     33.19s WALL (     987 calls)

     Called by *egterg:
     cdiaghg      :      0.14s CPU      0.30s WALL (    2623 calls)
     h_psi        :     13.69s CPU     33.82s WALL (    2670 calls)
     g_psi        :      0.01s CPU      0.01s WALL (    1636 calls)

     Called by h_psi:
     h_psi:calbec :      0.05s CPU      0.11s WALL (    2670 calls)
     vloc_psi     :      3.37s CPU      8.18s WALL (    2670 calls)
     add_vuspsi   :      0.05s CPU      0.10s WALL (    2670 calls)
     h_psi_meta   :     10.19s CPU     25.37s WALL (    2670 calls)

     General routines
     calbec       :      0.04s CPU      0.08s WALL (    2670 calls)
     fft          :      0.04s CPU      0.07s WALL (     261 calls)
     ffts         :      0.06s CPU      0.11s WALL (     410 calls)
     fftw         :     14.49s CPU     36.28s WALL (  102208 calls)
     interpolate  :      0.00s CPU      0.00s WALL (      22 calls)
 
     Parallel routines
 
     PWSCF        :     17.46s CPU     43.73s WALL

 
   This run was terminated on:  12: 3:14  14Mar2023            

=------------------------------------------------------------------------------=
   JOB DONE.
=------------------------------------------------------------------------------=
