
     Program PWSCF v.7.0 starts on  7Jul2023 at 14:30:57 

     This program is part of the open-source Quantum ESPRESSO suite
     for quantum simulation of materials; please cite
         "P. Giannozzi et al., J. Phys.:Condens. Matter 21 395502 (2009);
         "P. Giannozzi et al., J. Phys.:Condens. Matter 29 465901 (2017);
         "P. Giannozzi et al., J. Chem. Phys. 152 154105 (2020);
          URL http://www.quantum-espresso.org", 
     in publications or presentations arising from this work. More details at
     http://www.quantum-espresso.org/quote

     Parallel version (MPI), running on     1 processors

     MPI processes distributed on     1 nodes
     27400 MiB available memory on the printing compute node when the environment starts
 
     Waiting for input...
     Reading input from standard input
Warning: card &CELL ignored
Warning: card / ignored

     Current dimensions of program PWSCF are:
     Max number of different atomic species (ntypx) = 10
     Max number of k-points (npk) =  40000
     Max angular momentum in pseudopotentials (lmaxx) =  4
     file Si.SCAN.UPF2: wavefunction(s)  0D renormalized

     WARNING: the MGGA functional with ID    5 has been 
     read together with other dft terms, but it should 
     stand alone in order to work properly. The other 
     terms will be ignored.

     WARNING: the MGGA functional with ID    5 has been 
     read together with other dft terms, but it should 
     stand alone in order to work properly. The other 
     terms will be ignored.

     Subspace diagonalization in iterative solution of the eigenvalue problem:
     a serial algorithm will be used

 
     G-vector sticks info
     --------------------
     sticks:   dense  smooth     PW     G-vecs:    dense   smooth      PW
     Sum         349     349    121                 4111     4111     869
 
     Using Slab Decomposition
 


     bravais-lattice index     =            2
     lattice parameter (alat)  =       7.0298  a.u.
     unit-cell volume          =      86.8491 (a.u.)^3
     number of atoms/cell      =            2
     number of atomic types    =            2
     number of electrons       =         8.00
     number of Kohn-Sham states=            4
     kinetic-energy cutoff     =      50.0000  Ry
     charge density cutoff     =     200.0000  Ry
     scf convergence threshold =      2.0E-05
     mixing beta               =       0.2000
     number of iterations used =            8  local-TF  mixing
     Exchange-correlation= SLA  PW   SCAN SCAN
                           (   0   0   0   0   0 263 267)

     celldm(1)=   7.029781  celldm(2)=   0.000000  celldm(3)=   0.000000
     celldm(4)=   0.000000  celldm(5)=   0.000000  celldm(6)=   0.000000

     crystal axes: (cart. coord. in units of alat)
               a(1) = (  -0.500000   0.000000   0.500000 )  
               a(2) = (   0.000000   0.500000   0.500000 )  
               a(3) = (  -0.500000   0.500000   0.000000 )  

     reciprocal axes: (cart. coord. in units 2 pi/alat)
               b(1) = ( -1.000000 -1.000000  1.000000 )  
               b(2) = (  1.000000  1.000000  1.000000 )  
               b(3) = ( -1.000000  1.000000 -1.000000 )  


     PseudoPot. # 1 for Si read from file:
     ~/Documents/TA/PWDFT.jl/pseudopotentials/scan_upf/Si.SCAN.UPF2
     MD5 check sum: Not computed, couldn't open file
     Pseudo is Norm-conserving, Zval =  4.0
     Generated by new atomic code, or converted to UPF format
     Using radial grid of 1475 points,  2 beta functions with: 
                l(1) =   0
                l(2) =   1

     PseudoPot. # 2 for C  read from file:
     ~/Documents/TA/PWDFT.jl/pseudopotentials/scan_upf/C.SCAN.UPF2
     MD5 check sum: Not computed, couldn't open file
     Pseudo is Norm-conserving, Zval =  4.0
     Generated by new atomic code, or converted to UPF format
     Using radial grid of 1389 points,  1 beta functions with: 
                l(1) =   0

     atomic species   valence    mass     pseudopotential
        Si             4.00    28.08550     Si( 1.00)
        C              4.00    12.01100     C ( 1.00)

     24 Sym. Ops. (no inversion) found



   Cartesian axes

     site n.     atom                  positions (alat units)
         1           Si  tau(   1) = (   0.0000000   0.0000000   0.0000000  )
         2           C   tau(   2) = (   0.2500000   0.2500000   0.2500000  )

     number of k points=    47
                       cart. coord. in units 2pi/alat
        k(    1) = (   0.0000000   0.0000000   0.0000000), wk =   0.0020000
        k(    2) = (  -0.1000000   0.1000000  -0.1000000), wk =   0.0160000
        k(    3) = (  -0.2000000   0.2000000  -0.2000000), wk =   0.0160000
        k(    4) = (  -0.3000000   0.3000000  -0.3000000), wk =   0.0160000
        k(    5) = (  -0.4000000   0.4000000  -0.4000000), wk =   0.0160000
        k(    6) = (   0.5000000  -0.5000000   0.5000000), wk =   0.0080000
        k(    7) = (   0.0000000   0.2000000   0.0000000), wk =   0.0120000
        k(    8) = (  -0.1000000   0.3000000  -0.1000000), wk =   0.0480000
        k(    9) = (  -0.2000000   0.4000000  -0.2000000), wk =   0.0480000
        k(   10) = (  -0.3000000   0.5000000  -0.3000000), wk =   0.0480000
        k(   11) = (   0.6000000  -0.4000000   0.6000000), wk =   0.0480000
        k(   12) = (   0.5000000  -0.3000000   0.5000000), wk =   0.0480000
        k(   13) = (   0.4000000  -0.2000000   0.4000000), wk =   0.0480000
        k(   14) = (   0.3000000  -0.1000000   0.3000000), wk =   0.0480000
        k(   15) = (   0.2000000   0.0000000   0.2000000), wk =   0.0240000
        k(   16) = (   0.0000000   0.4000000   0.0000000), wk =   0.0120000
        k(   17) = (  -0.1000000   0.5000000  -0.1000000), wk =   0.0480000
        k(   18) = (  -0.2000000   0.6000000  -0.2000000), wk =   0.0480000
        k(   19) = (   0.7000000  -0.3000000   0.7000000), wk =   0.0480000
        k(   20) = (   0.6000000  -0.2000000   0.6000000), wk =   0.0480000
        k(   21) = (   0.5000000  -0.1000000   0.5000000), wk =   0.0480000
        k(   22) = (   0.4000000   0.0000000   0.4000000), wk =   0.0240000
        k(   23) = (   0.0000000   0.6000000   0.0000000), wk =   0.0120000
        k(   24) = (  -0.1000000   0.7000000  -0.1000000), wk =   0.0480000
        k(   25) = (   0.8000000  -0.2000000   0.8000000), wk =   0.0480000
        k(   26) = (   0.7000000  -0.1000000   0.7000000), wk =   0.0480000
        k(   27) = (   0.6000000  -0.0000000   0.6000000), wk =   0.0240000
        k(   28) = (   0.0000000   0.8000000   0.0000000), wk =   0.0120000
        k(   29) = (   0.9000000  -0.1000000   0.9000000), wk =   0.0480000
        k(   30) = (   0.8000000   0.0000000   0.8000000), wk =   0.0240000
        k(   31) = (   0.0000000  -1.0000000   0.0000000), wk =   0.0060000
        k(   32) = (  -0.2000000   0.4000000   0.0000000), wk =   0.0480000
        k(   33) = (  -0.3000000   0.5000000  -0.1000000), wk =   0.0960000
        k(   34) = (   0.6000000  -0.4000000   0.8000000), wk =   0.0960000
        k(   35) = (   0.5000000  -0.3000000   0.7000000), wk =   0.0480000
        k(   36) = (  -0.2000000   0.6000000   0.0000000), wk =   0.0480000
        k(   37) = (   0.7000000  -0.3000000   0.9000000), wk =   0.0960000
        k(   38) = (   0.6000000  -0.2000000   0.8000000), wk =   0.0960000
        k(   39) = (   0.5000000  -0.1000000   0.7000000), wk =   0.0960000
        k(   40) = (   0.4000000   0.0000000   0.6000000), wk =   0.0480000
        k(   41) = (   0.8000000  -0.2000000   1.0000000), wk =   0.0480000
        k(   42) = (   0.7000000  -0.1000000   0.9000000), wk =   0.0960000
        k(   43) = (   0.6000000   0.0000000   0.8000000), wk =   0.0480000
        k(   44) = (  -0.2000000  -1.0000000   0.0000000), wk =   0.0240000
        k(   45) = (   0.6000000  -0.2000000   1.0000000), wk =   0.0480000
        k(   46) = (   0.5000000  -0.1000000   0.9000000), wk =   0.0480000
        k(   47) = (  -0.4000000  -1.0000000   0.0000000), wk =   0.0240000

     Dense  grid:     4111 G-vectors     FFT dimensions: (  24,  24,  24)

     Estimated max dynamical RAM per process >       8.12 MB

     WARNING: libxc functional with ID  263 depends
      on external parameters: check the user_guide of
      QE if you need to modify them or to check their
      default values.

     Initial potential from superposition of free atoms

     starting charge       7.9995, renormalised to       8.0000
     Starting wfcs are   13 randomized atomic wfcs

     total cpu time spent up to now is        1.6 secs

     Self-consistent Calculation

     iteration #  1     ecut=    50.00 Ry     beta= 0.20
     Davidson diagonalization with overlap
     ethr =  1.00E-02,  avg # of iterations =  2.0

     total cpu time spent up to now is        3.4 secs

     total energy              =     -19.14233259 Ry
     estimated scf accuracy    <       3.68748195 Ry

     iteration #  2     ecut=    50.00 Ry     beta= 0.20
     Davidson diagonalization with overlap
     ethr =  1.00E-02,  avg # of iterations =  1.0

     total cpu time spent up to now is        4.7 secs

     total energy              =     -18.91549192 Ry
     estimated scf accuracy    <       2.26218563 Ry

     iteration #  3     ecut=    50.00 Ry     beta= 0.20
     Davidson diagonalization with overlap
     ethr =  1.00E-02,  avg # of iterations =  1.4

     total cpu time spent up to now is        6.1 secs

     total energy              =     -18.99256013 Ry
     estimated scf accuracy    <       0.06296145 Ry

     iteration #  4     ecut=    50.00 Ry     beta= 0.20
     Davidson diagonalization with overlap
     ethr =  7.87E-04,  avg # of iterations =  1.4

     total cpu time spent up to now is        7.4 secs

     total energy              =     -18.99800774 Ry
     estimated scf accuracy    <       0.03387573 Ry

     iteration #  5     ecut=    50.00 Ry     beta= 0.20
     Davidson diagonalization with overlap
     ethr =  4.23E-04,  avg # of iterations =  1.0

     total cpu time spent up to now is        8.7 secs

     total energy              =     -18.99743671 Ry
     estimated scf accuracy    <       0.03372681 Ry

     iteration #  6     ecut=    50.00 Ry     beta= 0.20
     Davidson diagonalization with overlap
     ethr =  4.22E-04,  avg # of iterations =  1.0

     total cpu time spent up to now is        9.8 secs

     total energy              =     -18.99885979 Ry
     estimated scf accuracy    <       0.00051539 Ry

     iteration #  7     ecut=    50.00 Ry     beta= 0.20
     Davidson diagonalization with overlap
     ethr =  6.44E-06,  avg # of iterations =  2.0

     total cpu time spent up to now is       11.5 secs

     total energy              =     -18.99900499 Ry
     estimated scf accuracy    <       0.00043805 Ry

     iteration #  8     ecut=    50.00 Ry     beta= 0.20
     Davidson diagonalization with overlap
     ethr =  5.48E-06,  avg # of iterations =  1.1

     total cpu time spent up to now is       12.8 secs

     End of self-consistent calculation

          k = 0.0000 0.0000 0.0000 (   531 PWs)   bands (ev):

    -4.1296  16.2366  16.2366  16.2366

          k =-0.1000 0.1000-0.1000 (   534 PWs)   bands (ev):

    -3.8415  15.0909  16.1019  16.1019

          k =-0.2000 0.2000-0.2000 (   525 PWs)   bands (ev):

    -2.9853  12.4261  15.7898  15.7898

          k =-0.3000 0.3000-0.3000 (   522 PWs)   bands (ev):

    -1.5930   9.2863  15.4581  15.4581

          k =-0.4000 0.4000-0.4000 (   516 PWs)   bands (ev):

     0.2301   6.2825  15.2275  15.2275

          k = 0.5000-0.5000 0.5000 (   502 PWs)   bands (ev):

     1.6450   4.4567  15.1514  15.1514

          k = 0.0000 0.2000 0.0000 (   532 PWs)   bands (ev):

    -3.7456  15.5537  15.6463  15.6463

          k =-0.1000 0.3000-0.1000 (   526 PWs)   bands (ev):

    -3.0790  13.4315  15.1195  15.6577

          k =-0.2000 0.4000-0.2000 (   521 PWs)   bands (ev):

    -1.8647  10.4800  14.7318  15.3037

          k =-0.3000 0.5000-0.3000 (   520 PWs)   bands (ev):

    -0.1720   7.4397  14.5891  14.7715

          k = 0.6000-0.4000 0.6000 (   524 PWs)   bands (ev):

     1.6198   4.9870  14.2794  14.7171

          k = 0.5000-0.3000 0.5000 (   517 PWs)   bands (ev):

     1.0877   5.6556  13.9742  15.0806

          k = 0.4000-0.2000 0.4000 (   514 PWs)   bands (ev):

    -0.7814   8.4318  13.9485  15.5732

          k = 0.3000-0.1000 0.3000 (   523 PWs)   bands (ev):

    -2.3283  11.4743  14.2482  16.0308

          k = 0.2000 0.0000 0.2000 (   527 PWs)   bands (ev):

    -3.3640  14.0070  15.0028  16.2546

          k = 0.0000 0.4000 0.0000 (   524 PWs)   bands (ev):

    -2.6060  13.8587  14.3909  14.3909

          k =-0.1000 0.5000-0.1000 (   522 PWs)   bands (ev):

    -1.5829  11.6711  13.8590  14.0787

          k =-0.2000 0.6000-0.2000 (   517 PWs)   bands (ev):

    -0.0619   8.9133  13.2532  13.6493

          k = 0.7000-0.3000 0.7000 (   520 PWs)   bands (ev):

     1.7476   6.3247  12.3230  13.7959

          k = 0.6000-0.2000 0.6000 (   522 PWs)   bands (ev):

     2.2345   5.7281  11.6518  14.2733

          k = 0.5000-0.1000 0.5000 (   519 PWs)   bands (ev):

     0.5209   7.9987  11.4364  14.9762

          k = 0.4000 0.0000 0.4000 (   525 PWs)   bands (ev):

    -1.1337  10.3497  12.1282  15.6773

          k = 0.0000 0.6000 0.0000 (   508 PWs)   bands (ev):

    -0.7579  11.5026  13.1785  13.1785

          k =-0.1000 0.7000-0.1000 (   519 PWs)   bands (ev):

     0.5650   9.7749  12.1261  12.8367

          k = 0.8000-0.2000 0.8000 (   518 PWs)   bands (ev):

     2.2308   7.8276  10.4519  12.8945

          k = 0.7000-0.1000 0.7000 (   515 PWs)   bands (ev):

     3.3210   6.6912   9.2204  13.3422

          k = 0.6000-0.0000 0.6000 (   522 PWs)   bands (ev):

     2.1599   7.7114   9.1762  14.1007

          k = 0.0000 0.8000 0.0000 (   508 PWs)   bands (ev):

     1.6641   8.6051  12.3584  12.3584

          k = 0.9000-0.1000 0.9000 (   512 PWs)   bands (ev):

     3.0449   7.2915  11.0427  12.2844

          k = 0.8000 0.0000 0.8000 (   510 PWs)   bands (ev):

     3.8624   7.1266   8.8894  12.6303

          k = 0.0000-1.0000 0.0000 (   524 PWs)   bands (ev):

     3.6406   6.4021  12.0692  12.0692

          k =-0.2000 0.4000 0.0000 (   522 PWs)   bands (ev):

    -2.2333  12.2017  13.6495  15.4971

          k =-0.3000 0.5000-0.1000 (   518 PWs)   bands (ev):

    -0.8621   9.7145  12.8654  14.9873

          k = 0.6000-0.4000 0.8000 (   517 PWs)   bands (ev):

     0.9178   6.9271  12.6999  14.3231

          k = 0.5000-0.3000 0.7000 (   522 PWs)   bands (ev):

     2.2571   5.2169  12.7267  13.9918

          k =-0.2000 0.6000 0.0000 (   517 PWs)   bands (ev):

    -0.4055  10.4982  12.3540  13.6116

          k = 0.7000-0.3000 0.9000 (   516 PWs)   bands (ev):

     1.2107   8.4152  11.4461  12.8171

          k = 0.6000-0.2000 0.8000 (   515 PWs)   bands (ev):

     2.8232   6.4157  10.7231  12.7025

          k = 0.5000-0.1000 0.7000 (   518 PWs)   bands (ev):

     2.3472   6.9898  10.2422  13.2754

          k = 0.4000 0.0000 0.6000 (   520 PWs)   bands (ev):

     0.6188   8.8924  10.7025  14.1830

          k = 0.8000-0.2000 1.0000 (   520 PWs)   bands (ev):

     1.9638   8.5474  11.4823  11.6583

          k = 0.7000-0.1000 0.9000 (   510 PWs)   bands (ev):

     3.4415   7.5351   9.4691  11.6557

          k = 0.6000 0.0000 0.8000 (   515 PWs)   bands (ev):

     3.6386   7.6927   8.1697  12.2734

          k =-0.2000-1.0000 0.0000 (   504 PWs)   bands (ev):

     3.8072   6.7673  10.9849  11.1813

          k = 0.6000-0.2000 1.0000 (   515 PWs)   bands (ev):

     2.7717   8.0151   9.7535  11.4628

          k = 0.5000-0.1000 0.9000 (   512 PWs)   bands (ev):

     3.7625   7.3996   9.2681  10.8360

          k =-0.4000-1.0000 0.0000 (   512 PWs)   bands (ev):

     4.1254   7.8191   9.4241   9.6830

     highest occupied level (ev):    16.2546

!    total energy              =     -18.99904159 Ry
     estimated scf accuracy    <       0.00001110 Ry

     The total energy is the sum of the following terms:
     one-electron contribution =      10.31869093 Ry
     hartree contribution      =       2.07686149 Ry
     xc contribution           =      -6.87355514 Ry
     ewald contribution        =     -24.52103887 Ry

     convergence has been achieved in   8 iterations
     Writing meta-gga kinetic term

     Writing all to output data dir ./input_pw/SiC/1/pwscf.save/
     Writing meta-gga kinetic term
 
     init_run     :      0.87s CPU      1.50s WALL (       1 calls)
     electrons    :      5.57s CPU     11.19s WALL (       1 calls)

     Called by init_run:
     wfcinit      :      0.76s CPU      1.24s WALL (       1 calls)
     potinit      :      0.01s CPU      0.03s WALL (       1 calls)
     hinit0       :      0.09s CPU      0.21s WALL (       1 calls)

     Called by electrons:
     c_bands      :      4.42s CPU      8.84s WALL (       8 calls)
     sum_band     :      1.05s CPU      2.12s WALL (       8 calls)
     v_of_rho     :      0.08s CPU      0.19s WALL (       9 calls)
     mix_rho      :      0.03s CPU      0.05s WALL (       8 calls)

     Called by c_bands:
     init_us_2    :      0.05s CPU      0.12s WALL (     799 calls)
     init_us_2:cp :      0.05s CPU      0.12s WALL (     799 calls)
     cegterg      :      4.37s CPU      8.72s WALL (     376 calls)

     Called by *egterg:
     cdiaghg      :      0.04s CPU      0.09s WALL (     892 calls)
     h_psi        :      5.00s CPU      9.68s WALL (     939 calls)
     g_psi        :      0.00s CPU      0.02s WALL (     516 calls)

     Called by h_psi:
     h_psi:calbec :      0.01s CPU      0.02s WALL (     939 calls)
     vloc_psi     :      1.23s CPU      2.14s WALL (     939 calls)
     add_vuspsi   :      0.02s CPU      0.03s WALL (     939 calls)
     h_psi_meta   :      3.73s CPU      7.47s WALL (     939 calls)

     General routines
     calbec       :      0.01s CPU      0.01s WALL (     939 calls)
     fft          :      0.01s CPU      0.04s WALL (     105 calls)
     ffts         :      0.02s CPU      0.04s WALL (     139 calls)
     fftw         :      5.36s CPU     10.58s WALL (   38056 calls)
     interpolate  :      0.00s CPU      0.00s WALL (       9 calls)
 
     Parallel routines
 
     PWSCF        :      6.49s CPU     12.81s WALL

 
   This run was terminated on:  14:31: 9   7Jul2023            

=------------------------------------------------------------------------------=
   JOB DONE.
=------------------------------------------------------------------------------=
