
     Program PWSCF v.7.0 starts on 29Mar2023 at 12:56: 4 

     This program is part of the open-source Quantum ESPRESSO suite
     for quantum simulation of materials; please cite
         "P. Giannozzi et al., J. Phys.:Condens. Matter 21 395502 (2009);
         "P. Giannozzi et al., J. Phys.:Condens. Matter 29 465901 (2017);
         "P. Giannozzi et al., J. Chem. Phys. 152 154105 (2020);
          URL http://www.quantum-espresso.org", 
     in publications or presentations arising from this work. More details at
     http://www.quantum-espresso.org/quote

     Parallel version (MPI), running on     1 processors

     MPI processes distributed on     1 nodes
     23609 MiB available memory on the printing compute node when the environment starts
 
     Waiting for input...
     Reading input from standard input
Warning: card &CELL ignored
Warning: card / ignored

     Current dimensions of program PWSCF are:
     Max number of different atomic species (ntypx) = 10
     Max number of k-points (npk) =  40000
     Max angular momentum in pseudopotentials (lmaxx) =  4
     file Si.SCAN.UPF2: wavefunction(s)  0D renormalized

     WARNING: the MGGA functional with ID    5 has been 
     read together with other dft terms, but it should 
     stand alone in order to work properly. The other 
     terms will be ignored.

     WARNING: the MGGA functional with ID    5 has been 
     read together with other dft terms, but it should 
     stand alone in order to work properly. The other 
     terms will be ignored.

     Subspace diagonalization in iterative solution of the eigenvalue problem:
     a serial algorithm will be used

 
     G-vector sticks info
     --------------------
     sticks:   dense  smooth     PW     G-vecs:    dense   smooth      PW
     Sum         349     349    121                 4111     4111     869
 
     Using Slab Decomposition
 


     bravais-lattice index     =            2
     lattice parameter (alat)  =       7.0298  a.u.
     unit-cell volume          =      86.8491 (a.u.)^3
     number of atoms/cell      =            2
     number of atomic types    =            2
     number of electrons       =         8.00
     number of Kohn-Sham states=            4
     kinetic-energy cutoff     =      50.0000  Ry
     charge density cutoff     =     200.0000  Ry
     scf convergence threshold =      1.0E-06
     mixing beta               =       0.0100
     number of iterations used =            8  local-TF  mixing
     Exchange-correlation= SLA  PW   SCAN SCAN
                           (   0   0   0   0   0 263 267)

     celldm(1)=   7.029781  celldm(2)=   0.000000  celldm(3)=   0.000000
     celldm(4)=   0.000000  celldm(5)=   0.000000  celldm(6)=   0.000000

     crystal axes: (cart. coord. in units of alat)
               a(1) = (  -0.500000   0.000000   0.500000 )  
               a(2) = (   0.000000   0.500000   0.500000 )  
               a(3) = (  -0.500000   0.500000   0.000000 )  

     reciprocal axes: (cart. coord. in units 2 pi/alat)
               b(1) = ( -1.000000 -1.000000  1.000000 )  
               b(2) = (  1.000000  1.000000  1.000000 )  
               b(3) = ( -1.000000  1.000000 -1.000000 )  


     PseudoPot. # 1 for Si read from file:
     ~/Documents/TA/PWDFT.jl/pseudopotentials/scan_upf/Si.SCAN.UPF2
     MD5 check sum: Not computed, couldn't open file
     Pseudo is Norm-conserving, Zval =  4.0
     Generated by new atomic code, or converted to UPF format
     Using radial grid of 1475 points,  2 beta functions with: 
                l(1) =   0
                l(2) =   1

     PseudoPot. # 2 for C  read from file:
     ~/Documents/TA/PWDFT.jl/pseudopotentials/scan_upf/C.SCAN.UPF2
     MD5 check sum: Not computed, couldn't open file
     Pseudo is Norm-conserving, Zval =  4.0
     Generated by new atomic code, or converted to UPF format
     Using radial grid of 1389 points,  1 beta functions with: 
                l(1) =   0

     atomic species   valence    mass     pseudopotential
        Si             4.00    28.08550     Si( 1.00)
        C              4.00    12.01100     C ( 1.00)

     24 Sym. Ops. (no inversion) found



   Cartesian axes

     site n.     atom                  positions (alat units)
         1           Si  tau(   1) = (   0.0000000   0.0000000   0.0000000  )
         2           C   tau(   2) = (   0.2500000   0.2500000   0.2500000  )

     number of k points=    47
                       cart. coord. in units 2pi/alat
        k(    1) = (   0.0000000   0.0000000   0.0000000), wk =   0.0020000
        k(    2) = (  -0.1000000   0.1000000  -0.1000000), wk =   0.0160000
        k(    3) = (  -0.2000000   0.2000000  -0.2000000), wk =   0.0160000
        k(    4) = (  -0.3000000   0.3000000  -0.3000000), wk =   0.0160000
        k(    5) = (  -0.4000000   0.4000000  -0.4000000), wk =   0.0160000
        k(    6) = (   0.5000000  -0.5000000   0.5000000), wk =   0.0080000
        k(    7) = (   0.0000000   0.2000000   0.0000000), wk =   0.0120000
        k(    8) = (  -0.1000000   0.3000000  -0.1000000), wk =   0.0480000
        k(    9) = (  -0.2000000   0.4000000  -0.2000000), wk =   0.0480000
        k(   10) = (  -0.3000000   0.5000000  -0.3000000), wk =   0.0480000
        k(   11) = (   0.6000000  -0.4000000   0.6000000), wk =   0.0480000
        k(   12) = (   0.5000000  -0.3000000   0.5000000), wk =   0.0480000
        k(   13) = (   0.4000000  -0.2000000   0.4000000), wk =   0.0480000
        k(   14) = (   0.3000000  -0.1000000   0.3000000), wk =   0.0480000
        k(   15) = (   0.2000000   0.0000000   0.2000000), wk =   0.0240000
        k(   16) = (   0.0000000   0.4000000   0.0000000), wk =   0.0120000
        k(   17) = (  -0.1000000   0.5000000  -0.1000000), wk =   0.0480000
        k(   18) = (  -0.2000000   0.6000000  -0.2000000), wk =   0.0480000
        k(   19) = (   0.7000000  -0.3000000   0.7000000), wk =   0.0480000
        k(   20) = (   0.6000000  -0.2000000   0.6000000), wk =   0.0480000
        k(   21) = (   0.5000000  -0.1000000   0.5000000), wk =   0.0480000
        k(   22) = (   0.4000000   0.0000000   0.4000000), wk =   0.0240000
        k(   23) = (   0.0000000   0.6000000   0.0000000), wk =   0.0120000
        k(   24) = (  -0.1000000   0.7000000  -0.1000000), wk =   0.0480000
        k(   25) = (   0.8000000  -0.2000000   0.8000000), wk =   0.0480000
        k(   26) = (   0.7000000  -0.1000000   0.7000000), wk =   0.0480000
        k(   27) = (   0.6000000  -0.0000000   0.6000000), wk =   0.0240000
        k(   28) = (   0.0000000   0.8000000   0.0000000), wk =   0.0120000
        k(   29) = (   0.9000000  -0.1000000   0.9000000), wk =   0.0480000
        k(   30) = (   0.8000000   0.0000000   0.8000000), wk =   0.0240000
        k(   31) = (   0.0000000  -1.0000000   0.0000000), wk =   0.0060000
        k(   32) = (  -0.2000000   0.4000000   0.0000000), wk =   0.0480000
        k(   33) = (  -0.3000000   0.5000000  -0.1000000), wk =   0.0960000
        k(   34) = (   0.6000000  -0.4000000   0.8000000), wk =   0.0960000
        k(   35) = (   0.5000000  -0.3000000   0.7000000), wk =   0.0480000
        k(   36) = (  -0.2000000   0.6000000   0.0000000), wk =   0.0480000
        k(   37) = (   0.7000000  -0.3000000   0.9000000), wk =   0.0960000
        k(   38) = (   0.6000000  -0.2000000   0.8000000), wk =   0.0960000
        k(   39) = (   0.5000000  -0.1000000   0.7000000), wk =   0.0960000
        k(   40) = (   0.4000000   0.0000000   0.6000000), wk =   0.0480000
        k(   41) = (   0.8000000  -0.2000000   1.0000000), wk =   0.0480000
        k(   42) = (   0.7000000  -0.1000000   0.9000000), wk =   0.0960000
        k(   43) = (   0.6000000   0.0000000   0.8000000), wk =   0.0480000
        k(   44) = (  -0.2000000  -1.0000000   0.0000000), wk =   0.0240000
        k(   45) = (   0.6000000  -0.2000000   1.0000000), wk =   0.0480000
        k(   46) = (   0.5000000  -0.1000000   0.9000000), wk =   0.0480000
        k(   47) = (  -0.4000000  -1.0000000   0.0000000), wk =   0.0240000

     Dense  grid:     4111 G-vectors     FFT dimensions: (  24,  24,  24)

     Estimated max dynamical RAM per process >       8.12 MB

     WARNING: libxc functional with ID  263 depends
      on external parameters: check the user_guide of
      QE if you need to modify them or to check their
      default values.

     Initial potential from superposition of free atoms

     starting charge       7.9995, renormalised to       8.0000
     Starting wfcs are   13 randomized atomic wfcs

     total cpu time spent up to now is        2.1 secs

     Self-consistent Calculation

     iteration #  1     ecut=    50.00 Ry     beta= 0.01
     Davidson diagonalization with overlap
     ethr =  1.00E-02,  avg # of iterations =  2.0

     total cpu time spent up to now is        3.9 secs

     total energy              =     -19.13983340 Ry
     estimated scf accuracy    <       3.68748195 Ry

     iteration #  2     ecut=    50.00 Ry     beta= 0.01
     Davidson diagonalization with overlap
     ethr =  1.00E-02,  avg # of iterations =  1.0

     total cpu time spent up to now is        5.2 secs

     total energy              =     -18.96706199 Ry
     estimated scf accuracy    <       3.58582267 Ry

     iteration #  3     ecut=    50.00 Ry     beta= 0.01
     Davidson diagonalization with overlap
     ethr =  1.00E-02,  avg # of iterations =  1.0

     total cpu time spent up to now is        6.6 secs

     total energy              =     -18.96704868 Ry
     estimated scf accuracy    <       0.31973462 Ry

     iteration #  4     ecut=    50.00 Ry     beta= 0.01
     Davidson diagonalization with overlap
     ethr =  4.00E-03,  avg # of iterations =  1.0

     total cpu time spent up to now is        7.9 secs

     total energy              =     -18.98492361 Ry
     estimated scf accuracy    <       0.06929399 Ry

     iteration #  5     ecut=    50.00 Ry     beta= 0.01
     Davidson diagonalization with overlap
     ethr =  8.66E-04,  avg # of iterations =  1.0

     total cpu time spent up to now is        9.2 secs

     total energy              =     -19.01043858 Ry
     estimated scf accuracy    <       0.05867866 Ry

     iteration #  6     ecut=    50.00 Ry     beta= 0.01
     Davidson diagonalization with overlap
     ethr =  7.33E-04,  avg # of iterations =  1.1

     total cpu time spent up to now is       10.6 secs

     total energy              =     -18.98184485 Ry
     estimated scf accuracy    <       0.28274024 Ry

     iteration #  7     ecut=    50.00 Ry     beta= 0.01
     Davidson diagonalization with overlap
     ethr =  7.33E-04,  avg # of iterations =  2.0

     total cpu time spent up to now is       12.4 secs

     total energy              =     -18.99843318 Ry
     estimated scf accuracy    <       0.00133429 Ry

     iteration #  8     ecut=    50.00 Ry     beta= 0.01
     Davidson diagonalization with overlap
     ethr =  1.67E-05,  avg # of iterations =  2.5

     total cpu time spent up to now is       14.3 secs

     total energy              =     -18.99927726 Ry
     estimated scf accuracy    <       0.00816766 Ry

     iteration #  9     ecut=    50.00 Ry     beta= 0.01
     Davidson diagonalization with overlap
     ethr =  1.67E-05,  avg # of iterations =  1.0

     total cpu time spent up to now is       15.6 secs

     total energy              =     -18.99865155 Ry
     estimated scf accuracy    <       0.01198098 Ry

     iteration # 10     ecut=    50.00 Ry     beta= 0.01
     Davidson diagonalization with overlap
     ethr =  1.67E-05,  avg # of iterations =  2.0

     total cpu time spent up to now is       17.4 secs

     total energy              =     -18.99903816 Ry
     estimated scf accuracy    <       0.00008594 Ry

     iteration # 11     ecut=    50.00 Ry     beta= 0.01
     Davidson diagonalization with overlap
     ethr =  1.07E-06,  avg # of iterations =  2.6

     total cpu time spent up to now is       19.4 secs

     total energy              =     -18.99905848 Ry
     estimated scf accuracy    <       0.00060420 Ry

     iteration # 12     ecut=    50.00 Ry     beta= 0.01
     Davidson diagonalization with overlap
     ethr =  1.07E-06,  avg # of iterations =  1.0

     total cpu time spent up to now is       20.8 secs

     total energy              =     -18.99906039 Ry
     estimated scf accuracy    <       0.00033221 Ry

     iteration # 13     ecut=    50.00 Ry     beta= 0.01
     Davidson diagonalization with overlap
     ethr =  1.07E-06,  avg # of iterations =  1.0

     total cpu time spent up to now is       22.1 secs

     total energy              =     -18.99903033 Ry
     estimated scf accuracy    <       0.00034540 Ry

     iteration # 14     ecut=    50.00 Ry     beta= 0.01
     Davidson diagonalization with overlap
     ethr =  1.07E-06,  avg # of iterations =  2.0

     total cpu time spent up to now is       23.9 secs

     total energy              =     -18.99904588 Ry
     estimated scf accuracy    <       0.00000390 Ry

     iteration # 15     ecut=    50.00 Ry     beta= 0.01
     Davidson diagonalization with overlap
     ethr =  4.87E-08,  avg # of iterations =  1.0

     total cpu time spent up to now is       25.2 secs

     total energy              =     -18.99904630 Ry
     estimated scf accuracy    <       0.00000536 Ry

     iteration # 16     ecut=    50.00 Ry     beta= 0.01
     Davidson diagonalization with overlap
     ethr =  4.87E-08,  avg # of iterations =  1.0

     total cpu time spent up to now is       26.4 secs

     total energy              =     -18.99904693 Ry
     estimated scf accuracy    <       0.00000550 Ry

     iteration # 17     ecut=    50.00 Ry     beta= 0.01
     Davidson diagonalization with overlap
     ethr =  4.87E-08,  avg # of iterations =  1.0

     total cpu time spent up to now is       27.3 secs

     total energy              =     -18.99904680 Ry
     estimated scf accuracy    <       0.00000710 Ry

     iteration # 18     ecut=    50.00 Ry     beta= 0.01
     Davidson diagonalization with overlap
     ethr =  4.87E-08,  avg # of iterations =  1.0

     total cpu time spent up to now is       28.3 secs

     total energy              =     -18.99904680 Ry
     estimated scf accuracy    <       0.00000342 Ry

     iteration # 19     ecut=    50.00 Ry     beta= 0.01
     Davidson diagonalization with overlap
     ethr =  4.27E-08,  avg # of iterations =  1.0

     total cpu time spent up to now is       29.3 secs

     total energy              =     -18.99904652 Ry
     estimated scf accuracy    <       0.00000270 Ry

     iteration # 20     ecut=    50.00 Ry     beta= 0.01
     Davidson diagonalization with overlap
     ethr =  3.37E-08,  avg # of iterations =  1.0

     total cpu time spent up to now is       30.6 secs

     End of self-consistent calculation

          k = 0.0000 0.0000 0.0000 (   531 PWs)   bands (ev):

    -4.1363  16.2322  16.2322  16.2322

          k =-0.1000 0.1000-0.1000 (   534 PWs)   bands (ev):

    -3.8482  15.0861  16.0974  16.0974

          k =-0.2000 0.2000-0.2000 (   525 PWs)   bands (ev):

    -2.9919  12.4207  15.7852  15.7852

          k =-0.3000 0.3000-0.3000 (   522 PWs)   bands (ev):

    -1.5994   9.2803  15.4533  15.4533

          k =-0.4000 0.4000-0.4000 (   516 PWs)   bands (ev):

     0.2242   6.2760  15.2226  15.2226

          k = 0.5000-0.5000 0.5000 (   502 PWs)   bands (ev):

     1.6400   4.4491  15.1465  15.1465

          k = 0.0000 0.2000 0.0000 (   532 PWs)   bands (ev):

    -3.7523  15.5491  15.6417  15.6417

          k =-0.1000 0.3000-0.1000 (   526 PWs)   bands (ev):

    -3.0857  13.4263  15.1147  15.6530

          k =-0.2000 0.4000-0.2000 (   521 PWs)   bands (ev):

    -1.8711  10.4743  14.7269  15.2989

          k =-0.3000 0.5000-0.3000 (   520 PWs)   bands (ev):

    -0.1781   7.4334  14.5841  14.7665

          k = 0.6000-0.4000 0.6000 (   524 PWs)   bands (ev):

     1.6146   4.9798  14.2743  14.7121

          k = 0.5000-0.3000 0.5000 (   517 PWs)   bands (ev):

     1.0821   5.6487  13.9690  15.0756

          k = 0.4000-0.2000 0.4000 (   514 PWs)   bands (ev):

    -0.7876   8.4257  13.9433  15.5684

          k = 0.3000-0.1000 0.3000 (   523 PWs)   bands (ev):

    -2.3347  11.4688  14.2431  16.0261

          k = 0.2000 0.0000 0.2000 (   527 PWs)   bands (ev):

    -3.3707  14.0019  14.9980  16.2501

          k = 0.0000 0.4000 0.0000 (   524 PWs)   bands (ev):

    -2.6126  13.8537  14.3859  14.3859

          k =-0.1000 0.5000-0.1000 (   522 PWs)   bands (ev):

    -1.5893  11.6657  13.8539  14.0736

          k =-0.2000 0.6000-0.2000 (   517 PWs)   bands (ev):

    -0.0680   8.9074  13.2478  13.6441

          k = 0.7000-0.3000 0.7000 (   520 PWs)   bands (ev):

     1.7422   6.3180  12.3174  13.7907

          k = 0.6000-0.2000 0.6000 (   522 PWs)   bands (ev):

     2.2294   5.7210  11.6461  14.2682

          k = 0.5000-0.1000 0.5000 (   519 PWs)   bands (ev):

     0.5150   7.9925  11.4307  14.9711

          k = 0.4000 0.0000 0.4000 (   525 PWs)   bands (ev):

    -1.1399  10.3440  12.1226  15.6725

          k = 0.0000 0.6000 0.0000 (   508 PWs)   bands (ev):

    -0.7642  11.4973  13.1733  13.1733

          k =-0.1000 0.7000-0.1000 (   519 PWs)   bands (ev):

     0.5590   9.7694  12.1204  12.8313

          k = 0.8000-0.2000 0.8000 (   518 PWs)   bands (ev):

     2.2254   7.8215  10.4458  12.8891

          k = 0.7000-0.1000 0.7000 (   515 PWs)   bands (ev):

     3.3164   6.6841   9.2142  13.3369

          k = 0.6000-0.0000 0.6000 (   522 PWs)   bands (ev):

     2.1545   7.7050   9.1700  14.0955

          k = 0.0000 0.8000 0.0000 (   508 PWs)   bands (ev):

     1.6584   8.5994  12.3530  12.3530

          k = 0.9000-0.1000 0.9000 (   512 PWs)   bands (ev):

     3.0398   7.2854  11.0367  12.2789

          k = 0.8000 0.0000 0.8000 (   510 PWs)   bands (ev):

     3.8579   7.1200   8.8826  12.6249

          k = 0.0000-1.0000 0.0000 (   524 PWs)   bands (ev):

     3.6359   6.3953  12.0637  12.0637

          k =-0.2000 0.4000 0.0000 (   522 PWs)   bands (ev):

    -2.2398  12.1963  13.6442  15.4923

          k =-0.3000 0.5000-0.1000 (   518 PWs)   bands (ev):

    -0.8684   9.7087  12.8600  14.9823

          k = 0.6000-0.4000 0.8000 (   517 PWs)   bands (ev):

     0.9121   6.9206  12.6945  14.3179

          k = 0.5000-0.3000 0.7000 (   522 PWs)   bands (ev):

     2.2522   5.2095  12.7213  13.9865

          k =-0.2000 0.6000 0.0000 (   517 PWs)   bands (ev):

    -0.4117  10.4927  12.3485  13.6062

          k = 0.7000-0.3000 0.9000 (   516 PWs)   bands (ev):

     1.2049   8.4092  11.4404  12.8114

          k = 0.6000-0.2000 0.8000 (   515 PWs)   bands (ev):

     2.8182   6.4087  10.7173  12.6969

          k = 0.5000-0.1000 0.7000 (   518 PWs)   bands (ev):

     2.3420   6.9831  10.2363  13.2698

          k = 0.4000 0.0000 0.6000 (   520 PWs)   bands (ev):

     0.6129   8.8865  10.6966  14.1777

          k = 0.8000-0.2000 1.0000 (   520 PWs)   bands (ev):

     1.9582   8.5417  11.4766  11.6523

          k = 0.7000-0.1000 0.9000 (   510 PWs)   bands (ev):

     3.4367   7.5288   9.4625  11.6498

          k = 0.6000 0.0000 0.8000 (   515 PWs)   bands (ev):

     3.6341   7.6857   8.1633  12.2677

          k =-0.2000-1.0000 0.0000 (   504 PWs)   bands (ev):

     3.8026   6.7606  10.9787  11.1755

          k = 0.6000-0.2000 1.0000 (   515 PWs)   bands (ev):

     2.7665   8.0089   9.7473  11.4567

          k = 0.5000-0.1000 0.9000 (   512 PWs)   bands (ev):

     3.7580   7.3926   9.2620  10.8297

          k =-0.4000-1.0000 0.0000 (   512 PWs)   bands (ev):

     4.1211   7.8126   9.4179   9.6762

     highest occupied level (ev):    16.2501

!    total energy              =     -18.99904649 Ry
     estimated scf accuracy    <       0.00000056 Ry

     The total energy is the sum of the following terms:
     one-electron contribution =      10.31638192 Ry
     hartree contribution      =       2.07999552 Ry
     xc contribution           =      -6.87438505 Ry
     ewald contribution        =     -24.52103887 Ry

     convergence has been achieved in  20 iterations
     Writing meta-gga kinetic term

     Writing all to output data dir ./input_pw/SiC/1/pwscf.save/
     Writing meta-gga kinetic term
 
     init_run     :      0.93s CPU      1.99s WALL (       1 calls)
     electrons    :     14.39s CPU     28.47s WALL (       1 calls)

     Called by init_run:
     wfcinit      :      0.82s CPU      1.74s WALL (       1 calls)
     potinit      :      0.01s CPU      0.03s WALL (       1 calls)
     hinit0       :      0.10s CPU      0.20s WALL (       1 calls)

     Called by electrons:
     c_bands      :     11.48s CPU     23.05s WALL (      20 calls)
     sum_band     :      2.62s CPU      4.82s WALL (      20 calls)
     v_of_rho     :      0.18s CPU      0.30s WALL (      21 calls)
     mix_rho      :      0.11s CPU      0.30s WALL (      20 calls)

     Called by c_bands:
     init_us_2    :      0.13s CPU      0.22s WALL (    1927 calls)
     init_us_2:cp :      0.13s CPU      0.22s WALL (    1927 calls)
     cegterg      :     11.35s CPU     22.86s WALL (     940 calls)

     Called by *egterg:
     cdiaghg      :      0.10s CPU      0.20s WALL (    2218 calls)
     h_psi        :     11.86s CPU     23.96s WALL (    2265 calls)
     g_psi        :      0.01s CPU      0.03s WALL (    1278 calls)

     Called by h_psi:
     h_psi:calbec :      0.04s CPU      0.09s WALL (    2265 calls)
     vloc_psi     :      2.92s CPU      5.49s WALL (    2265 calls)
     add_vuspsi   :      0.04s CPU      0.06s WALL (    2265 calls)
     h_psi_meta   :      8.83s CPU     18.25s WALL (    2265 calls)

     General routines
     calbec       :      0.03s CPU      0.07s WALL (    2265 calls)
     fft          :      0.04s CPU      0.11s WALL (     249 calls)
     ffts         :      0.06s CPU      0.19s WALL (     389 calls)
     fftw         :     12.85s CPU     25.53s WALL (   89648 calls)
     interpolate  :      0.00s CPU      0.00s WALL (      21 calls)
 
     Parallel routines
 
     PWSCF        :     15.38s CPU     30.59s WALL

 
   This run was terminated on:  12:56:34  29Mar2023            

=------------------------------------------------------------------------------=
   JOB DONE.
=------------------------------------------------------------------------------=
