
     Program PWSCF v.7.0 starts on  7Jul2023 at 14:24:17 

     This program is part of the open-source Quantum ESPRESSO suite
     for quantum simulation of materials; please cite
         "P. Giannozzi et al., J. Phys.:Condens. Matter 21 395502 (2009);
         "P. Giannozzi et al., J. Phys.:Condens. Matter 29 465901 (2017);
         "P. Giannozzi et al., J. Chem. Phys. 152 154105 (2020);
          URL http://www.quantum-espresso.org", 
     in publications or presentations arising from this work. More details at
     http://www.quantum-espresso.org/quote

     Parallel version (MPI), running on     1 processors

     MPI processes distributed on     1 nodes
     26991 MiB available memory on the printing compute node when the environment starts
 
     Waiting for input...
     Reading input from standard input
Warning: card &CELL ignored
Warning: card / ignored

     Current dimensions of program PWSCF are:
     Max number of different atomic species (ntypx) = 10
     Max number of k-points (npk) =  40000
     Max angular momentum in pseudopotentials (lmaxx) =  4
     file Cl.SCAN.UPF2: wavefunction(s)  0D renormalized

     WARNING: the MGGA functional with ID    5 has been 
     read together with other dft terms, but it should 
     stand alone in order to work properly. The other 
     terms will be ignored.

     WARNING: the MGGA functional with ID    5 has been 
     read together with other dft terms, but it should 
     stand alone in order to work properly. The other 
     terms will be ignored.

     Subspace diagonalization in iterative solution of the eigenvalue problem:
     a serial algorithm will be used

 
     G-vector sticks info
     --------------------
     sticks:   dense  smooth     PW     G-vecs:    dense   smooth      PW
     Sum         745     745    235                13635    13635    2277
 
     Using Slab Decomposition
 


     bravais-lattice index     =            2
     lattice parameter (alat)  =      10.4468  a.u.
     unit-cell volume          =     285.0278 (a.u.)^3
     number of atoms/cell      =            2
     number of atomic types    =            2
     number of electrons       =         8.00
     number of Kohn-Sham states=            4
     kinetic-energy cutoff     =      50.0000  Ry
     charge density cutoff     =     200.0000  Ry
     scf convergence threshold =      2.0E-05
     mixing beta               =       0.2000
     number of iterations used =            8  local-TF  mixing
     Exchange-correlation= SLA  PW   SCAN SCAN
                           (   0   0   0   0   0 263 267)

     celldm(1)=  10.446779  celldm(2)=   0.000000  celldm(3)=   0.000000
     celldm(4)=   0.000000  celldm(5)=   0.000000  celldm(6)=   0.000000

     crystal axes: (cart. coord. in units of alat)
               a(1) = (  -0.500000   0.000000   0.500000 )  
               a(2) = (   0.000000   0.500000   0.500000 )  
               a(3) = (  -0.500000   0.500000   0.000000 )  

     reciprocal axes: (cart. coord. in units 2 pi/alat)
               b(1) = ( -1.000000 -1.000000  1.000000 )  
               b(2) = (  1.000000  1.000000  1.000000 )  
               b(3) = ( -1.000000  1.000000 -1.000000 )  


     PseudoPot. # 1 for Li read from file:
     ~/Documents/TA/PWDFT.jl/pseudopotentials/scan_upf/Li.SCAN.UPF2
     MD5 check sum: Not computed, couldn't open file
     Pseudo is Norm-conserving, Zval =  1.0
     Generated by new atomic code, or converted to UPF format
     Using radial grid of 1321 points,  1 beta functions with: 
                l(1) =   0

     PseudoPot. # 2 for Cl read from file:
     ~/Documents/TA/PWDFT.jl/pseudopotentials/scan_upf/Cl.SCAN.UPF2
     MD5 check sum: Not computed, couldn't open file
     Pseudo is Norm-conserving, Zval =  7.0
     Generated by new atomic code, or converted to UPF format
     Using radial grid of 1493 points,  2 beta functions with: 
                l(1) =   0
                l(2) =   1

     atomic species   valence    mass     pseudopotential
        Li             1.00     6.94100     Li( 1.00)
        Cl             7.00    35.45300     Cl( 1.00)

     48 Sym. Ops., with inversion, found



   Cartesian axes

     site n.     atom                  positions (alat units)
         1           Li  tau(   1) = (   0.0000000   0.0000000   0.0000000  )
         2           Cl  tau(   2) = (   0.5000000   0.5000000   0.5000000  )

     number of k points=    47
                       cart. coord. in units 2pi/alat
        k(    1) = (   0.0000000   0.0000000   0.0000000), wk =   0.0020000
        k(    2) = (  -0.1000000   0.1000000  -0.1000000), wk =   0.0160000
        k(    3) = (  -0.2000000   0.2000000  -0.2000000), wk =   0.0160000
        k(    4) = (  -0.3000000   0.3000000  -0.3000000), wk =   0.0160000
        k(    5) = (  -0.4000000   0.4000000  -0.4000000), wk =   0.0160000
        k(    6) = (   0.5000000  -0.5000000   0.5000000), wk =   0.0080000
        k(    7) = (   0.0000000   0.2000000   0.0000000), wk =   0.0120000
        k(    8) = (  -0.1000000   0.3000000  -0.1000000), wk =   0.0480000
        k(    9) = (  -0.2000000   0.4000000  -0.2000000), wk =   0.0480000
        k(   10) = (  -0.3000000   0.5000000  -0.3000000), wk =   0.0480000
        k(   11) = (   0.6000000  -0.4000000   0.6000000), wk =   0.0480000
        k(   12) = (   0.5000000  -0.3000000   0.5000000), wk =   0.0480000
        k(   13) = (   0.4000000  -0.2000000   0.4000000), wk =   0.0480000
        k(   14) = (   0.3000000  -0.1000000   0.3000000), wk =   0.0480000
        k(   15) = (   0.2000000   0.0000000   0.2000000), wk =   0.0240000
        k(   16) = (   0.0000000   0.4000000   0.0000000), wk =   0.0120000
        k(   17) = (  -0.1000000   0.5000000  -0.1000000), wk =   0.0480000
        k(   18) = (  -0.2000000   0.6000000  -0.2000000), wk =   0.0480000
        k(   19) = (   0.7000000  -0.3000000   0.7000000), wk =   0.0480000
        k(   20) = (   0.6000000  -0.2000000   0.6000000), wk =   0.0480000
        k(   21) = (   0.5000000  -0.1000000   0.5000000), wk =   0.0480000
        k(   22) = (   0.4000000   0.0000000   0.4000000), wk =   0.0240000
        k(   23) = (   0.0000000   0.6000000   0.0000000), wk =   0.0120000
        k(   24) = (  -0.1000000   0.7000000  -0.1000000), wk =   0.0480000
        k(   25) = (   0.8000000  -0.2000000   0.8000000), wk =   0.0480000
        k(   26) = (   0.7000000  -0.1000000   0.7000000), wk =   0.0480000
        k(   27) = (   0.6000000  -0.0000000   0.6000000), wk =   0.0240000
        k(   28) = (   0.0000000   0.8000000   0.0000000), wk =   0.0120000
        k(   29) = (   0.9000000  -0.1000000   0.9000000), wk =   0.0480000
        k(   30) = (   0.8000000   0.0000000   0.8000000), wk =   0.0240000
        k(   31) = (   0.0000000  -1.0000000   0.0000000), wk =   0.0060000
        k(   32) = (  -0.2000000   0.4000000   0.0000000), wk =   0.0480000
        k(   33) = (  -0.3000000   0.5000000  -0.1000000), wk =   0.0960000
        k(   34) = (   0.6000000  -0.4000000   0.8000000), wk =   0.0960000
        k(   35) = (   0.5000000  -0.3000000   0.7000000), wk =   0.0480000
        k(   36) = (  -0.2000000   0.6000000   0.0000000), wk =   0.0480000
        k(   37) = (   0.7000000  -0.3000000   0.9000000), wk =   0.0960000
        k(   38) = (   0.6000000  -0.2000000   0.8000000), wk =   0.0960000
        k(   39) = (   0.5000000  -0.1000000   0.7000000), wk =   0.0960000
        k(   40) = (   0.4000000   0.0000000   0.6000000), wk =   0.0480000
        k(   41) = (   0.8000000  -0.2000000   1.0000000), wk =   0.0480000
        k(   42) = (   0.7000000  -0.1000000   0.9000000), wk =   0.0960000
        k(   43) = (   0.6000000   0.0000000   0.8000000), wk =   0.0480000
        k(   44) = (  -0.2000000  -1.0000000   0.0000000), wk =   0.0240000
        k(   45) = (   0.6000000  -0.2000000   1.0000000), wk =   0.0480000
        k(   46) = (   0.5000000  -0.1000000   0.9000000), wk =   0.0480000
        k(   47) = (  -0.4000000  -1.0000000   0.0000000), wk =   0.0240000

     Dense  grid:    13635 G-vectors     FFT dimensions: (  36,  36,  36)

     Estimated max dynamical RAM per process >      26.51 MB

     WARNING: libxc functional with ID  263 depends
      on external parameters: check the user_guide of
      QE if you need to modify them or to check their
      default values.

     Initial potential from superposition of free atoms

     starting charge       7.9953, renormalised to       8.0000
     Starting wfcs are   13 randomized atomic wfcs

     total cpu time spent up to now is        6.3 secs

     Self-consistent Calculation

     iteration #  1     ecut=    50.00 Ry     beta= 0.20
     Davidson diagonalization with overlap
     ethr =  1.00E-02,  avg # of iterations =  1.0

     total cpu time spent up to now is       11.1 secs

     total energy              =     -30.69786397 Ry
     estimated scf accuracy    <       0.35827772 Ry

     iteration #  2     ecut=    50.00 Ry     beta= 0.20
     Davidson diagonalization with overlap
     ethr =  4.48E-03,  avg # of iterations =  1.0

     total cpu time spent up to now is       15.8 secs

     total energy              =     -30.73426699 Ry
     estimated scf accuracy    <       0.23337983 Ry

     iteration #  3     ecut=    50.00 Ry     beta= 0.20
     Davidson diagonalization with overlap
     ethr =  2.92E-03,  avg # of iterations =  1.0

     total cpu time spent up to now is       20.0 secs

     total energy              =     -30.73705351 Ry
     estimated scf accuracy    <       0.00305774 Ry

     iteration #  4     ecut=    50.00 Ry     beta= 0.20
     Davidson diagonalization with overlap
     ethr =  3.82E-05,  avg # of iterations =  2.0

     total cpu time spent up to now is       23.5 secs

     total energy              =     -30.73743875 Ry
     estimated scf accuracy    <       0.00140477 Ry

     iteration #  5     ecut=    50.00 Ry     beta= 0.20
     Davidson diagonalization with overlap
     ethr =  1.76E-05,  avg # of iterations =  1.9

     total cpu time spent up to now is       26.3 secs

     total energy              =     -30.73771712 Ry
     estimated scf accuracy    <       0.00026995 Ry

     iteration #  6     ecut=    50.00 Ry     beta= 0.20
     Davidson diagonalization with overlap
     ethr =  3.37E-06,  avg # of iterations =  2.0

     total cpu time spent up to now is       29.6 secs

     total energy              =     -30.73777451 Ry
     estimated scf accuracy    <       0.00009991 Ry

     iteration #  7     ecut=    50.00 Ry     beta= 0.20
     Davidson diagonalization with overlap
     ethr =  1.25E-06,  avg # of iterations =  1.0

     total cpu time spent up to now is       31.9 secs

     total energy              =     -30.73776543 Ry
     estimated scf accuracy    <       0.00003034 Ry

     iteration #  8     ecut=    50.00 Ry     beta= 0.20
     Davidson diagonalization with overlap
     ethr =  3.79E-07,  avg # of iterations =  2.0

     total cpu time spent up to now is       34.6 secs

     End of self-consistent calculation

          k = 0.0000 0.0000 0.0000 (  1687 PWs)   bands (ev):

   -13.8158  -0.6159  -0.6159  -0.6159

          k =-0.1000 0.1000-0.1000 (  1720 PWs)   bands (ev):

   -13.7846  -0.8665  -0.6344  -0.6344

          k =-0.2000 0.2000-0.2000 (  1714 PWs)   bands (ev):

   -13.6999  -1.4440  -0.6816  -0.6816

          k =-0.3000 0.3000-0.3000 (  1685 PWs)   bands (ev):

   -13.5908  -2.0571  -0.7375  -0.7375

          k =-0.4000 0.4000-0.4000 (  1685 PWs)   bands (ev):

   -13.4991  -2.5016  -0.7810  -0.7810

          k = 0.5000-0.5000 0.5000 (  1694 PWs)   bands (ev):

   -13.4632  -2.6625  -0.7972  -0.7972

          k = 0.0000 0.2000 0.0000 (  1719 PWs)   bands (ev):

   -13.7740  -0.8461  -0.6951  -0.6951

          k =-0.1000 0.3000-0.1000 (  1720 PWs)   bands (ev):

   -13.7067  -1.2859  -0.7756  -0.7286

          k =-0.2000 0.4000-0.2000 (  1698 PWs)   bands (ev):

   -13.6049  -1.8693  -0.8438  -0.7933

          k =-0.3000 0.5000-0.3000 (  1696 PWs)   bands (ev):

   -13.5064  -2.3513  -0.8866  -0.8749

          k = 0.6000-0.4000 0.6000 (  1705 PWs)   bands (ev):

   -13.4512  -2.5953  -0.9713  -0.8588

          k = 0.5000-0.3000 0.5000 (  1707 PWs)   bands (ev):

   -13.4633  -2.5406  -1.0147  -0.8015

          k = 0.4000-0.2000 0.4000 (  1704 PWs)   bands (ev):

   -13.5374  -2.2029  -0.9985  -0.7235

          k = 0.3000-0.1000 0.3000 (  1708 PWs)   bands (ev):

   -13.6417  -1.6776  -0.9199  -0.6532

          k = 0.2000 0.0000 0.2000 (  1717 PWs)   bands (ev):

   -13.7352  -1.1528  -0.7825  -0.6184

          k = 0.0000 0.4000 0.0000 (  1696 PWs)   bands (ev):

   -13.6593  -1.3937  -0.8954  -0.8954

          k =-0.1000 0.5000-0.1000 (  1698 PWs)   bands (ev):

   -13.5744  -1.8030  -1.0024  -0.9945

          k =-0.2000 0.6000-0.2000 (  1700 PWs)   bands (ev):

   -13.4820  -2.2067  -1.1609  -1.0383

          k = 0.7000-0.3000 0.7000 (  1700 PWs)   bands (ev):

   -13.4186  -2.4406  -1.3425  -1.0128

          k = 0.6000-0.2000 0.6000 (  1704 PWs)   bands (ev):

   -13.4113  -2.4414  -1.4693  -0.9265

          k = 0.5000-0.1000 0.5000 (  1705 PWs)   bands (ev):

   -13.4632  -2.2333  -1.4665  -0.8086

          k = 0.4000 0.0000 0.4000 (  1708 PWs)   bands (ev):

   -13.5519  -1.9410  -1.2659  -0.7030

          k = 0.0000 0.6000 0.0000 (  1712 PWs)   bands (ev):

   -13.5099  -2.0054  -1.1295  -1.1295

          k =-0.1000 0.7000-0.1000 (  1699 PWs)   bands (ev):

   -13.4343  -2.2726  -1.2876  -1.2024

          k = 0.8000-0.2000 0.8000 (  1697 PWs)   bands (ev):

   -13.3774  -2.3944  -1.5550  -1.1908

          k = 0.7000-0.1000 0.7000 (  1702 PWs)   bands (ev):

   -13.3625  -2.2985  -1.8498  -1.0980

          k = 0.6000-0.0000 0.6000 (  1704 PWs)   bands (ev):

   -13.3959  -2.1475  -1.9131  -0.9534

          k = 0.0000 0.8000 0.0000 (  1708 PWs)   bands (ev):

   -13.3812  -2.4717  -1.3093  -1.3093

          k = 0.9000-0.1000 0.9000 (  1704 PWs)   bands (ev):

   -13.3432  -2.5561  -1.4572  -1.3260

          k = 0.8000 0.0000 0.8000 (  1692 PWs)   bands (ev):

   -13.3360  -2.4445  -1.7274  -1.2479

          k = 0.0000-1.0000 0.0000 (  1724 PWs)   bands (ev):

   -13.3302  -2.6456  -1.3759  -1.3759

          k =-0.2000 0.4000 0.0000 (  1704 PWs)   bands (ev):

   -13.6302  -1.6200  -1.0019  -0.7522

          k =-0.3000 0.5000-0.1000 (  1700 PWs)   bands (ev):

   -13.5327  -2.0452  -1.1833  -0.8167

          k = 0.6000-0.4000 0.8000 (  1711 PWs)   bands (ev):

   -13.4510  -2.3853  -1.2737  -0.8996

          k = 0.5000-0.3000 0.7000 (  1708 PWs)   bands (ev):

   -13.4190  -2.5128  -1.2984  -0.9381

          k =-0.2000 0.6000 0.0000 (  1695 PWs)   bands (ev):

   -13.4936  -2.0752  -1.2566  -1.0322

          k = 0.7000-0.3000 0.9000 (  1699 PWs)   bands (ev):

   -13.4181  -2.2881  -1.4801  -1.1019

          k = 0.6000-0.2000 0.8000 (  1698 PWs)   bands (ev):

   -13.3782  -2.3546  -1.6691  -1.1091

          k = 0.5000-0.1000 0.7000 (  1696 PWs)   bands (ev):

   -13.3909  -2.2743  -1.7456  -1.0283

          k = 0.4000 0.0000 0.6000 (  1700 PWs)   bands (ev):

   -13.4507  -2.1631  -1.5668  -0.9069

          k = 0.8000-0.2000 1.0000 (  1692 PWs)   bands (ev):

   -13.3768  -2.4156  -1.4510  -1.2785

          k = 0.7000-0.1000 0.9000 (  1694 PWs)   bands (ev):

   -13.3442  -2.3880  -1.7123  -1.2849

          k = 0.6000 0.0000 0.8000 (  1697 PWs)   bands (ev):

   -13.3498  -2.1692  -2.0086  -1.1834

          k =-0.2000-1.0000 0.0000 (  1694 PWs)   bands (ev):

   -13.3306  -2.5440  -1.5228  -1.3722

          k = 0.6000-0.2000 1.0000 (  1693 PWs)   bands (ev):

   -13.3653  -2.2534  -1.7929  -1.2143

          k = 0.5000-0.1000 0.9000 (  1700 PWs)   bands (ev):

   -13.3450  -2.1674  -1.9717  -1.2739

          k =-0.4000-1.0000 0.0000 (  1708 PWs)   bands (ev):

   -13.3319  -2.2622  -1.8757  -1.3664

     highest occupied level (ev):    -0.6159

!    total energy              =     -30.73777162 Ry
     estimated scf accuracy    <       0.00000277 Ry

     The total energy is the sum of the following terms:
     one-electron contribution =      -7.92667897 Ry
     hartree contribution      =       6.88776341 Ry
     xc contribution           =      -6.29457283 Ry
     ewald contribution        =     -23.40428323 Ry

     convergence has been achieved in   8 iterations
     Writing meta-gga kinetic term

     Writing all to output data dir ./input_pw/LiCl/9/pwscf.save/
     Writing meta-gga kinetic term
 
     init_run     :      3.01s CPU      6.23s WALL (       1 calls)
     electrons    :     20.90s CPU     28.32s WALL (       1 calls)

     Called by init_run:
     wfcinit      :      2.87s CPU      5.89s WALL (       1 calls)
     potinit      :      0.03s CPU      0.16s WALL (       1 calls)
     hinit0       :      0.09s CPU      0.17s WALL (       1 calls)

     Called by electrons:
     c_bands      :     16.55s CPU     22.56s WALL (       8 calls)
     sum_band     :      3.87s CPU      5.09s WALL (       8 calls)
     v_of_rho     :      0.26s CPU      0.48s WALL (       9 calls)
     mix_rho      :      0.23s CPU      0.31s WALL (       8 calls)

     Called by c_bands:
     init_us_2    :      0.17s CPU      0.22s WALL (     799 calls)
     init_us_2:cp :      0.17s CPU      0.22s WALL (     799 calls)
     cegterg      :     16.39s CPU     22.37s WALL (     376 calls)

     Called by *egterg:
     cdiaghg      :      0.06s CPU      0.09s WALL (     934 calls)
     h_psi        :     18.93s CPU     27.72s WALL (     981 calls)
     g_psi        :      0.01s CPU      0.01s WALL (     558 calls)

     Called by h_psi:
     h_psi:calbec :      0.05s CPU      0.07s WALL (     981 calls)
     vloc_psi     :      4.71s CPU      6.93s WALL (     981 calls)
     add_vuspsi   :      0.04s CPU      0.06s WALL (     981 calls)
     h_psi_meta   :     14.10s CPU     20.63s WALL (     981 calls)

     General routines
     calbec       :      0.05s CPU      0.06s WALL (     981 calls)
     fft          :      0.05s CPU      0.16s WALL (     105 calls)
     ffts         :      0.10s CPU      0.12s WALL (     183 calls)
     fftw         :     19.81s CPU     28.51s WALL (   38552 calls)
     interpolate  :      0.00s CPU      0.00s WALL (       9 calls)
 
     Parallel routines
 
     PWSCF        :     23.97s CPU     34.64s WALL

 
   This run was terminated on:  14:24:52   7Jul2023            

=------------------------------------------------------------------------------=
   JOB DONE.
=------------------------------------------------------------------------------=
