
     Program PWSCF v.7.0 starts on 29Mar2023 at 10:21:34 

     This program is part of the open-source Quantum ESPRESSO suite
     for quantum simulation of materials; please cite
         "P. Giannozzi et al., J. Phys.:Condens. Matter 21 395502 (2009);
         "P. Giannozzi et al., J. Phys.:Condens. Matter 29 465901 (2017);
         "P. Giannozzi et al., J. Chem. Phys. 152 154105 (2020);
          URL http://www.quantum-espresso.org", 
     in publications or presentations arising from this work. More details at
     http://www.quantum-espresso.org/quote

     Parallel version (MPI), running on     1 processors

     MPI processes distributed on     1 nodes
     24124 MiB available memory on the printing compute node when the environment starts
 
     Waiting for input...
     Reading input from standard input
Warning: card &CELL ignored
Warning: card / ignored

     Current dimensions of program PWSCF are:
     Max number of different atomic species (ntypx) = 10
     Max number of k-points (npk) =  40000
     Max angular momentum in pseudopotentials (lmaxx) =  4
     file Cl.SCAN.UPF2: wavefunction(s)  0D renormalized

     WARNING: the MGGA functional with ID    5 has been 
     read together with other dft terms, but it should 
     stand alone in order to work properly. The other 
     terms will be ignored.

     WARNING: the MGGA functional with ID    5 has been 
     read together with other dft terms, but it should 
     stand alone in order to work properly. The other 
     terms will be ignored.

     Subspace diagonalization in iterative solution of the eigenvalue problem:
     a serial algorithm will be used

 
     G-vector sticks info
     --------------------
     sticks:   dense  smooth     PW     G-vecs:    dense   smooth      PW
     Sum         745     745    235                13635    13635    2277
 
     Using Slab Decomposition
 


     bravais-lattice index     =            2
     lattice parameter (alat)  =      10.4468  a.u.
     unit-cell volume          =     285.0295 (a.u.)^3
     number of atoms/cell      =            2
     number of atomic types    =            2
     number of electrons       =         8.00
     number of Kohn-Sham states=            4
     kinetic-energy cutoff     =      50.0000  Ry
     charge density cutoff     =     200.0000  Ry
     scf convergence threshold =      1.0E-06
     mixing beta               =       0.0100
     number of iterations used =            8  local-TF  mixing
     Exchange-correlation= SLA  PW   SCAN SCAN
                           (   0   0   0   0   0 263 267)

     celldm(1)=  10.446800  celldm(2)=   0.000000  celldm(3)=   0.000000
     celldm(4)=   0.000000  celldm(5)=   0.000000  celldm(6)=   0.000000

     crystal axes: (cart. coord. in units of alat)
               a(1) = (  -0.500000   0.000000   0.500000 )  
               a(2) = (   0.000000   0.500000   0.500000 )  
               a(3) = (  -0.500000   0.500000   0.000000 )  

     reciprocal axes: (cart. coord. in units 2 pi/alat)
               b(1) = ( -1.000000 -1.000000  1.000000 )  
               b(2) = (  1.000000  1.000000  1.000000 )  
               b(3) = ( -1.000000  1.000000 -1.000000 )  


     PseudoPot. # 1 for Li read from file:
     ~/Documents/TA/PWDFT.jl/pseudopotentials/scan_upf/Li.SCAN.UPF2
     MD5 check sum: Not computed, couldn't open file
     Pseudo is Norm-conserving, Zval =  1.0
     Generated by new atomic code, or converted to UPF format
     Using radial grid of 1321 points,  1 beta functions with: 
                l(1) =   0

     PseudoPot. # 2 for Cl read from file:
     ~/Documents/TA/PWDFT.jl/pseudopotentials/scan_upf/Cl.SCAN.UPF2
     MD5 check sum: Not computed, couldn't open file
     Pseudo is Norm-conserving, Zval =  7.0
     Generated by new atomic code, or converted to UPF format
     Using radial grid of 1493 points,  2 beta functions with: 
                l(1) =   0
                l(2) =   1

     atomic species   valence    mass     pseudopotential
        Li             1.00     6.94100     Li( 1.00)
        Cl             7.00    35.45300     Cl( 1.00)

     48 Sym. Ops., with inversion, found



   Cartesian axes

     site n.     atom                  positions (alat units)
         1           Li  tau(   1) = (   0.0000000   0.0000000   0.0000000  )
         2           Cl  tau(   2) = (   0.5000000   0.5000000   0.5000000  )

     number of k points=    47
                       cart. coord. in units 2pi/alat
        k(    1) = (   0.0000000   0.0000000   0.0000000), wk =   0.0020000
        k(    2) = (  -0.1000000   0.1000000  -0.1000000), wk =   0.0160000
        k(    3) = (  -0.2000000   0.2000000  -0.2000000), wk =   0.0160000
        k(    4) = (  -0.3000000   0.3000000  -0.3000000), wk =   0.0160000
        k(    5) = (  -0.4000000   0.4000000  -0.4000000), wk =   0.0160000
        k(    6) = (   0.5000000  -0.5000000   0.5000000), wk =   0.0080000
        k(    7) = (   0.0000000   0.2000000   0.0000000), wk =   0.0120000
        k(    8) = (  -0.1000000   0.3000000  -0.1000000), wk =   0.0480000
        k(    9) = (  -0.2000000   0.4000000  -0.2000000), wk =   0.0480000
        k(   10) = (  -0.3000000   0.5000000  -0.3000000), wk =   0.0480000
        k(   11) = (   0.6000000  -0.4000000   0.6000000), wk =   0.0480000
        k(   12) = (   0.5000000  -0.3000000   0.5000000), wk =   0.0480000
        k(   13) = (   0.4000000  -0.2000000   0.4000000), wk =   0.0480000
        k(   14) = (   0.3000000  -0.1000000   0.3000000), wk =   0.0480000
        k(   15) = (   0.2000000   0.0000000   0.2000000), wk =   0.0240000
        k(   16) = (   0.0000000   0.4000000   0.0000000), wk =   0.0120000
        k(   17) = (  -0.1000000   0.5000000  -0.1000000), wk =   0.0480000
        k(   18) = (  -0.2000000   0.6000000  -0.2000000), wk =   0.0480000
        k(   19) = (   0.7000000  -0.3000000   0.7000000), wk =   0.0480000
        k(   20) = (   0.6000000  -0.2000000   0.6000000), wk =   0.0480000
        k(   21) = (   0.5000000  -0.1000000   0.5000000), wk =   0.0480000
        k(   22) = (   0.4000000   0.0000000   0.4000000), wk =   0.0240000
        k(   23) = (   0.0000000   0.6000000   0.0000000), wk =   0.0120000
        k(   24) = (  -0.1000000   0.7000000  -0.1000000), wk =   0.0480000
        k(   25) = (   0.8000000  -0.2000000   0.8000000), wk =   0.0480000
        k(   26) = (   0.7000000  -0.1000000   0.7000000), wk =   0.0480000
        k(   27) = (   0.6000000  -0.0000000   0.6000000), wk =   0.0240000
        k(   28) = (   0.0000000   0.8000000   0.0000000), wk =   0.0120000
        k(   29) = (   0.9000000  -0.1000000   0.9000000), wk =   0.0480000
        k(   30) = (   0.8000000   0.0000000   0.8000000), wk =   0.0240000
        k(   31) = (   0.0000000  -1.0000000   0.0000000), wk =   0.0060000
        k(   32) = (  -0.2000000   0.4000000   0.0000000), wk =   0.0480000
        k(   33) = (  -0.3000000   0.5000000  -0.1000000), wk =   0.0960000
        k(   34) = (   0.6000000  -0.4000000   0.8000000), wk =   0.0960000
        k(   35) = (   0.5000000  -0.3000000   0.7000000), wk =   0.0480000
        k(   36) = (  -0.2000000   0.6000000   0.0000000), wk =   0.0480000
        k(   37) = (   0.7000000  -0.3000000   0.9000000), wk =   0.0960000
        k(   38) = (   0.6000000  -0.2000000   0.8000000), wk =   0.0960000
        k(   39) = (   0.5000000  -0.1000000   0.7000000), wk =   0.0960000
        k(   40) = (   0.4000000   0.0000000   0.6000000), wk =   0.0480000
        k(   41) = (   0.8000000  -0.2000000   1.0000000), wk =   0.0480000
        k(   42) = (   0.7000000  -0.1000000   0.9000000), wk =   0.0960000
        k(   43) = (   0.6000000   0.0000000   0.8000000), wk =   0.0480000
        k(   44) = (  -0.2000000  -1.0000000   0.0000000), wk =   0.0240000
        k(   45) = (   0.6000000  -0.2000000   1.0000000), wk =   0.0480000
        k(   46) = (   0.5000000  -0.1000000   0.9000000), wk =   0.0480000
        k(   47) = (  -0.4000000  -1.0000000   0.0000000), wk =   0.0240000

     Dense  grid:    13635 G-vectors     FFT dimensions: (  36,  36,  36)

     Estimated max dynamical RAM per process >      26.51 MB

     WARNING: libxc functional with ID  263 depends
      on external parameters: check the user_guide of
      QE if you need to modify them or to check their
      default values.

     Initial potential from superposition of free atoms

     starting charge       7.9953, renormalised to       8.0000
     Starting wfcs are   13 randomized atomic wfcs

     total cpu time spent up to now is        6.7 secs

     Self-consistent Calculation

     iteration #  1     ecut=    50.00 Ry     beta= 0.01
     Davidson diagonalization with overlap
     ethr =  1.00E-02,  avg # of iterations =  1.0

     total cpu time spent up to now is       11.3 secs

     total energy              =     -30.65351508 Ry
     estimated scf accuracy    <       0.35827795 Ry

     iteration #  2     ecut=    50.00 Ry     beta= 0.01
     Davidson diagonalization with overlap
     ethr =  4.48E-03,  avg # of iterations =  1.0

     total cpu time spent up to now is       16.0 secs

     total energy              =     -30.68488727 Ry
     estimated scf accuracy    <       0.34111053 Ry

     iteration #  3     ecut=    50.00 Ry     beta= 0.01
     Davidson diagonalization with overlap
     ethr =  4.26E-03,  avg # of iterations =  1.0

     total cpu time spent up to now is       20.6 secs

     total energy              =     -30.73639265 Ry
     estimated scf accuracy    <       0.25233629 Ry

     iteration #  4     ecut=    50.00 Ry     beta= 0.01
     Davidson diagonalization with overlap
     ethr =  3.15E-03,  avg # of iterations =  1.0

     total cpu time spent up to now is       25.4 secs

     total energy              =     -30.73867461 Ry
     estimated scf accuracy    <       0.00564262 Ry

     iteration #  5     ecut=    50.00 Ry     beta= 0.01
     Davidson diagonalization with overlap
     ethr =  7.05E-05,  avg # of iterations =  1.0

     total cpu time spent up to now is       30.2 secs

     total energy              =     -30.73834474 Ry
     estimated scf accuracy    <       0.00556312 Ry

     iteration #  6     ecut=    50.00 Ry     beta= 0.01
     Davidson diagonalization with overlap
     ethr =  6.95E-05,  avg # of iterations =  1.0

     total cpu time spent up to now is       34.8 secs

     total energy              =     -30.73622874 Ry
     estimated scf accuracy    <       0.00457297 Ry

     iteration #  7     ecut=    50.00 Ry     beta= 0.01
     Davidson diagonalization with overlap
     ethr =  5.72E-05,  avg # of iterations =  2.0

     total cpu time spent up to now is       39.9 secs

     total energy              =     -30.73834882 Ry
     estimated scf accuracy    <       0.00349317 Ry

     iteration #  8     ecut=    50.00 Ry     beta= 0.01
     Davidson diagonalization with overlap
     ethr =  4.37E-05,  avg # of iterations =  1.0

     total cpu time spent up to now is       42.8 secs

     total energy              =     -30.73790043 Ry
     estimated scf accuracy    <       0.00329037 Ry

     iteration #  9     ecut=    50.00 Ry     beta= 0.01
     Davidson diagonalization with overlap
     ethr =  4.11E-05,  avg # of iterations =  1.0

     total cpu time spent up to now is       45.2 secs

     total energy              =     -30.73760847 Ry
     estimated scf accuracy    <       0.00156393 Ry

     iteration # 10     ecut=    50.00 Ry     beta= 0.01
     Davidson diagonalization with overlap
     ethr =  1.95E-05,  avg # of iterations =  1.9

     total cpu time spent up to now is       47.9 secs

     total energy              =     -30.73776624 Ry
     estimated scf accuracy    <       0.00001639 Ry

     iteration # 11     ecut=    50.00 Ry     beta= 0.01
     Davidson diagonalization with overlap
     ethr =  2.05E-07,  avg # of iterations =  2.0

     total cpu time spent up to now is       51.2 secs

     total energy              =     -30.73779301 Ry
     estimated scf accuracy    <       0.00002473 Ry

     iteration # 12     ecut=    50.00 Ry     beta= 0.01
     Davidson diagonalization with overlap
     ethr =  2.05E-07,  avg # of iterations =  2.0

     total cpu time spent up to now is       54.6 secs

     total energy              =     -30.73775806 Ry
     estimated scf accuracy    <       0.00007912 Ry

     iteration # 13     ecut=    50.00 Ry     beta= 0.01
     Davidson diagonalization with overlap
     ethr =  2.05E-07,  avg # of iterations =  2.0

     total cpu time spent up to now is       58.0 secs

     End of self-consistent calculation

          k = 0.0000 0.0000 0.0000 (  1687 PWs)   bands (ev):

   -13.8224  -0.6210  -0.6210  -0.6210

          k =-0.1000 0.1000-0.1000 (  1720 PWs)   bands (ev):

   -13.7913  -0.8713  -0.6395  -0.6395

          k =-0.2000 0.2000-0.2000 (  1714 PWs)   bands (ev):

   -13.7066  -1.4480  -0.6867  -0.6867

          k =-0.3000 0.3000-0.3000 (  1685 PWs)   bands (ev):

   -13.5975  -2.0606  -0.7426  -0.7426

          k =-0.4000 0.4000-0.4000 (  1685 PWs)   bands (ev):

   -13.5059  -2.5047  -0.7860  -0.7860

          k = 0.5000-0.5000 0.5000 (  1694 PWs)   bands (ev):

   -13.4701  -2.6655  -0.8022  -0.8022

          k = 0.0000 0.2000 0.0000 (  1719 PWs)   bands (ev):

   -13.7806  -0.8509  -0.7002  -0.7002

          k =-0.1000 0.3000-0.1000 (  1720 PWs)   bands (ev):

   -13.7134  -1.2901  -0.7806  -0.7336

          k =-0.2000 0.4000-0.2000 (  1698 PWs)   bands (ev):

   -13.6117  -1.8729  -0.8488  -0.7982

          k =-0.3000 0.5000-0.3000 (  1696 PWs)   bands (ev):

   -13.5132  -2.3545  -0.8915  -0.8799

          k = 0.6000-0.4000 0.6000 (  1705 PWs)   bands (ev):

   -13.4580  -2.5984  -0.9760  -0.8637

          k = 0.5000-0.3000 0.5000 (  1707 PWs)   bands (ev):

   -13.4702  -2.5437  -1.0194  -0.8066

          k = 0.4000-0.2000 0.4000 (  1704 PWs)   bands (ev):

   -13.5443  -2.2062  -1.0032  -0.7286

          k = 0.3000-0.1000 0.3000 (  1708 PWs)   bands (ev):

   -13.6484  -1.6814  -0.9247  -0.6584

          k = 0.2000 0.0000 0.2000 (  1717 PWs)   bands (ev):

   -13.7418  -1.1571  -0.7875  -0.6236

          k = 0.0000 0.4000 0.0000 (  1696 PWs)   bands (ev):

   -13.6660  -1.3977  -0.9002  -0.9002

          k =-0.1000 0.5000-0.1000 (  1698 PWs)   bands (ev):

   -13.5812  -1.8066  -1.0071  -0.9992

          k =-0.2000 0.6000-0.2000 (  1700 PWs)   bands (ev):

   -13.4889  -2.2100  -1.1654  -1.0430

          k = 0.7000-0.3000 0.7000 (  1700 PWs)   bands (ev):

   -13.4255  -2.4438  -1.3468  -1.0176

          k = 0.6000-0.2000 0.6000 (  1704 PWs)   bands (ev):

   -13.4182  -2.4445  -1.4734  -0.9314

          k = 0.5000-0.1000 0.5000 (  1705 PWs)   bands (ev):

   -13.4700  -2.2366  -1.4706  -0.8136

          k = 0.4000 0.0000 0.4000 (  1708 PWs)   bands (ev):

   -13.5587  -1.9445  -1.2703  -0.7081

          k = 0.0000 0.6000 0.0000 (  1712 PWs)   bands (ev):

   -13.5168  -2.0088  -1.1341  -1.1341

          k =-0.1000 0.7000-0.1000 (  1699 PWs)   bands (ev):

   -13.4412  -2.2758  -1.2920  -1.2070

          k = 0.8000-0.2000 0.8000 (  1697 PWs)   bands (ev):

   -13.3843  -2.3976  -1.5590  -1.1953

          k = 0.7000-0.1000 0.7000 (  1702 PWs)   bands (ev):

   -13.3695  -2.3017  -1.8535  -1.1026

          k = 0.6000-0.0000 0.6000 (  1704 PWs)   bands (ev):

   -13.4028  -2.1509  -1.9167  -0.9582

          k = 0.0000 0.8000 0.0000 (  1708 PWs)   bands (ev):

   -13.3881  -2.4747  -1.3137  -1.3137

          k = 0.9000-0.1000 0.9000 (  1704 PWs)   bands (ev):

   -13.3502  -2.5591  -1.4614  -1.3305

          k = 0.8000 0.0000 0.8000 (  1692 PWs)   bands (ev):

   -13.3430  -2.4476  -1.7313  -1.2524

          k = 0.0000-1.0000 0.0000 (  1724 PWs)   bands (ev):

   -13.3372  -2.6485  -1.3802  -1.3802

          k =-0.2000 0.4000 0.0000 (  1704 PWs)   bands (ev):

   -13.6370  -1.6238  -1.0066  -0.7572

          k =-0.3000 0.5000-0.1000 (  1700 PWs)   bands (ev):

   -13.5395  -2.0486  -1.1877  -0.8216

          k = 0.6000-0.4000 0.8000 (  1711 PWs)   bands (ev):

   -13.4579  -2.3885  -1.2780  -0.9045

          k = 0.5000-0.3000 0.7000 (  1708 PWs)   bands (ev):

   -13.4259  -2.5159  -1.3027  -0.9429

          k =-0.2000 0.6000 0.0000 (  1695 PWs)   bands (ev):

   -13.5005  -2.0786  -1.2610  -1.0369

          k = 0.7000-0.3000 0.9000 (  1699 PWs)   bands (ev):

   -13.4250  -2.2913  -1.4842  -1.1066

          k = 0.6000-0.2000 0.8000 (  1698 PWs)   bands (ev):

   -13.3851  -2.3579  -1.6729  -1.1138

          k = 0.5000-0.1000 0.7000 (  1696 PWs)   bands (ev):

   -13.3978  -2.2776  -1.7494  -1.0330

          k = 0.4000 0.0000 0.6000 (  1700 PWs)   bands (ev):

   -13.4576  -2.1665  -1.5708  -0.9118

          k = 0.8000-0.2000 1.0000 (  1692 PWs)   bands (ev):

   -13.3837  -2.4187  -1.4553  -1.2829

          k = 0.7000-0.1000 0.9000 (  1694 PWs)   bands (ev):

   -13.3512  -2.3911  -1.7162  -1.2894

          k = 0.6000 0.0000 0.8000 (  1697 PWs)   bands (ev):

   -13.3567  -2.1726  -2.0121  -1.1879

          k =-0.2000-1.0000 0.0000 (  1694 PWs)   bands (ev):

   -13.3375  -2.5470  -1.5270  -1.3766

          k = 0.6000-0.2000 1.0000 (  1693 PWs)   bands (ev):

   -13.3722  -2.2567  -1.7967  -1.2188

          k = 0.5000-0.1000 0.9000 (  1700 PWs)   bands (ev):

   -13.3519  -2.1708  -1.9752  -1.2783

          k =-0.4000-1.0000 0.0000 (  1708 PWs)   bands (ev):

   -13.3389  -2.2655  -1.8794  -1.3707

     highest occupied level (ev):    -0.6210

!    total energy              =     -30.73777179 Ry
     estimated scf accuracy    <       0.00000084 Ry

     The total energy is the sum of the following terms:
     one-electron contribution =      -7.92985813 Ry
     hartree contribution      =       6.89200373 Ry
     xc contribution           =      -6.29568216 Ry
     ewald contribution        =     -23.40423523 Ry

     convergence has been achieved in  13 iterations
     Writing meta-gga kinetic term

     Writing all to output data dir ./input_pw/LiCl/9/pwscf.save/
     Writing meta-gga kinetic term
 
     init_run     :      3.01s CPU      6.60s WALL (       1 calls)
     electrons    :     34.56s CPU     51.29s WALL (       1 calls)

     Called by init_run:
     wfcinit      :      2.86s CPU      6.30s WALL (       1 calls)
     potinit      :      0.04s CPU      0.13s WALL (       1 calls)
     hinit0       :      0.09s CPU      0.13s WALL (       1 calls)

     Called by electrons:
     c_bands      :     27.37s CPU     40.36s WALL (      13 calls)
     sum_band     :      6.39s CPU      9.67s WALL (      13 calls)
     v_of_rho     :      0.43s CPU      0.79s WALL (      14 calls)
     mix_rho      :      0.39s CPU      0.58s WALL (      13 calls)

     Called by c_bands:
     init_us_2    :      0.28s CPU      0.36s WALL (    1269 calls)
     init_us_2:cp :      0.27s CPU      0.36s WALL (    1269 calls)
     cegterg      :     27.11s CPU     40.03s WALL (     611 calls)

     Called by *egterg:
     cdiaghg      :      0.09s CPU      0.11s WALL (    1452 calls)
     h_psi        :     29.47s CPU     45.61s WALL (    1499 calls)
     g_psi        :      0.02s CPU      0.02s WALL (     841 calls)

     Called by h_psi:
     h_psi:calbec :      0.08s CPU      0.15s WALL (    1499 calls)
     vloc_psi     :      7.29s CPU     11.12s WALL (    1499 calls)
     add_vuspsi   :      0.07s CPU      0.11s WALL (    1499 calls)
     h_psi_meta   :     21.99s CPU     34.15s WALL (    1499 calls)

     General routines
     calbec       :      0.08s CPU      0.14s WALL (    1499 calls)
     fft          :      0.09s CPU      0.19s WALL (     165 calls)
     ffts         :      0.17s CPU      0.26s WALL (     314 calls)
     fftw         :     30.96s CPU     48.07s WALL (   60256 calls)
     interpolate  :      0.00s CPU      0.00s WALL (      14 calls)
 
     Parallel routines
 
     PWSCF        :     37.62s CPU     58.01s WALL

 
   This run was terminated on:  10:22:32  29Mar2023            

=------------------------------------------------------------------------------=
   JOB DONE.
=------------------------------------------------------------------------------=
