
     Program PWSCF v.7.0 starts on 14Mar2023 at 11:48:14 

     This program is part of the open-source Quantum ESPRESSO suite
     for quantum simulation of materials; please cite
         "P. Giannozzi et al., J. Phys.:Condens. Matter 21 395502 (2009);
         "P. Giannozzi et al., J. Phys.:Condens. Matter 29 465901 (2017);
         "P. Giannozzi et al., J. Chem. Phys. 152 154105 (2020);
          URL http://www.quantum-espresso.org", 
     in publications or presentations arising from this work. More details at
     http://www.quantum-espresso.org/quote

     Parallel version (MPI), running on     1 processors

     MPI processes distributed on     1 nodes
     27675 MiB available memory on the printing compute node when the environment starts
 
     Waiting for input...
     Reading input from standard input
Warning: card &CELL ignored
Warning: card / ignored

     Current dimensions of program PWSCF are:
     Max number of different atomic species (ntypx) = 10
     Max number of k-points (npk) =  40000
     Max angular momentum in pseudopotentials (lmaxx) =  4

     WARNING: the MGGA functional with ID    5 has been 
     read together with other dft terms, but it should 
     stand alone in order to work properly. The other 
     terms will be ignored.

     Subspace diagonalization in iterative solution of the eigenvalue problem:
     a serial algorithm will be used

 
     G-vector sticks info
     --------------------
     sticks:   dense  smooth     PW     G-vecs:    dense   smooth      PW
     Sum         451     451    151                 6423     6423    1243
 
     Using Slab Decomposition
 


     bravais-lattice index     =            2
     lattice parameter (alat)  =       8.1669  a.u.
     unit-cell volume          =     136.1773 (a.u.)^3
     number of atoms/cell      =            2
     number of atomic types    =            1
     number of electrons       =         8.00
     number of Kohn-Sham states=            4
     kinetic-energy cutoff     =      50.0000  Ry
     charge density cutoff     =     200.0000  Ry
     scf convergence threshold =      1.0E-06
     mixing beta               =       0.0100
     number of iterations used =            8  local-TF  mixing
     Exchange-correlation= SLA  PW   SCAN SCAN
                           (   0   0   0   0   0 263 267)

     celldm(1)=   8.166857  celldm(2)=   0.000000  celldm(3)=   0.000000
     celldm(4)=   0.000000  celldm(5)=   0.000000  celldm(6)=   0.000000

     crystal axes: (cart. coord. in units of alat)
               a(1) = (  -0.500000   0.000000   0.500000 )  
               a(2) = (   0.000000   0.500000   0.500000 )  
               a(3) = (  -0.500000   0.500000   0.000000 )  

     reciprocal axes: (cart. coord. in units 2 pi/alat)
               b(1) = ( -1.000000 -1.000000  1.000000 )  
               b(2) = (  1.000000  1.000000  1.000000 )  
               b(3) = ( -1.000000  1.000000 -1.000000 )  


     PseudoPot. # 1 for C  read from file:
     ~/Documents/TA/PWDFT.jl/pseudopotentials/scan_upf/C.SCAN.UPF2
     MD5 check sum: Not computed, couldn't open file
     Pseudo is Norm-conserving, Zval =  4.0
     Generated by new atomic code, or converted to UPF format
     Using radial grid of 1389 points,  1 beta functions with: 
                l(1) =   0

     atomic species   valence    mass     pseudopotential
        C              4.00    12.01100     C ( 1.00)

     48 Sym. Ops., with inversion, found (24 have fractional translation)



   Cartesian axes

     site n.     atom                  positions (alat units)
         1           C   tau(   1) = (   0.0000000   0.0000000   0.0000000  )
         2           C   tau(   2) = (   0.2500000   0.2500000   0.2500000  )

     number of k points=    47
                       cart. coord. in units 2pi/alat
        k(    1) = (   0.0000000   0.0000000   0.0000000), wk =   0.0020000
        k(    2) = (  -0.1000000   0.1000000  -0.1000000), wk =   0.0160000
        k(    3) = (  -0.2000000   0.2000000  -0.2000000), wk =   0.0160000
        k(    4) = (  -0.3000000   0.3000000  -0.3000000), wk =   0.0160000
        k(    5) = (  -0.4000000   0.4000000  -0.4000000), wk =   0.0160000
        k(    6) = (   0.5000000  -0.5000000   0.5000000), wk =   0.0080000
        k(    7) = (   0.0000000   0.2000000   0.0000000), wk =   0.0120000
        k(    8) = (  -0.1000000   0.3000000  -0.1000000), wk =   0.0480000
        k(    9) = (  -0.2000000   0.4000000  -0.2000000), wk =   0.0480000
        k(   10) = (  -0.3000000   0.5000000  -0.3000000), wk =   0.0480000
        k(   11) = (   0.6000000  -0.4000000   0.6000000), wk =   0.0480000
        k(   12) = (   0.5000000  -0.3000000   0.5000000), wk =   0.0480000
        k(   13) = (   0.4000000  -0.2000000   0.4000000), wk =   0.0480000
        k(   14) = (   0.3000000  -0.1000000   0.3000000), wk =   0.0480000
        k(   15) = (   0.2000000   0.0000000   0.2000000), wk =   0.0240000
        k(   16) = (   0.0000000   0.4000000   0.0000000), wk =   0.0120000
        k(   17) = (  -0.1000000   0.5000000  -0.1000000), wk =   0.0480000
        k(   18) = (  -0.2000000   0.6000000  -0.2000000), wk =   0.0480000
        k(   19) = (   0.7000000  -0.3000000   0.7000000), wk =   0.0480000
        k(   20) = (   0.6000000  -0.2000000   0.6000000), wk =   0.0480000
        k(   21) = (   0.5000000  -0.1000000   0.5000000), wk =   0.0480000
        k(   22) = (   0.4000000   0.0000000   0.4000000), wk =   0.0240000
        k(   23) = (   0.0000000   0.6000000   0.0000000), wk =   0.0120000
        k(   24) = (  -0.1000000   0.7000000  -0.1000000), wk =   0.0480000
        k(   25) = (   0.8000000  -0.2000000   0.8000000), wk =   0.0480000
        k(   26) = (   0.7000000  -0.1000000   0.7000000), wk =   0.0480000
        k(   27) = (   0.6000000  -0.0000000   0.6000000), wk =   0.0240000
        k(   28) = (   0.0000000   0.8000000   0.0000000), wk =   0.0120000
        k(   29) = (   0.9000000  -0.1000000   0.9000000), wk =   0.0480000
        k(   30) = (   0.8000000   0.0000000   0.8000000), wk =   0.0240000
        k(   31) = (   0.0000000  -1.0000000   0.0000000), wk =   0.0060000
        k(   32) = (  -0.2000000   0.4000000   0.0000000), wk =   0.0480000
        k(   33) = (  -0.3000000   0.5000000  -0.1000000), wk =   0.0960000
        k(   34) = (   0.6000000  -0.4000000   0.8000000), wk =   0.0960000
        k(   35) = (   0.5000000  -0.3000000   0.7000000), wk =   0.0480000
        k(   36) = (  -0.2000000   0.6000000   0.0000000), wk =   0.0480000
        k(   37) = (   0.7000000  -0.3000000   0.9000000), wk =   0.0960000
        k(   38) = (   0.6000000  -0.2000000   0.8000000), wk =   0.0960000
        k(   39) = (   0.5000000  -0.1000000   0.7000000), wk =   0.0960000
        k(   40) = (   0.4000000   0.0000000   0.6000000), wk =   0.0480000
        k(   41) = (   0.8000000  -0.2000000   1.0000000), wk =   0.0480000
        k(   42) = (   0.7000000  -0.1000000   0.9000000), wk =   0.0960000
        k(   43) = (   0.6000000   0.0000000   0.8000000), wk =   0.0480000
        k(   44) = (  -0.2000000  -1.0000000   0.0000000), wk =   0.0240000
        k(   45) = (   0.6000000  -0.2000000   1.0000000), wk =   0.0480000
        k(   46) = (   0.5000000  -0.1000000   0.9000000), wk =   0.0480000
        k(   47) = (  -0.4000000  -1.0000000   0.0000000), wk =   0.0240000

     Dense  grid:     6423 G-vectors     FFT dimensions: (  32,  32,  32)

     Estimated max dynamical RAM per process >      13.44 MB

     WARNING: libxc functional with ID  263 depends
      on external parameters: check the user_guide of
      QE if you need to modify them or to check their
      default values.

     Initial potential from superposition of free atoms

     starting charge       7.9999, renormalised to       8.0000
     Starting wfcs are    8 randomized atomic wfcs

     total cpu time spent up to now is        1.8 secs

     Self-consistent Calculation

     iteration #  1     ecut=    50.00 Ry     beta= 0.01
     Davidson diagonalization with overlap
     ethr =  1.00E-02,  avg # of iterations =  1.9

     total cpu time spent up to now is        4.0 secs

     total energy              =     -22.41640777 Ry
     estimated scf accuracy    <       0.99774211 Ry

     iteration #  2     ecut=    50.00 Ry     beta= 0.01
     Davidson diagonalization with overlap
     ethr =  1.00E-02,  avg # of iterations =  1.0

     total cpu time spent up to now is        5.9 secs

     total energy              =     -22.33326198 Ry
     estimated scf accuracy    <       1.02085726 Ry

     iteration #  3     ecut=    50.00 Ry     beta= 0.01
     Davidson diagonalization with overlap
     ethr =  1.00E-02,  avg # of iterations =  1.0

     total cpu time spent up to now is        7.8 secs

     total energy              =     -22.45543186 Ry
     estimated scf accuracy    <       1.90096277 Ry

     iteration #  4     ecut=    50.00 Ry     beta= 0.01
     Davidson diagonalization with overlap
     ethr =  1.00E-02,  avg # of iterations =  1.0

     total cpu time spent up to now is        9.7 secs

     total energy              =     -22.46144548 Ry
     estimated scf accuracy    <       0.00428149 Ry

     iteration #  5     ecut=    50.00 Ry     beta= 0.01
     Davidson diagonalization with overlap
     ethr =  5.35E-05,  avg # of iterations =  1.0

     total cpu time spent up to now is       11.6 secs

     total energy              =     -22.46169886 Ry
     estimated scf accuracy    <       0.00497573 Ry

     iteration #  6     ecut=    50.00 Ry     beta= 0.01
     Davidson diagonalization with overlap
     ethr =  5.35E-05,  avg # of iterations =  1.0

     total cpu time spent up to now is       13.3 secs

     total energy              =     -22.46125449 Ry
     estimated scf accuracy    <       0.00626103 Ry

     iteration #  7     ecut=    50.00 Ry     beta= 0.01
     Davidson diagonalization with overlap
     ethr =  5.35E-05,  avg # of iterations =  1.0

     total cpu time spent up to now is       14.8 secs

     total energy              =     -22.46113566 Ry
     estimated scf accuracy    <       0.00082460 Ry

     iteration #  8     ecut=    50.00 Ry     beta= 0.01
     Davidson diagonalization with overlap
     ethr =  1.03E-05,  avg # of iterations =  2.0

     total cpu time spent up to now is       16.2 secs

     total energy              =     -22.46136462 Ry
     estimated scf accuracy    <       0.00405241 Ry

     iteration #  9     ecut=    50.00 Ry     beta= 0.01
     Davidson diagonalization with overlap
     ethr =  1.03E-05,  avg # of iterations =  1.0

     total cpu time spent up to now is       17.5 secs

     total energy              =     -22.46138286 Ry
     estimated scf accuracy    <       0.00425249 Ry

     iteration # 10     ecut=    50.00 Ry     beta= 0.01
     Davidson diagonalization with overlap
     ethr =  1.03E-05,  avg # of iterations =  1.0

     total cpu time spent up to now is       18.8 secs

     total energy              =     -22.46140048 Ry
     estimated scf accuracy    <       0.00242232 Ry

     iteration # 11     ecut=    50.00 Ry     beta= 0.01
     Davidson diagonalization with overlap
     ethr =  1.03E-05,  avg # of iterations =  1.0

     total cpu time spent up to now is       19.9 secs

     total energy              =     -22.46141946 Ry
     estimated scf accuracy    <       0.00017965 Ry

     iteration # 12     ecut=    50.00 Ry     beta= 0.01
     Davidson diagonalization with overlap
     ethr =  2.25E-06,  avg # of iterations =  1.0

     total cpu time spent up to now is       20.8 secs

     total energy              =     -22.46141947 Ry
     estimated scf accuracy    <       0.00008748 Ry

     iteration # 13     ecut=    50.00 Ry     beta= 0.01
     Davidson diagonalization with overlap
     ethr =  1.09E-06,  avg # of iterations =  1.0

     total cpu time spent up to now is       21.7 secs

     total energy              =     -22.46141775 Ry
     estimated scf accuracy    <       0.00012327 Ry

     iteration # 14     ecut=    50.00 Ry     beta= 0.01
     Davidson diagonalization with overlap
     ethr =  1.09E-06,  avg # of iterations =  1.0

     total cpu time spent up to now is       22.7 secs

     End of self-consistent calculation

          k = 0.0000 0.0000 0.0000 (   869 PWs)   bands (ev):

   -11.1781   4.9767   4.9767   4.9767

          k =-0.1000 0.1000-0.1000 (   830 PWs)   bands (ev):

   -10.9910   3.5650   4.7450   4.7450

          k =-0.2000 0.2000-0.2000 (   812 PWs)   bands (ev):

   -10.4398   1.1923   4.2381   4.2381

          k =-0.3000 0.3000-0.3000 (   818 PWs)   bands (ev):

    -9.5656  -1.1624   3.7436   3.7436

          k =-0.4000 0.4000-0.4000 (   817 PWs)   bands (ev):

    -8.5107  -3.1586   3.4144   3.4144

          k = 0.5000-0.5000 0.5000 (   796 PWs)   bands (ev):

    -7.8780  -4.1093   3.3030   3.3030

          k = 0.0000 0.2000 0.0000 (   825 PWs)   bands (ev):

   -10.9284   3.6910   4.3445   4.3445

          k =-0.1000 0.3000-0.1000 (   818 PWs)   bands (ev):

   -10.4974   1.8385   3.7795   3.9644

          k =-0.2000 0.4000-0.2000 (   816 PWs)   bands (ev):

    -9.7249  -0.4256   3.3082   3.4093

          k =-0.3000 0.5000-0.3000 (   813 PWs)   bands (ev):

    -8.7018  -2.5177   2.8691   3.0495

          k = 0.6000-0.4000 0.6000 (   813 PWs)   bands (ev):

    -7.8049  -3.9221   2.4953   3.0399

          k = 0.5000-0.3000 0.5000 (   810 PWs)   bands (ev):

    -8.0378  -3.5837   2.3563   3.2699

          k = 0.4000-0.2000 0.4000 (   810 PWs)   bands (ev):

    -9.0618  -1.8545   2.4863   3.7011

          k = 0.3000-0.1000 0.3000 (   820 PWs)   bands (ev):

   -10.0192   0.3130   2.9058   4.2427

          k = 0.2000 0.0000 0.2000 (   825 PWs)   bands (ev):

   -10.6821   2.3708   3.7068   4.6936

          k = 0.0000 0.4000 0.0000 (   829 PWs)   bands (ev):

   -10.1878   1.4841   3.1772   3.1772

          k =-0.1000 0.5000-0.1000 (   828 PWs)   bands (ev):

    -9.5283  -0.1005   2.5612   2.6884

          k =-0.2000 0.6000-0.2000 (   810 PWs)   bands (ev):

    -8.5765  -1.9564   1.8075   2.4330

          k = 0.7000-0.3000 0.7000 (   812 PWs)   bands (ev):

    -7.5567  -3.5220   1.1621   2.4479

          k = 0.6000-0.2000 0.6000 (   819 PWs)   bands (ev):

    -7.3462  -3.7971   0.7905   2.7270

          k = 0.5000-0.1000 0.5000 (   809 PWs)   bands (ev):

    -8.2533  -2.4880   0.8097   3.2194

          k = 0.4000 0.0000 0.4000 (   813 PWs)   bands (ev):

    -9.2618  -0.8651   1.4444   3.8049

          k = 0.0000 0.6000 0.0000 (   821 PWs)   bands (ev):

    -8.9823  -0.8550   2.1608   2.1608

          k =-0.1000 0.7000-0.1000 (   813 PWs)   bands (ev):

    -8.1232  -2.1791   1.4640   1.8617

          k = 0.8000-0.2000 0.8000 (   805 PWs)   bands (ev):

    -7.0819  -3.5113   0.5147   1.8459

          k = 0.7000-0.1000 0.7000 (   811 PWs)   bands (ev):

    -6.5123  -4.1348  -0.1661   2.1085

          k = 0.6000-0.0000 0.6000 (   804 PWs)   bands (ev):

    -7.2475  -3.3459  -0.1833   2.6101

          k = 0.0000 0.8000 0.0000 (   805 PWs)   bands (ev):

    -7.3579  -3.1826   1.5032   1.5032

          k = 0.9000-0.1000 0.9000 (   806 PWs)   bands (ev):

    -6.3530  -4.3137   0.8992   1.4237

          k = 0.8000 0.0000 0.8000 (   808 PWs)   bands (ev):

    -5.7161  -4.8752   0.0382   1.6393

          k = 0.0000-1.0000 0.0000 (   790 PWs)   bands (ev):

    -5.3899  -5.3899   1.2784   1.2784

          k =-0.2000 0.4000 0.0000 (   830 PWs)   bands (ev):

    -9.9529   0.5763   2.5550   3.7285

          k =-0.3000 0.5000-0.1000 (   817 PWs)   bands (ev):

    -9.0881  -1.2444   1.7793   3.2584

          k = 0.6000-0.4000 0.8000 (   811 PWs)   bands (ev):

    -8.0399  -3.0397   1.4360   2.8160

          k = 0.5000-0.3000 0.7000 (   816 PWs)   bands (ev):

    -7.4036  -3.9467   1.3413   2.6396

          k =-0.2000 0.6000 0.0000 (   822 PWs)   bands (ev):

    -8.7711  -1.3123   1.5793   2.3907

          k = 0.7000-0.3000 0.9000 (   805 PWs)   bands (ev):

    -7.7640  -2.7596   0.8255   2.0010

          k = 0.6000-0.2000 0.8000 (   811 PWs)   bands (ev):

    -6.8690  -3.8923   0.3109   1.9227

          k = 0.5000-0.1000 0.7000 (   814 PWs)   bands (ev):

    -7.1451  -3.5492   0.1371   2.2142

          k = 0.4000 0.0000 0.6000 (   813 PWs)   bands (ev):

    -8.1631  -2.2945   0.5497   2.7446

          k = 0.8000-0.2000 1.0000 (   801 PWs)   bands (ev):

    -7.1944  -3.3073   1.0042   1.3898

          k = 0.7000-0.1000 0.9000 (   803 PWs)   bands (ev):

    -6.1842  -4.3465   0.2212   1.2849

          k = 0.6000 0.0000 0.8000 (   815 PWs)   bands (ev):

    -6.1982  -4.3021  -0.2766   1.6233

          k =-0.2000-1.0000 0.0000 (   804 PWs)   bands (ev):

    -5.3241  -5.3241   0.9226   0.9226

          k = 0.6000-0.2000 1.0000 (   804 PWs)   bands (ev):

    -6.7558  -3.7093   0.1556   1.3711

          k = 0.5000-0.1000 0.9000 (   806 PWs)   bands (ev):

    -6.0625  -4.3892  -0.0337   1.0673

          k =-0.4000-1.0000 0.0000 (   804 PWs)   bands (ev):

    -5.2084  -5.2084   0.4119   0.4119

     highest occupied level (ev):     4.9767

!    total energy              =     -22.46142037 Ry
     estimated scf accuracy    <       0.00000089 Ry

     The total energy is the sum of the following terms:
     one-electron contribution =       2.29920485 Ry
     hartree contribution      =       2.61533320 Ry
     xc contribution           =      -6.26899674 Ry
     ewald contribution        =     -21.10696168 Ry

     convergence has been achieved in  14 iterations
     Writing meta-gga kinetic term

     Writing all to output data dir ./input_pw/C/12/pwscf.save/
     Writing meta-gga kinetic term
 
     init_run     :      0.79s CPU      1.76s WALL (       1 calls)
     electrons    :     13.47s CPU     20.85s WALL (       1 calls)

     Called by init_run:
     wfcinit      :      0.72s CPU      1.62s WALL (       1 calls)
     potinit      :      0.02s CPU      0.04s WALL (       1 calls)
     hinit0       :      0.03s CPU      0.08s WALL (       1 calls)

     Called by electrons:
     c_bands      :     10.41s CPU     16.14s WALL (      14 calls)
     sum_band     :      2.67s CPU      4.11s WALL (      14 calls)
     v_of_rho     :      0.29s CPU      0.41s WALL (      15 calls)
     mix_rho      :      0.11s CPU      0.19s WALL (      14 calls)

     Called by c_bands:
     init_us_2    :      0.04s CPU      0.08s WALL (    1363 calls)
     init_us_2:cp :      0.04s CPU      0.07s WALL (    1363 calls)
     cegterg      :     10.35s CPU     16.07s WALL (     658 calls)

     Called by *egterg:
     cdiaghg      :      0.06s CPU      0.09s WALL (    1407 calls)
     h_psi        :     10.84s CPU     17.22s WALL (    1454 calls)
     g_psi        :      0.01s CPU      0.01s WALL (     749 calls)

     Called by h_psi:
     h_psi:calbec :      0.02s CPU      0.02s WALL (    1454 calls)
     vloc_psi     :      2.68s CPU      4.37s WALL (    1454 calls)
     add_vuspsi   :      0.03s CPU      0.03s WALL (    1454 calls)
     h_psi_meta   :      8.10s CPU     12.77s WALL (    1454 calls)

     General routines
     calbec       :      0.02s CPU      0.02s WALL (    1454 calls)
     fft          :      0.03s CPU      0.05s WALL (     177 calls)
     ffts         :      0.05s CPU      0.12s WALL (     265 calls)
     fftw         :     11.34s CPU     17.77s WALL (   57768 calls)
     interpolate  :      0.00s CPU      0.00s WALL (      15 calls)
 
     Parallel routines
 
     PWSCF        :     14.29s CPU     22.69s WALL

 
   This run was terminated on:  11:48:37  14Mar2023            

=------------------------------------------------------------------------------=
   JOB DONE.
=------------------------------------------------------------------------------=
