
     Program PWSCF v.7.0 starts on  7Jul2023 at 14:25:23 

     This program is part of the open-source Quantum ESPRESSO suite
     for quantum simulation of materials; please cite
         "P. Giannozzi et al., J. Phys.:Condens. Matter 21 395502 (2009);
         "P. Giannozzi et al., J. Phys.:Condens. Matter 29 465901 (2017);
         "P. Giannozzi et al., J. Chem. Phys. 152 154105 (2020);
          URL http://www.quantum-espresso.org", 
     in publications or presentations arising from this work. More details at
     http://www.quantum-espresso.org/quote

     Parallel version (MPI), running on     1 processors

     MPI processes distributed on     1 nodes
     27178 MiB available memory on the printing compute node when the environment starts
 
     Waiting for input...
     Reading input from standard input
Warning: card &CELL ignored
Warning: card / ignored

     Current dimensions of program PWSCF are:
     Max number of different atomic species (ntypx) = 10
     Max number of k-points (npk) =  40000
     Max angular momentum in pseudopotentials (lmaxx) =  4

     WARNING: the MGGA functional with ID    5 has been 
     read together with other dft terms, but it should 
     stand alone in order to work properly. The other 
     terms will be ignored.

     Subspace diagonalization in iterative solution of the eigenvalue problem:
     a serial algorithm will be used

 
     G-vector sticks info
     --------------------
     sticks:   dense  smooth     PW     G-vecs:    dense   smooth      PW
     Sum         379     379    121                 4909     4909     941
 
     Using Slab Decomposition
 


     bravais-lattice index     =            2
     lattice parameter (alat)  =       7.4318  a.u.
     unit-cell volume          =     102.6193 (a.u.)^3
     number of atoms/cell      =            2
     number of atomic types    =            1
     number of electrons       =         8.00
     number of Kohn-Sham states=            4
     kinetic-energy cutoff     =      50.0000  Ry
     charge density cutoff     =     200.0000  Ry
     scf convergence threshold =      2.0E-05
     mixing beta               =       0.2000
     number of iterations used =            8  local-TF  mixing
     Exchange-correlation= SLA  PW   SCAN SCAN
                           (   0   0   0   0   0 263 267)

     celldm(1)=   7.431839  celldm(2)=   0.000000  celldm(3)=   0.000000
     celldm(4)=   0.000000  celldm(5)=   0.000000  celldm(6)=   0.000000

     crystal axes: (cart. coord. in units of alat)
               a(1) = (  -0.500000   0.000000   0.500000 )  
               a(2) = (   0.000000   0.500000   0.500000 )  
               a(3) = (  -0.500000   0.500000   0.000000 )  

     reciprocal axes: (cart. coord. in units 2 pi/alat)
               b(1) = ( -1.000000 -1.000000  1.000000 )  
               b(2) = (  1.000000  1.000000  1.000000 )  
               b(3) = ( -1.000000  1.000000 -1.000000 )  


     PseudoPot. # 1 for C  read from file:
     ~/Documents/TA/PWDFT.jl/pseudopotentials/scan_upf/C.SCAN.UPF2
     MD5 check sum: Not computed, couldn't open file
     Pseudo is Norm-conserving, Zval =  4.0
     Generated by new atomic code, or converted to UPF format
     Using radial grid of 1389 points,  1 beta functions with: 
                l(1) =   0

     atomic species   valence    mass     pseudopotential
        C              4.00    12.01100     C ( 1.00)

     48 Sym. Ops., with inversion, found (24 have fractional translation)



   Cartesian axes

     site n.     atom                  positions (alat units)
         1           C   tau(   1) = (   0.0000000   0.0000000   0.0000000  )
         2           C   tau(   2) = (   0.2500000   0.2500000   0.2500000  )

     number of k points=    47
                       cart. coord. in units 2pi/alat
        k(    1) = (   0.0000000   0.0000000   0.0000000), wk =   0.0020000
        k(    2) = (  -0.1000000   0.1000000  -0.1000000), wk =   0.0160000
        k(    3) = (  -0.2000000   0.2000000  -0.2000000), wk =   0.0160000
        k(    4) = (  -0.3000000   0.3000000  -0.3000000), wk =   0.0160000
        k(    5) = (  -0.4000000   0.4000000  -0.4000000), wk =   0.0160000
        k(    6) = (   0.5000000  -0.5000000   0.5000000), wk =   0.0080000
        k(    7) = (   0.0000000   0.2000000   0.0000000), wk =   0.0120000
        k(    8) = (  -0.1000000   0.3000000  -0.1000000), wk =   0.0480000
        k(    9) = (  -0.2000000   0.4000000  -0.2000000), wk =   0.0480000
        k(   10) = (  -0.3000000   0.5000000  -0.3000000), wk =   0.0480000
        k(   11) = (   0.6000000  -0.4000000   0.6000000), wk =   0.0480000
        k(   12) = (   0.5000000  -0.3000000   0.5000000), wk =   0.0480000
        k(   13) = (   0.4000000  -0.2000000   0.4000000), wk =   0.0480000
        k(   14) = (   0.3000000  -0.1000000   0.3000000), wk =   0.0480000
        k(   15) = (   0.2000000   0.0000000   0.2000000), wk =   0.0240000
        k(   16) = (   0.0000000   0.4000000   0.0000000), wk =   0.0120000
        k(   17) = (  -0.1000000   0.5000000  -0.1000000), wk =   0.0480000
        k(   18) = (  -0.2000000   0.6000000  -0.2000000), wk =   0.0480000
        k(   19) = (   0.7000000  -0.3000000   0.7000000), wk =   0.0480000
        k(   20) = (   0.6000000  -0.2000000   0.6000000), wk =   0.0480000
        k(   21) = (   0.5000000  -0.1000000   0.5000000), wk =   0.0480000
        k(   22) = (   0.4000000   0.0000000   0.4000000), wk =   0.0240000
        k(   23) = (   0.0000000   0.6000000   0.0000000), wk =   0.0120000
        k(   24) = (  -0.1000000   0.7000000  -0.1000000), wk =   0.0480000
        k(   25) = (   0.8000000  -0.2000000   0.8000000), wk =   0.0480000
        k(   26) = (   0.7000000  -0.1000000   0.7000000), wk =   0.0480000
        k(   27) = (   0.6000000  -0.0000000   0.6000000), wk =   0.0240000
        k(   28) = (   0.0000000   0.8000000   0.0000000), wk =   0.0120000
        k(   29) = (   0.9000000  -0.1000000   0.9000000), wk =   0.0480000
        k(   30) = (   0.8000000   0.0000000   0.8000000), wk =   0.0240000
        k(   31) = (   0.0000000  -1.0000000   0.0000000), wk =   0.0060000
        k(   32) = (  -0.2000000   0.4000000   0.0000000), wk =   0.0480000
        k(   33) = (  -0.3000000   0.5000000  -0.1000000), wk =   0.0960000
        k(   34) = (   0.6000000  -0.4000000   0.8000000), wk =   0.0960000
        k(   35) = (   0.5000000  -0.3000000   0.7000000), wk =   0.0480000
        k(   36) = (  -0.2000000   0.6000000   0.0000000), wk =   0.0480000
        k(   37) = (   0.7000000  -0.3000000   0.9000000), wk =   0.0960000
        k(   38) = (   0.6000000  -0.2000000   0.8000000), wk =   0.0960000
        k(   39) = (   0.5000000  -0.1000000   0.7000000), wk =   0.0960000
        k(   40) = (   0.4000000   0.0000000   0.6000000), wk =   0.0480000
        k(   41) = (   0.8000000  -0.2000000   1.0000000), wk =   0.0480000
        k(   42) = (   0.7000000  -0.1000000   0.9000000), wk =   0.0960000
        k(   43) = (   0.6000000   0.0000000   0.8000000), wk =   0.0480000
        k(   44) = (  -0.2000000  -1.0000000   0.0000000), wk =   0.0240000
        k(   45) = (   0.6000000  -0.2000000   1.0000000), wk =   0.0480000
        k(   46) = (   0.5000000  -0.1000000   0.9000000), wk =   0.0480000
        k(   47) = (  -0.4000000  -1.0000000   0.0000000), wk =   0.0240000

     Dense  grid:     4909 G-vectors     FFT dimensions: (  24,  24,  24)

     Estimated max dynamical RAM per process >       8.97 MB

     WARNING: libxc functional with ID  263 depends
      on external parameters: check the user_guide of
      QE if you need to modify them or to check their
      default values.

     Initial potential from superposition of free atoms

     starting charge       7.9999, renormalised to       8.0000
     Starting wfcs are    8 randomized atomic wfcs

     total cpu time spent up to now is        0.8 secs

     Self-consistent Calculation

     iteration #  1     ecut=    50.00 Ry     beta= 0.20
     Davidson diagonalization with overlap
     ethr =  1.00E-02,  avg # of iterations =  2.0

     total cpu time spent up to now is        2.4 secs

     total energy              =     -22.57801835 Ry
     estimated scf accuracy    <       1.41482629 Ry

     iteration #  2     ecut=    50.00 Ry     beta= 0.20
     Davidson diagonalization with overlap
     ethr =  1.00E-02,  avg # of iterations =  1.0

     total cpu time spent up to now is        3.7 secs

     total energy              =     -22.64187703 Ry
     estimated scf accuracy    <       0.94379367 Ry

     iteration #  3     ecut=    50.00 Ry     beta= 0.20
     Davidson diagonalization with overlap
     ethr =  1.00E-02,  avg # of iterations =  1.0

     total cpu time spent up to now is        5.0 secs

     total energy              =     -22.64437810 Ry
     estimated scf accuracy    <       0.00798425 Ry

     iteration #  4     ecut=    50.00 Ry     beta= 0.20
     Davidson diagonalization with overlap
     ethr =  9.98E-05,  avg # of iterations =  1.0

     total cpu time spent up to now is        6.3 secs

     total energy              =     -22.64360535 Ry
     estimated scf accuracy    <       0.00499998 Ry

     iteration #  5     ecut=    50.00 Ry     beta= 0.20
     Davidson diagonalization with overlap
     ethr =  6.25E-05,  avg # of iterations =  1.0

     total cpu time spent up to now is        7.6 secs

     total energy              =     -22.64395493 Ry
     estimated scf accuracy    <       0.00007436 Ry

     iteration #  6     ecut=    50.00 Ry     beta= 0.20
     Davidson diagonalization with overlap
     ethr =  9.30E-07,  avg # of iterations =  2.8

     total cpu time spent up to now is        9.2 secs

     total energy              =     -22.64398432 Ry
     estimated scf accuracy    <       0.00007075 Ry

     iteration #  7     ecut=    50.00 Ry     beta= 0.20
     Davidson diagonalization with overlap
     ethr =  8.84E-07,  avg # of iterations =  1.0

     total cpu time spent up to now is       10.1 secs

     total energy              =     -22.64399174 Ry
     estimated scf accuracy    <       0.00005186 Ry

     iteration #  8     ecut=    50.00 Ry     beta= 0.20
     Davidson diagonalization with overlap
     ethr =  6.48E-07,  avg # of iterations =  1.0

     total cpu time spent up to now is       10.9 secs

     End of self-consistent calculation

          k = 0.0000 0.0000 0.0000 (   609 PWs)   bands (ev):

   -10.3183   8.5456   8.5456   8.5456

          k =-0.1000 0.1000-0.1000 (   606 PWs)   bands (ev):

   -10.0844   7.1143   8.2175   8.2175

          k =-0.2000 0.2000-0.2000 (   604 PWs)   bands (ev):

    -9.3908   4.3488   7.5422   7.5422

          k =-0.3000 0.3000-0.3000 (   610 PWs)   bands (ev):

    -8.2708   1.4467   6.9044   6.9044

          k =-0.4000 0.4000-0.4000 (   607 PWs)   bands (ev):

    -6.8495  -1.1161   6.4832   6.4832

          k = 0.5000-0.5000 0.5000 (   610 PWs)   bands (ev):

    -5.8818  -2.4787   6.3389   6.3389

          k = 0.0000 0.2000 0.0000 (   609 PWs)   bands (ev):

   -10.0064   7.5684   7.6491   7.6491

          k =-0.1000 0.3000-0.1000 (   600 PWs)   bands (ev):

    -9.4653   5.2648   6.9016   7.3588

          k =-0.2000 0.4000-0.2000 (   612 PWs)   bands (ev):

    -8.4838   2.4566   6.2947   6.6640

          k =-0.3000 0.5000-0.3000 (   606 PWs)   bands (ev):

    -7.1393  -0.2058   5.9744   5.9755

          k = 0.6000-0.4000 0.6000 (   610 PWs)   bands (ev):

    -5.8330  -2.1404   5.4795   5.9728

          k = 0.5000-0.3000 0.5000 (   609 PWs)   bands (ev):

    -6.1952  -1.6463   5.2694   6.2864

          k = 0.4000-0.2000 0.4000 (   608 PWs)   bands (ev):

    -7.6194   0.6506   5.3886   6.8608

          k = 0.3000-0.1000 0.3000 (   607 PWs)   bands (ev):

    -8.8586   3.3959   5.8530   7.5757

          k = 0.2000 0.0000 0.2000 (   604 PWs)   bands (ev):

    -9.6970   5.9143   6.7973   8.1690

          k = 0.0000 0.4000 0.0000 (   604 PWs)   bands (ev):

    -9.0790   5.3296   6.0969   6.0969

          k =-0.1000 0.5000-0.1000 (   610 PWs)   bands (ev):

    -8.2462   3.2514   5.4613   5.4713

          k =-0.2000 0.6000-0.2000 (   617 PWs)   bands (ev):

    -7.0179   0.8145   4.5833   5.1356

          k = 0.7000-0.3000 0.7000 (   618 PWs)   bands (ev):

    -5.6086  -1.3174   3.7777   5.1703

          k = 0.6000-0.2000 0.6000 (   615 PWs)   bands (ev):

    -5.2722  -1.7390   3.2667   5.5515

          k = 0.5000-0.1000 0.5000 (   614 PWs)   bands (ev):

    -6.5696   0.1090   3.1716   6.2092

          k = 0.4000 0.0000 0.4000 (   614 PWs)   bands (ev):

    -7.8924   2.2267   3.8420   6.9882

          k = 0.0000 0.6000 0.0000 (   612 PWs)   bands (ev):

    -7.5643   2.6074   4.7666   4.7666

          k =-0.1000 0.7000-0.1000 (   615 PWs)   bands (ev):

    -6.4715   0.9582   3.8654   4.3808

          k = 0.8000-0.2000 0.8000 (   616 PWs)   bands (ev):

    -5.0909  -0.7767   2.6190   4.3684

          k = 0.7000-0.1000 0.7000 (   612 PWs)   bands (ev):

    -4.2159  -1.7038   1.6984   4.7276

          k = 0.6000-0.0000 0.6000 (   614 PWs)   bands (ev):

    -5.2352  -0.6494   1.6359   5.3922

          k = 0.0000 0.8000 0.0000 (   620 PWs)   bands (ev):

    -5.5164  -0.2527   3.9104   3.9104

          k = 0.9000-0.1000 0.9000 (   614 PWs)   bands (ev):

    -4.2259  -1.6519   3.0820   3.8165

          k = 0.8000 0.0000 0.8000 (   622 PWs)   bands (ev):

    -3.2546  -2.4312   1.8518   4.0994

          k = 0.0000-1.0000 0.0000 (   620 PWs)   bands (ev):

    -3.0307  -3.0307   3.6216   3.6216

          k =-0.2000 0.4000 0.0000 (   609 PWs)   bands (ev):

    -8.7786   3.9590   5.2892   6.9723

          k =-0.3000 0.5000-0.1000 (   616 PWs)   bands (ev):

    -7.6713   1.6421   4.4214   6.3111

          k = 0.6000-0.4000 0.8000 (   606 PWs)   bands (ev):

    -6.2664  -0.7401   4.1198   5.6830

          k = 0.5000-0.3000 0.7000 (   606 PWs)   bands (ev):

    -5.3076  -2.0516   4.0593   5.4212

          k =-0.2000 0.6000 0.0000 (   612 PWs)   bands (ev):

    -7.2846   1.9268   4.0138   5.1250

          k = 0.7000-0.3000 0.9000 (   612 PWs)   bands (ev):

    -5.9698   0.0656   3.1234   4.5532

          k = 0.6000-0.2000 0.8000 (   619 PWs)   bands (ev):

    -4.6935  -1.5503   2.5172   4.4367

          k = 0.5000-0.1000 0.7000 (   619 PWs)   bands (ev):

    -5.0865  -1.0530   2.2205   4.8497

          k = 0.4000 0.0000 0.6000 (   612 PWs)   bands (ev):

    -6.4725   0.6276   2.6600   5.5864

          k = 0.8000-0.2000 1.0000 (   617 PWs)   bands (ev):

    -5.2820  -0.3843   3.2459   3.7110

          k = 0.7000-0.1000 0.9000 (   619 PWs)   bands (ev):

    -3.9197  -1.6850   2.1302   3.5851

          k = 0.6000 0.0000 0.8000 (   616 PWs)   bands (ev):

    -3.8350  -1.7114   1.4291   4.0512

          k =-0.2000-1.0000 0.0000 (   622 PWs)   bands (ev):

    -2.9016  -2.9016   3.1090   3.1090

          k = 0.6000-0.2000 1.0000 (   613 PWs)   bands (ev):

    -4.6406  -0.9050   2.0804   3.6673

          k = 0.5000-0.1000 0.9000 (   622 PWs)   bands (ev):

    -3.6738  -1.7867   1.8090   3.2413

          k =-0.4000-1.0000 0.0000 (   610 PWs)   bands (ev):

    -2.6618  -2.6618   2.3557   2.3557

     highest occupied level (ev):     8.5456

!    total energy              =     -22.64399414 Ry
     estimated scf accuracy    <       0.00000029 Ry

     The total energy is the sum of the following terms:
     one-electron contribution =       4.92951957 Ry
     hartree contribution      =       2.24897681 Ry
     xc contribution           =      -6.62802541 Ry
     ewald contribution        =     -23.19446511 Ry

     convergence has been achieved in   8 iterations
     Writing meta-gga kinetic term

     Writing all to output data dir ./input_pw/C/9/pwscf.save/
     Writing meta-gga kinetic term
 
     init_run     :      0.53s CPU      0.72s WALL (       1 calls)
     electrons    :      5.66s CPU     10.20s WALL (       1 calls)

     Called by init_run:
     wfcinit      :      0.49s CPU      0.63s WALL (       1 calls)
     potinit      :      0.01s CPU      0.02s WALL (       1 calls)
     hinit0       :      0.03s CPU      0.07s WALL (       1 calls)

     Called by electrons:
     c_bands      :      4.52s CPU      8.23s WALL (       8 calls)
     sum_band     :      1.04s CPU      1.80s WALL (       8 calls)
     v_of_rho     :      0.08s CPU      0.13s WALL (       9 calls)
     mix_rho      :      0.04s CPU      0.05s WALL (       8 calls)

     Called by c_bands:
     init_us_2    :      0.02s CPU      0.03s WALL (     799 calls)
     init_us_2:cp :      0.02s CPU      0.03s WALL (     799 calls)
     cegterg      :      4.49s CPU      8.16s WALL (     376 calls)

     Called by *egterg:
     cdiaghg      :      0.04s CPU      0.07s WALL (     885 calls)
     h_psi        :      4.85s CPU      8.63s WALL (     932 calls)
     g_psi        :      0.00s CPU      0.00s WALL (     509 calls)

     Called by h_psi:
     h_psi:calbec :      0.01s CPU      0.01s WALL (     932 calls)
     vloc_psi     :      1.19s CPU      2.25s WALL (     932 calls)
     add_vuspsi   :      0.01s CPU      0.01s WALL (     932 calls)
     h_psi_meta   :      3.62s CPU      6.32s WALL (     932 calls)

     General routines
     calbec       :      0.01s CPU      0.01s WALL (     932 calls)
     fft          :      0.01s CPU      0.07s WALL (     105 calls)
     ffts         :      0.02s CPU      0.02s WALL (     133 calls)
     fftw         :      5.23s CPU      9.20s WALL (   36264 calls)
     interpolate  :      0.00s CPU      0.00s WALL (       9 calls)
 
     Parallel routines
 
     PWSCF        :      6.22s CPU     10.98s WALL

 
   This run was terminated on:  14:25:34   7Jul2023            

=------------------------------------------------------------------------------=
   JOB DONE.
=------------------------------------------------------------------------------=
