
     Program PWSCF v.7.0 starts on 29Mar2023 at 12:34:20 

     This program is part of the open-source Quantum ESPRESSO suite
     for quantum simulation of materials; please cite
         "P. Giannozzi et al., J. Phys.:Condens. Matter 21 395502 (2009);
         "P. Giannozzi et al., J. Phys.:Condens. Matter 29 465901 (2017);
         "P. Giannozzi et al., J. Chem. Phys. 152 154105 (2020);
          URL http://www.quantum-espresso.org", 
     in publications or presentations arising from this work. More details at
     http://www.quantum-espresso.org/quote

     Parallel version (MPI), running on     1 processors

     MPI processes distributed on     1 nodes
     22834 MiB available memory on the printing compute node when the environment starts
 
     Waiting for input...
     Reading input from standard input
Warning: card &CELL ignored
Warning: card / ignored

     Current dimensions of program PWSCF are:
     Max number of different atomic species (ntypx) = 10
     Max number of k-points (npk) =  40000
     Max angular momentum in pseudopotentials (lmaxx) =  4

     WARNING: the MGGA functional with ID    5 has been 
     read together with other dft terms, but it should 
     stand alone in order to work properly. The other 
     terms will be ignored.

     Subspace diagonalization in iterative solution of the eigenvalue problem:
     a serial algorithm will be used

 
     G-vector sticks info
     --------------------
     sticks:   dense  smooth     PW     G-vecs:    dense   smooth      PW
     Sum         439     439    151                 6183     6183    1139
 
     Using Slab Decomposition
 


     bravais-lattice index     =            2
     lattice parameter (alat)  =       8.0035  a.u.
     unit-cell volume          =     128.1690 (a.u.)^3
     number of atoms/cell      =            2
     number of atomic types    =            1
     number of electrons       =         8.00
     number of Kohn-Sham states=            4
     kinetic-energy cutoff     =      50.0000  Ry
     charge density cutoff     =     200.0000  Ry
     scf convergence threshold =      1.0E-06
     mixing beta               =       0.0100
     number of iterations used =            8  local-TF  mixing
     Exchange-correlation= SLA  PW   SCAN SCAN
                           (   0   0   0   0   0 263 267)

     celldm(1)=   8.003519  celldm(2)=   0.000000  celldm(3)=   0.000000
     celldm(4)=   0.000000  celldm(5)=   0.000000  celldm(6)=   0.000000

     crystal axes: (cart. coord. in units of alat)
               a(1) = (  -0.500000   0.000000   0.500000 )  
               a(2) = (   0.000000   0.500000   0.500000 )  
               a(3) = (  -0.500000   0.500000   0.000000 )  

     reciprocal axes: (cart. coord. in units 2 pi/alat)
               b(1) = ( -1.000000 -1.000000  1.000000 )  
               b(2) = (  1.000000  1.000000  1.000000 )  
               b(3) = ( -1.000000  1.000000 -1.000000 )  


     PseudoPot. # 1 for C  read from file:
     ~/Documents/TA/PWDFT.jl/pseudopotentials/scan_upf/C.SCAN.UPF2
     MD5 check sum: Not computed, couldn't open file
     Pseudo is Norm-conserving, Zval =  4.0
     Generated by new atomic code, or converted to UPF format
     Using radial grid of 1389 points,  1 beta functions with: 
                l(1) =   0

     atomic species   valence    mass     pseudopotential
        C              4.00    12.01100     C ( 1.00)

     48 Sym. Ops., with inversion, found (24 have fractional translation)



   Cartesian axes

     site n.     atom                  positions (alat units)
         1           C   tau(   1) = (   0.0000000   0.0000000   0.0000000  )
         2           C   tau(   2) = (   0.2500000   0.2500000   0.2500000  )

     number of k points=    47
                       cart. coord. in units 2pi/alat
        k(    1) = (   0.0000000   0.0000000   0.0000000), wk =   0.0020000
        k(    2) = (  -0.1000000   0.1000000  -0.1000000), wk =   0.0160000
        k(    3) = (  -0.2000000   0.2000000  -0.2000000), wk =   0.0160000
        k(    4) = (  -0.3000000   0.3000000  -0.3000000), wk =   0.0160000
        k(    5) = (  -0.4000000   0.4000000  -0.4000000), wk =   0.0160000
        k(    6) = (   0.5000000  -0.5000000   0.5000000), wk =   0.0080000
        k(    7) = (   0.0000000   0.2000000   0.0000000), wk =   0.0120000
        k(    8) = (  -0.1000000   0.3000000  -0.1000000), wk =   0.0480000
        k(    9) = (  -0.2000000   0.4000000  -0.2000000), wk =   0.0480000
        k(   10) = (  -0.3000000   0.5000000  -0.3000000), wk =   0.0480000
        k(   11) = (   0.6000000  -0.4000000   0.6000000), wk =   0.0480000
        k(   12) = (   0.5000000  -0.3000000   0.5000000), wk =   0.0480000
        k(   13) = (   0.4000000  -0.2000000   0.4000000), wk =   0.0480000
        k(   14) = (   0.3000000  -0.1000000   0.3000000), wk =   0.0480000
        k(   15) = (   0.2000000   0.0000000   0.2000000), wk =   0.0240000
        k(   16) = (   0.0000000   0.4000000   0.0000000), wk =   0.0120000
        k(   17) = (  -0.1000000   0.5000000  -0.1000000), wk =   0.0480000
        k(   18) = (  -0.2000000   0.6000000  -0.2000000), wk =   0.0480000
        k(   19) = (   0.7000000  -0.3000000   0.7000000), wk =   0.0480000
        k(   20) = (   0.6000000  -0.2000000   0.6000000), wk =   0.0480000
        k(   21) = (   0.5000000  -0.1000000   0.5000000), wk =   0.0480000
        k(   22) = (   0.4000000   0.0000000   0.4000000), wk =   0.0240000
        k(   23) = (   0.0000000   0.6000000   0.0000000), wk =   0.0120000
        k(   24) = (  -0.1000000   0.7000000  -0.1000000), wk =   0.0480000
        k(   25) = (   0.8000000  -0.2000000   0.8000000), wk =   0.0480000
        k(   26) = (   0.7000000  -0.1000000   0.7000000), wk =   0.0480000
        k(   27) = (   0.6000000  -0.0000000   0.6000000), wk =   0.0240000
        k(   28) = (   0.0000000   0.8000000   0.0000000), wk =   0.0120000
        k(   29) = (   0.9000000  -0.1000000   0.9000000), wk =   0.0480000
        k(   30) = (   0.8000000   0.0000000   0.8000000), wk =   0.0240000
        k(   31) = (   0.0000000  -1.0000000   0.0000000), wk =   0.0060000
        k(   32) = (  -0.2000000   0.4000000   0.0000000), wk =   0.0480000
        k(   33) = (  -0.3000000   0.5000000  -0.1000000), wk =   0.0960000
        k(   34) = (   0.6000000  -0.4000000   0.8000000), wk =   0.0960000
        k(   35) = (   0.5000000  -0.3000000   0.7000000), wk =   0.0480000
        k(   36) = (  -0.2000000   0.6000000   0.0000000), wk =   0.0480000
        k(   37) = (   0.7000000  -0.3000000   0.9000000), wk =   0.0960000
        k(   38) = (   0.6000000  -0.2000000   0.8000000), wk =   0.0960000
        k(   39) = (   0.5000000  -0.1000000   0.7000000), wk =   0.0960000
        k(   40) = (   0.4000000   0.0000000   0.6000000), wk =   0.0480000
        k(   41) = (   0.8000000  -0.2000000   1.0000000), wk =   0.0480000
        k(   42) = (   0.7000000  -0.1000000   0.9000000), wk =   0.0960000
        k(   43) = (   0.6000000   0.0000000   0.8000000), wk =   0.0480000
        k(   44) = (  -0.2000000  -1.0000000   0.0000000), wk =   0.0240000
        k(   45) = (   0.6000000  -0.2000000   1.0000000), wk =   0.0480000
        k(   46) = (   0.5000000  -0.1000000   0.9000000), wk =   0.0480000
        k(   47) = (  -0.4000000  -1.0000000   0.0000000), wk =   0.0240000

     Dense  grid:     6183 G-vectors     FFT dimensions: (  32,  32,  32)

     Estimated max dynamical RAM per process >      13.03 MB

     WARNING: libxc functional with ID  263 depends
      on external parameters: check the user_guide of
      QE if you need to modify them or to check their
      default values.

     Initial potential from superposition of free atoms

     starting charge       7.9999, renormalised to       8.0000
     Starting wfcs are    8 randomized atomic wfcs

     total cpu time spent up to now is        1.7 secs

     Self-consistent Calculation

     iteration #  1     ecut=    50.00 Ry     beta= 0.01
     Davidson diagonalization with overlap
     ethr =  1.00E-02,  avg # of iterations =  1.9

     total cpu time spent up to now is        4.0 secs

     total energy              =     -22.45101052 Ry
     estimated scf accuracy    <       1.07540098 Ry

     iteration #  2     ecut=    50.00 Ry     beta= 0.01
     Davidson diagonalization with overlap
     ethr =  1.00E-02,  avg # of iterations =  1.0

     total cpu time spent up to now is        5.9 secs

     total energy              =     -22.28661346 Ry
     estimated scf accuracy    <       1.09768040 Ry

     iteration #  3     ecut=    50.00 Ry     beta= 0.01
     Davidson diagonalization with overlap
     ethr =  1.00E-02,  avg # of iterations =  1.0

     total cpu time spent up to now is        7.9 secs

     total energy              =     -22.49288575 Ry
     estimated scf accuracy    <       2.19680707 Ry

     iteration #  4     ecut=    50.00 Ry     beta= 0.01
     Davidson diagonalization with overlap
     ethr =  1.00E-02,  avg # of iterations =  1.0

     total cpu time spent up to now is        9.8 secs

     total energy              =     -22.50618441 Ry
     estimated scf accuracy    <       0.00428358 Ry

     iteration #  5     ecut=    50.00 Ry     beta= 0.01
     Davidson diagonalization with overlap
     ethr =  5.35E-05,  avg # of iterations =  2.0

     total cpu time spent up to now is       12.2 secs

     total energy              =     -22.50664897 Ry
     estimated scf accuracy    <       0.00526590 Ry

     iteration #  6     ecut=    50.00 Ry     beta= 0.01
     Davidson diagonalization with overlap
     ethr =  5.35E-05,  avg # of iterations =  1.0

     total cpu time spent up to now is       14.1 secs

     total energy              =     -22.50650146 Ry
     estimated scf accuracy    <       0.00586485 Ry

     iteration #  7     ecut=    50.00 Ry     beta= 0.01
     Davidson diagonalization with overlap
     ethr =  5.35E-05,  avg # of iterations =  1.0

     total cpu time spent up to now is       16.0 secs

     total energy              =     -22.50576669 Ry
     estimated scf accuracy    <       0.00321884 Ry

     iteration #  8     ecut=    50.00 Ry     beta= 0.01
     Davidson diagonalization with overlap
     ethr =  4.02E-05,  avg # of iterations =  2.0

     total cpu time spent up to now is       17.6 secs

     total energy              =     -22.50611038 Ry
     estimated scf accuracy    <       0.00250049 Ry

     iteration #  9     ecut=    50.00 Ry     beta= 0.01
     Davidson diagonalization with overlap
     ethr =  3.13E-05,  avg # of iterations =  1.0

     total cpu time spent up to now is       19.0 secs

     total energy              =     -22.50611959 Ry
     estimated scf accuracy    <       0.00257317 Ry

     iteration # 10     ecut=    50.00 Ry     beta= 0.01
     Davidson diagonalization with overlap
     ethr =  3.13E-05,  avg # of iterations =  1.0

     total cpu time spent up to now is       20.2 secs

     total energy              =     -22.50618531 Ry
     estimated scf accuracy    <       0.00265754 Ry

     iteration # 11     ecut=    50.00 Ry     beta= 0.01
     Davidson diagonalization with overlap
     ethr =  3.13E-05,  avg # of iterations =  1.0

     total cpu time spent up to now is       21.4 secs

     total energy              =     -22.50619070 Ry
     estimated scf accuracy    <       0.00098060 Ry

     iteration # 12     ecut=    50.00 Ry     beta= 0.01
     Davidson diagonalization with overlap
     ethr =  1.23E-05,  avg # of iterations =  1.0

     total cpu time spent up to now is       22.3 secs

     total energy              =     -22.50619793 Ry
     estimated scf accuracy    <       0.00011434 Ry

     iteration # 13     ecut=    50.00 Ry     beta= 0.01
     Davidson diagonalization with overlap
     ethr =  1.43E-06,  avg # of iterations =  1.0

     total cpu time spent up to now is       23.2 secs

     total energy              =     -22.50619584 Ry
     estimated scf accuracy    <       0.00014816 Ry

     iteration # 14     ecut=    50.00 Ry     beta= 0.01
     Davidson diagonalization with overlap
     ethr =  1.43E-06,  avg # of iterations =  1.0

     total cpu time spent up to now is       23.7 secs

     total energy              =     -22.50619111 Ry
     estimated scf accuracy    <       0.00006744 Ry

     iteration # 15     ecut=    50.00 Ry     beta= 0.01
     Davidson diagonalization with overlap
     ethr =  8.43E-07,  avg # of iterations =  1.0

     total cpu time spent up to now is       24.3 secs

     total energy              =     -22.50619358 Ry
     estimated scf accuracy    <       0.00001288 Ry

     iteration # 16     ecut=    50.00 Ry     beta= 0.01
     Davidson diagonalization with overlap
     ethr =  1.61E-07,  avg # of iterations =  1.0

     total cpu time spent up to now is       24.9 secs

     total energy              =     -22.50619286 Ry
     estimated scf accuracy    <       0.00001495 Ry

     iteration # 17     ecut=    50.00 Ry     beta= 0.01
     Davidson diagonalization with overlap
     ethr =  1.61E-07,  avg # of iterations =  1.0

     total cpu time spent up to now is       25.5 secs

     End of self-consistent calculation

          k = 0.0000 0.0000 0.0000 (   749 PWs)   bands (ev):

   -11.0094   5.6977   5.6977   5.6977

          k =-0.1000 0.1000-0.1000 (   752 PWs)   bands (ev):

   -10.8128   4.2911   5.4373   5.4373

          k =-0.2000 0.2000-0.2000 (   776 PWs)   bands (ev):

   -10.2328   1.8342   4.8766   4.8766

          k =-0.3000 0.3000-0.3000 (   769 PWs)   bands (ev):

    -9.3082  -0.6321   4.3540   4.3540

          k =-0.4000 0.4000-0.4000 (   769 PWs)   bands (ev):

    -8.1804  -2.7411   4.0039   4.0039

          k = 0.5000-0.5000 0.5000 (   778 PWs)   bands (ev):

    -7.4889  -3.7706   3.8824   3.8824

          k = 0.0000 0.2000 0.0000 (   769 PWs)   bands (ev):

   -10.7471   4.4797   4.9940   4.9940

          k =-0.1000 0.3000-0.1000 (   779 PWs)   bands (ev):

   -10.2938   2.5426   4.3835   4.6165

          k =-0.2000 0.4000-0.2000 (   778 PWs)   bands (ev):

    -9.4788   0.1651   3.8849   4.0342

          k =-0.3000 0.5000-0.3000 (   768 PWs)   bands (ev):

    -8.3910  -2.0450   3.4673   3.6131

          k = 0.6000-0.4000 0.6000 (   767 PWs)   bands (ev):

    -7.4178  -3.5497   3.0702   3.6015

          k = 0.5000-0.3000 0.5000 (   767 PWs)   bands (ev):

    -7.6735  -3.1836   2.9172   3.8490

          k = 0.4000-0.2000 0.4000 (   765 PWs)   bands (ev):

    -8.7747  -1.3420   3.0446   4.3121

          k = 0.3000-0.1000 0.3000 (   770 PWs)   bands (ev):

    -9.7893   0.9450   3.4760   4.8898

          k = 0.2000 0.0000 0.2000 (   765 PWs)   bands (ev):

   -10.4879   3.0934   4.3115   5.3737

          k = 0.0000 0.4000 0.0000 (   785 PWs)   bands (ev):

    -9.9688   2.2648   3.7412   3.7412

          k =-0.1000 0.5000-0.1000 (   768 PWs)   bands (ev):

    -9.2736   0.5907   3.1168   3.2271

          k =-0.2000 0.6000-0.2000 (   763 PWs)   bands (ev):

    -8.2654  -1.3873   2.3372   2.9531

          k = 0.7000-0.3000 0.7000 (   766 PWs)   bands (ev):

    -7.1705  -3.0641   1.6582   2.9712

          k = 0.6000-0.2000 0.6000 (   775 PWs)   bands (ev):

    -6.9381  -3.3654   1.2587   3.2667

          k = 0.5000-0.1000 0.5000 (   773 PWs)   bands (ev):

    -7.9180  -1.9549   1.2568   3.7918

          k = 0.4000 0.0000 0.4000 (   770 PWs)   bands (ev):

    -8.9895  -0.2360   1.9052   4.4160

          k = 0.0000 0.6000 0.0000 (   761 PWs)   bands (ev):

    -8.6991  -0.1573   2.6668   2.6668

          k =-0.1000 0.7000-0.1000 (   770 PWs)   bands (ev):

    -7.7928  -1.5495   1.9266   2.3458

          k = 0.8000-0.2000 0.8000 (   763 PWs)   bands (ev):

    -6.6852  -2.9595   0.9160   2.3294

          k = 0.7000-0.1000 0.7000 (   760 PWs)   bands (ev):

    -6.0605  -3.6363   0.1876   2.6118

          k = 0.6000-0.0000 0.6000 (   762 PWs)   bands (ev):

    -6.8485  -2.8013   0.1651   3.1457

          k = 0.0000 0.8000 0.0000 (   761 PWs)   bands (ev):

    -6.9892  -2.5953   1.9672   1.9672

          k = 0.9000-0.1000 0.9000 (   764 PWs)   bands (ev):

    -5.9274  -3.7809   1.3168   1.8831

          k = 0.8000 0.0000 0.8000 (   764 PWs)   bands (ev):

    -5.2288  -4.3848   0.3892   2.1108

          k = 0.0000-1.0000 0.0000 (   774 PWs)   bands (ev):

    -4.9175  -4.9175   1.7232   1.7232

          k =-0.2000 0.4000 0.0000 (   770 PWs)   bands (ev):

    -9.7201   1.2711   3.0867   4.3562

          k =-0.3000 0.5000-0.1000 (   765 PWs)   bands (ev):

    -8.8058  -0.6512   2.2861   3.8481

          k = 0.6000-0.4000 0.8000 (   765 PWs)   bands (ev):

    -7.6873  -2.5657   1.9478   3.3690

          k = 0.5000-0.3000 0.7000 (   762 PWs)   bands (ev):

    -6.9930  -3.5465   1.8596   3.1772

          k =-0.2000 0.6000 0.0000 (   764 PWs)   bands (ev):

    -8.4741  -0.6567   2.0497   2.9199

          k = 0.7000-0.3000 0.9000 (   766 PWs)   bands (ev):

    -7.4062  -2.1864   1.2597   2.4932

          k = 0.6000-0.2000 0.8000 (   765 PWs)   bands (ev):

    -6.4398  -3.4063   0.7244   2.4067

          k = 0.5000-0.1000 0.7000 (   761 PWs)   bands (ev):

    -6.7369  -3.0352   0.5299   2.7232

          k = 0.4000 0.0000 0.6000 (   766 PWs)   bands (ev):

    -7.8260  -1.7035   0.9545   3.2930

          k = 0.8000-0.2000 1.0000 (   761 PWs)   bands (ev):

    -6.8123  -2.7229   1.4337   1.8382

          k = 0.7000-0.1000 0.9000 (   760 PWs)   bands (ev):

    -5.7340  -3.8144   0.5885   1.7270

          k = 0.6000 0.0000 0.8000 (   757 PWs)   bands (ev):

    -5.7318  -3.7813   0.0527   2.0938

          k =-0.2000-1.0000 0.0000 (   764 PWs)   bands (ev):

    -4.8402  -4.8402   1.3415   1.3415

          k = 0.6000-0.2000 1.0000 (   754 PWs)   bands (ev):

    -6.3348  -3.1480   0.5247   1.8156

          k = 0.5000-0.1000 0.9000 (   756 PWs)   bands (ev):

    -5.5915  -3.8660   0.3186   1.4900

          k =-0.4000-1.0000 0.0000 (   756 PWs)   bands (ev):

    -4.7038  -4.7038   0.7886   0.7886

     highest occupied level (ev):     5.6977

!    total energy              =     -22.50619305 Ry
     estimated scf accuracy    <       0.00000056 Ry

     The total energy is the sum of the following terms:
     one-electron contribution =       2.84133459 Ry
     hartree contribution      =       2.53010617 Ry
     xc contribution           =      -6.33991621 Ry
     ewald contribution        =     -21.53771760 Ry

     convergence has been achieved in  17 iterations
     Writing meta-gga kinetic term

     Writing all to output data dir ./input_pw/C/12/pwscf.save/
     Writing meta-gga kinetic term
 
     init_run     :      0.79s CPU      1.61s WALL (       1 calls)
     electrons    :     15.09s CPU     23.76s WALL (       1 calls)

     Called by init_run:
     wfcinit      :      0.73s CPU      1.49s WALL (       1 calls)
     potinit      :      0.02s CPU      0.04s WALL (       1 calls)
     hinit0       :      0.03s CPU      0.05s WALL (       1 calls)

     Called by electrons:
     c_bands      :     11.71s CPU     18.56s WALL (      17 calls)
     sum_band     :      2.94s CPU      4.51s WALL (      17 calls)
     v_of_rho     :      0.31s CPU      0.51s WALL (      18 calls)
     mix_rho      :      0.13s CPU      0.17s WALL (      17 calls)

     Called by c_bands:
     init_us_2    :      0.04s CPU      0.11s WALL (    1645 calls)
     init_us_2:cp :      0.04s CPU      0.09s WALL (    1645 calls)
     cegterg      :     11.66s CPU     18.48s WALL (     799 calls)

     Called by *egterg:
     cdiaghg      :      0.06s CPU      0.15s WALL (    1735 calls)
     h_psi        :     12.15s CPU     19.57s WALL (    1782 calls)
     g_psi        :      0.01s CPU      0.01s WALL (     936 calls)

     Called by h_psi:
     h_psi:calbec :      0.02s CPU      0.02s WALL (    1782 calls)
     vloc_psi     :      3.01s CPU      4.80s WALL (    1782 calls)
     add_vuspsi   :      0.03s CPU      0.03s WALL (    1782 calls)
     h_psi_meta   :      9.06s CPU     14.66s WALL (    1782 calls)

     General routines
     calbec       :      0.02s CPU      0.02s WALL (    1782 calls)
     fft          :      0.04s CPU      0.09s WALL (     213 calls)
     ffts         :      0.06s CPU      0.07s WALL (     324 calls)
     fftw         :     12.76s CPU     20.40s WALL (   69216 calls)
     interpolate  :      0.00s CPU      0.00s WALL (      18 calls)
 
     Parallel routines
 
     PWSCF        :     15.90s CPU     25.47s WALL

 
   This run was terminated on:  12:34:45  29Mar2023            

=------------------------------------------------------------------------------=
   JOB DONE.
=------------------------------------------------------------------------------=
