
     Program PWSCF v.7.0 starts on  7Jul2023 at 14:23:45 

     This program is part of the open-source Quantum ESPRESSO suite
     for quantum simulation of materials; please cite
         "P. Giannozzi et al., J. Phys.:Condens. Matter 21 395502 (2009);
         "P. Giannozzi et al., J. Phys.:Condens. Matter 29 465901 (2017);
         "P. Giannozzi et al., J. Chem. Phys. 152 154105 (2020);
          URL http://www.quantum-espresso.org", 
     in publications or presentations arising from this work. More details at
     http://www.quantum-espresso.org/quote

     Parallel version (MPI), running on     1 processors

     MPI processes distributed on     1 nodes
     27302 MiB available memory on the printing compute node when the environment starts
 
     Waiting for input...
     Reading input from standard input
Warning: card &CELL ignored
Warning: card / ignored

     Current dimensions of program PWSCF are:
     Max number of different atomic species (ntypx) = 10
     Max number of k-points (npk) =  40000
     Max angular momentum in pseudopotentials (lmaxx) =  4

     WARNING: the MGGA functional with ID    5 has been 
     read together with other dft terms, but it should 
     stand alone in order to work properly. The other 
     terms will be ignored.

     WARNING: the MGGA functional with ID    5 has been 
     read together with other dft terms, but it should 
     stand alone in order to work properly. The other 
     terms will be ignored.

     Subspace diagonalization in iterative solution of the eigenvalue problem:
     a serial algorithm will be used

 
     G-vector sticks info
     --------------------
     sticks:   dense  smooth     PW     G-vecs:    dense   smooth      PW
     Sum         583     583    187                 9089     9089    1639
 
     Using Slab Decomposition
 


     bravais-lattice index     =            2
     lattice parameter (alat)  =       9.1009  a.u.
     unit-cell volume          =     188.4500 (a.u.)^3
     number of atoms/cell      =            2
     number of atomic types    =            2
     number of electrons       =         8.00
     number of Kohn-Sham states=            4
     kinetic-energy cutoff     =      50.0000  Ry
     charge density cutoff     =     200.0000  Ry
     scf convergence threshold =      2.0E-05
     mixing beta               =       0.2000
     number of iterations used =            8  local-TF  mixing
     Exchange-correlation= SLA  PW   SCAN SCAN
                           (   0   0   0   0   0 263 267)

     celldm(1)=   9.100921  celldm(2)=   0.000000  celldm(3)=   0.000000
     celldm(4)=   0.000000  celldm(5)=   0.000000  celldm(6)=   0.000000

     crystal axes: (cart. coord. in units of alat)
               a(1) = (  -0.500000   0.000000   0.500000 )  
               a(2) = (   0.000000   0.500000   0.500000 )  
               a(3) = (  -0.500000   0.500000   0.000000 )  

     reciprocal axes: (cart. coord. in units 2 pi/alat)
               b(1) = ( -1.000000 -1.000000  1.000000 )  
               b(2) = (  1.000000  1.000000  1.000000 )  
               b(3) = ( -1.000000  1.000000 -1.000000 )  


     PseudoPot. # 1 for Li read from file:
     ~/Documents/TA/PWDFT.jl/pseudopotentials/scan_upf/Li.SCAN.UPF2
     MD5 check sum: Not computed, couldn't open file
     Pseudo is Norm-conserving, Zval =  1.0
     Generated by new atomic code, or converted to UPF format
     Using radial grid of 1321 points,  1 beta functions with: 
                l(1) =   0

     PseudoPot. # 2 for F  read from file:
     ~/Documents/TA/PWDFT.jl/pseudopotentials/scan_upf/F.SCAN.UPF2
     MD5 check sum: Not computed, couldn't open file
     Pseudo is Norm-conserving, Zval =  7.0
     Generated by new atomic code, or converted to UPF format
     Using radial grid of 1431 points,  1 beta functions with: 
                l(1) =   0

     atomic species   valence    mass     pseudopotential
        Li             1.00     6.94100     Li( 1.00)
        F              7.00    18.99800     F ( 1.00)

     48 Sym. Ops., with inversion, found



   Cartesian axes

     site n.     atom                  positions (alat units)
         1           Li  tau(   1) = (   0.0000000   0.0000000   0.0000000  )
         2           F   tau(   2) = (   0.5000000   0.5000000   0.5000000  )

     number of k points=    47
                       cart. coord. in units 2pi/alat
        k(    1) = (   0.0000000   0.0000000   0.0000000), wk =   0.0020000
        k(    2) = (  -0.1000000   0.1000000  -0.1000000), wk =   0.0160000
        k(    3) = (  -0.2000000   0.2000000  -0.2000000), wk =   0.0160000
        k(    4) = (  -0.3000000   0.3000000  -0.3000000), wk =   0.0160000
        k(    5) = (  -0.4000000   0.4000000  -0.4000000), wk =   0.0160000
        k(    6) = (   0.5000000  -0.5000000   0.5000000), wk =   0.0080000
        k(    7) = (   0.0000000   0.2000000   0.0000000), wk =   0.0120000
        k(    8) = (  -0.1000000   0.3000000  -0.1000000), wk =   0.0480000
        k(    9) = (  -0.2000000   0.4000000  -0.2000000), wk =   0.0480000
        k(   10) = (  -0.3000000   0.5000000  -0.3000000), wk =   0.0480000
        k(   11) = (   0.6000000  -0.4000000   0.6000000), wk =   0.0480000
        k(   12) = (   0.5000000  -0.3000000   0.5000000), wk =   0.0480000
        k(   13) = (   0.4000000  -0.2000000   0.4000000), wk =   0.0480000
        k(   14) = (   0.3000000  -0.1000000   0.3000000), wk =   0.0480000
        k(   15) = (   0.2000000   0.0000000   0.2000000), wk =   0.0240000
        k(   16) = (   0.0000000   0.4000000   0.0000000), wk =   0.0120000
        k(   17) = (  -0.1000000   0.5000000  -0.1000000), wk =   0.0480000
        k(   18) = (  -0.2000000   0.6000000  -0.2000000), wk =   0.0480000
        k(   19) = (   0.7000000  -0.3000000   0.7000000), wk =   0.0480000
        k(   20) = (   0.6000000  -0.2000000   0.6000000), wk =   0.0480000
        k(   21) = (   0.5000000  -0.1000000   0.5000000), wk =   0.0480000
        k(   22) = (   0.4000000   0.0000000   0.4000000), wk =   0.0240000
        k(   23) = (   0.0000000   0.6000000   0.0000000), wk =   0.0120000
        k(   24) = (  -0.1000000   0.7000000  -0.1000000), wk =   0.0480000
        k(   25) = (   0.8000000  -0.2000000   0.8000000), wk =   0.0480000
        k(   26) = (   0.7000000  -0.1000000   0.7000000), wk =   0.0480000
        k(   27) = (   0.6000000  -0.0000000   0.6000000), wk =   0.0240000
        k(   28) = (   0.0000000   0.8000000   0.0000000), wk =   0.0120000
        k(   29) = (   0.9000000  -0.1000000   0.9000000), wk =   0.0480000
        k(   30) = (   0.8000000   0.0000000   0.8000000), wk =   0.0240000
        k(   31) = (   0.0000000  -1.0000000   0.0000000), wk =   0.0060000
        k(   32) = (  -0.2000000   0.4000000   0.0000000), wk =   0.0480000
        k(   33) = (  -0.3000000   0.5000000  -0.1000000), wk =   0.0960000
        k(   34) = (   0.6000000  -0.4000000   0.8000000), wk =   0.0960000
        k(   35) = (   0.5000000  -0.3000000   0.7000000), wk =   0.0480000
        k(   36) = (  -0.2000000   0.6000000   0.0000000), wk =   0.0480000
        k(   37) = (   0.7000000  -0.3000000   0.9000000), wk =   0.0960000
        k(   38) = (   0.6000000  -0.2000000   0.8000000), wk =   0.0960000
        k(   39) = (   0.5000000  -0.1000000   0.7000000), wk =   0.0960000
        k(   40) = (   0.4000000   0.0000000   0.6000000), wk =   0.0480000
        k(   41) = (   0.8000000  -0.2000000   1.0000000), wk =   0.0480000
        k(   42) = (   0.7000000  -0.1000000   0.9000000), wk =   0.0960000
        k(   43) = (   0.6000000   0.0000000   0.8000000), wk =   0.0480000
        k(   44) = (  -0.2000000  -1.0000000   0.0000000), wk =   0.0240000
        k(   45) = (   0.6000000  -0.2000000   1.0000000), wk =   0.0480000
        k(   46) = (   0.5000000  -0.1000000   0.9000000), wk =   0.0480000
        k(   47) = (  -0.4000000  -1.0000000   0.0000000), wk =   0.0240000

     Dense  grid:     9089 G-vectors     FFT dimensions: (  30,  30,  30)

     Estimated max dynamical RAM per process >      17.02 MB

     WARNING: libxc functional with ID  263 depends
      on external parameters: check the user_guide of
      QE if you need to modify them or to check their
      default values.

     Initial potential from superposition of free atoms

     starting charge       7.9953, renormalised to       8.0000
     Starting wfcs are    8 randomized atomic wfcs

     total cpu time spent up to now is        2.3 secs

     Self-consistent Calculation

     iteration #  1     ecut=    50.00 Ry     beta= 0.20
     Davidson diagonalization with overlap
     ethr =  1.00E-02,  avg # of iterations =  2.0

     total cpu time spent up to now is        5.5 secs

     total energy              =     -48.58614281 Ry
     estimated scf accuracy    <      17.67950319 Ry

     iteration #  2     ecut=    50.00 Ry     beta= 0.20
     Davidson diagonalization with overlap
     ethr =  1.00E-02,  avg # of iterations =  1.0

     total cpu time spent up to now is        8.0 secs

     total energy              =     -48.58007004 Ry
     estimated scf accuracy    <      11.48152401 Ry

     iteration #  3     ecut=    50.00 Ry     beta= 0.20
     Davidson diagonalization with overlap
     ethr =  1.00E-02,  avg # of iterations =  1.0

     total cpu time spent up to now is       10.6 secs

     total energy              =     -48.58681194 Ry
     estimated scf accuracy    <       0.04440408 Ry

     iteration #  4     ecut=    50.00 Ry     beta= 0.20
     Davidson diagonalization with overlap
     ethr =  5.55E-04,  avg # of iterations =  1.0

     total cpu time spent up to now is       12.7 secs

     total energy              =     -48.58862374 Ry
     estimated scf accuracy    <       0.03369192 Ry

     iteration #  5     ecut=    50.00 Ry     beta= 0.20
     Davidson diagonalization with overlap
     ethr =  4.21E-04,  avg # of iterations =  1.0

     total cpu time spent up to now is       14.9 secs

     total energy              =     -48.58950493 Ry
     estimated scf accuracy    <       0.00371728 Ry

     iteration #  6     ecut=    50.00 Ry     beta= 0.20
     Davidson diagonalization with overlap
     ethr =  4.65E-05,  avg # of iterations =  1.0

     total cpu time spent up to now is       16.9 secs

     total energy              =     -48.58965218 Ry
     estimated scf accuracy    <       0.00157463 Ry

     iteration #  7     ecut=    50.00 Ry     beta= 0.20
     Davidson diagonalization with overlap
     ethr =  1.97E-05,  avg # of iterations =  1.0

     total cpu time spent up to now is       17.9 secs

     total energy              =     -48.58967592 Ry
     estimated scf accuracy    <       0.00029349 Ry

     iteration #  8     ecut=    50.00 Ry     beta= 0.20
     Davidson diagonalization with overlap
     ethr =  3.67E-06,  avg # of iterations =  1.0

     total cpu time spent up to now is       18.6 secs

     total energy              =     -48.58966947 Ry
     estimated scf accuracy    <       0.00033787 Ry

     iteration #  9     ecut=    50.00 Ry     beta= 0.20
     Davidson diagonalization with overlap
     ethr =  3.67E-06,  avg # of iterations =  1.0

     total cpu time spent up to now is       19.3 secs

     total energy              =     -48.58967117 Ry
     estimated scf accuracy    <       0.00002678 Ry

     iteration # 10     ecut=    50.00 Ry     beta= 0.20
     Davidson diagonalization with overlap
     ethr =  3.35E-07,  avg # of iterations =  1.0

     total cpu time spent up to now is       19.9 secs

     End of self-consistent calculation

          k = 0.0000 0.0000 0.0000 (  1139 PWs)   bands (ev):

   -23.8225  -2.8795  -2.8795  -2.8795

          k =-0.1000 0.1000-0.1000 (  1134 PWs)   bands (ev):

   -23.8106  -3.0385  -2.8707  -2.8707

          k =-0.2000 0.2000-0.2000 (  1122 PWs)   bands (ev):

   -23.7792  -3.3495  -2.8879  -2.8879

          k =-0.3000 0.3000-0.3000 (  1125 PWs)   bands (ev):

   -23.7409  -3.7179  -2.9536  -2.9536

          k =-0.4000 0.4000-0.4000 (  1125 PWs)   bands (ev):

   -23.7095  -4.0556  -2.9534  -2.9534

          k = 0.5000-0.5000 0.5000 (  1158 PWs)   bands (ev):

   -23.6990  -4.2312  -3.0449  -3.0449

          k = 0.0000 0.2000 0.0000 (  1139 PWs)   bands (ev):

   -23.8069  -3.0475  -2.9169  -2.9169

          k =-0.1000 0.3000-0.1000 (  1124 PWs)   bands (ev):

   -23.7816  -3.2860  -2.9238  -2.9130

          k =-0.2000 0.4000-0.2000 (  1123 PWs)   bands (ev):

   -23.7454  -3.6276  -2.9981  -2.9587

          k =-0.3000 0.5000-0.3000 (  1128 PWs)   bands (ev):

   -23.7117  -3.9730  -3.0367  -2.9985

          k = 0.6000-0.4000 0.6000 (  1127 PWs)   bands (ev):

   -23.6930  -4.1318  -3.0523  -3.0115

          k = 0.5000-0.3000 0.5000 (  1125 PWs)   bands (ev):

   -23.6970  -4.0947  -3.0656  -2.9779

          k = 0.4000-0.2000 0.4000 (  1125 PWs)   bands (ev):

   -23.7222  -3.8507  -3.0821  -2.9343

          k = 0.3000-0.1000 0.3000 (  1119 PWs)   bands (ev):

   -23.7582  -3.4956  -3.0120  -2.8811

          k = 0.2000 0.0000 0.2000 (  1141 PWs)   bands (ev):

   -23.7929  -3.2393  -2.9752  -2.8855

          k = 0.0000 0.4000 0.0000 (  1130 PWs)   bands (ev):

   -23.7647  -3.3767  -3.0231  -3.0231

          k =-0.1000 0.5000-0.1000 (  1125 PWs)   bands (ev):

   -23.7342  -3.6128  -3.0952  -3.0789

          k =-0.2000 0.6000-0.2000 (  1121 PWs)   bands (ev):

   -23.7022  -3.8790  -3.1674  -3.0935

          k = 0.7000-0.3000 0.7000 (  1123 PWs)   bands (ev):

   -23.6811  -4.0267  -3.2946  -3.0737

          k = 0.6000-0.2000 0.6000 (  1132 PWs)   bands (ev):

   -23.6792  -4.0364  -3.3953  -3.0467

          k = 0.5000-0.1000 0.5000 (  1122 PWs)   bands (ev):

   -23.6962  -3.8796  -3.3551  -2.9661

          k = 0.4000 0.0000 0.4000 (  1119 PWs)   bands (ev):

   -23.7265  -3.6599  -3.2163  -2.9294

          k = 0.0000 0.6000 0.0000 (  1118 PWs)   bands (ev):

   -23.7110  -3.7788  -3.1341  -3.1341

          k =-0.1000 0.7000-0.1000 (  1119 PWs)   bands (ev):

   -23.6851  -3.9470  -3.2578  -3.1713

          k = 0.8000-0.2000 0.8000 (  1126 PWs)   bands (ev):

   -23.6665  -4.0296  -3.4247  -3.1990

          k = 0.7000-0.1000 0.7000 (  1129 PWs)   bands (ev):

   -23.6621  -3.9623  -3.6089  -3.1549

          k = 0.6000-0.0000 0.6000 (  1131 PWs)   bands (ev):

   -23.6737  -3.8297  -3.6812  -3.0734

          k = 0.0000 0.8000 0.0000 (  1126 PWs)   bands (ev):

   -23.6672  -4.1219  -3.2673  -3.2673

          k = 0.9000-0.1000 0.9000 (  1129 PWs)   bands (ev):

   -23.6548  -4.1994  -3.3614  -3.2725

          k = 0.8000 0.0000 0.8000 (  1128 PWs)   bands (ev):

   -23.6527  -4.0986  -3.5180  -3.2364

          k = 0.0000-1.0000 0.0000 (  1106 PWs)   bands (ev):

   -23.6489  -4.2516  -3.2351  -3.2351

          k =-0.2000 0.4000 0.0000 (  1118 PWs)   bands (ev):

   -23.7539  -3.4667  -3.0560  -2.9360

          k =-0.3000 0.5000-0.1000 (  1124 PWs)   bands (ev):

   -23.7201  -3.7588  -3.1860  -2.9839

          k = 0.6000-0.4000 0.8000 (  1130 PWs)   bands (ev):

   -23.6925  -4.0034  -3.2563  -3.0331

          k = 0.5000-0.3000 0.7000 (  1124 PWs)   bands (ev):

   -23.6815  -4.0777  -3.2588  -3.0306

          k =-0.2000 0.6000 0.0000 (  1120 PWs)   bands (ev):

   -23.7058  -3.8096  -3.2230  -3.0765

          k = 0.7000-0.3000 0.9000 (  1118 PWs)   bands (ev):

   -23.6800  -3.9417  -3.3589  -3.1072

          k = 0.6000-0.2000 0.8000 (  1129 PWs)   bands (ev):

   -23.6674  -3.9836  -3.5128  -3.1477

          k = 0.5000-0.1000 0.7000 (  1128 PWs)   bands (ev):

   -23.6718  -3.9246  -3.5626  -3.0912

          k = 0.4000 0.0000 0.6000 (  1126 PWs)   bands (ev):

   -23.6919  -3.8555  -3.4229  -3.0310

          k = 0.8000-0.2000 1.0000 (  1124 PWs)   bands (ev):

   -23.6659  -4.0540  -3.3513  -3.2479

          k = 0.7000-0.1000 0.9000 (  1123 PWs)   bands (ev):

   -23.6552  -4.0375  -3.5183  -3.2247

          k = 0.6000 0.0000 0.8000 (  1120 PWs)   bands (ev):

   -23.6572  -3.8742  -3.7158  -3.1340

          k =-0.2000-1.0000 0.0000 (  1132 PWs)   bands (ev):

   -23.6508  -4.1887  -3.4198  -3.2979

          k = 0.6000-0.2000 1.0000 (  1123 PWs)   bands (ev):

   -23.6625  -3.9135  -3.5771  -3.1945

          k = 0.5000-0.1000 0.9000 (  1122 PWs)   bands (ev):

   -23.6556  -3.8463  -3.7013  -3.2214

          k =-0.4000-1.0000 0.0000 (  1130 PWs)   bands (ev):

   -23.6515  -3.9619  -3.6584  -3.2679

     highest occupied level (ev):    -2.8707

!    total energy              =     -48.58967142 Ry
     estimated scf accuracy    <       0.00000399 Ry

     The total energy is the sum of the following terms:
     one-electron contribution =     -32.29681857 Ry
     hartree contribution      =      20.29360250 Ry
     xc contribution           =      -9.72111237 Ry
     ewald contribution        =     -26.86534298 Ry

     convergence has been achieved in  10 iterations
     Writing meta-gga kinetic term

     Writing all to output data dir ./input_pw/LiF/12/pwscf.save/
     Writing meta-gga kinetic term
 
     init_run     :      1.08s CPU      2.16s WALL (       1 calls)
     electrons    :     11.05s CPU     17.68s WALL (       1 calls)

     Called by init_run:
     wfcinit      :      0.98s CPU      1.96s WALL (       1 calls)
     potinit      :      0.02s CPU      0.02s WALL (       1 calls)
     hinit0       :      0.06s CPU      0.14s WALL (       1 calls)

     Called by electrons:
     c_bands      :      8.65s CPU     13.92s WALL (      10 calls)
     sum_band     :      2.12s CPU      3.34s WALL (      10 calls)
     v_of_rho     :      0.16s CPU      0.22s WALL (      11 calls)
     mix_rho      :      0.14s CPU      0.21s WALL (      10 calls)

     Called by c_bands:
     init_us_2    :      0.05s CPU      0.06s WALL (     987 calls)
     init_us_2:cp :      0.04s CPU      0.06s WALL (     987 calls)
     cegterg      :      8.60s CPU     13.88s WALL (     470 calls)

     Called by *egterg:
     cdiaghg      :      0.04s CPU      0.09s WALL (     987 calls)
     h_psi        :      9.40s CPU     15.52s WALL (    1034 calls)
     g_psi        :      0.01s CPU      0.01s WALL (     517 calls)

     Called by h_psi:
     h_psi:calbec :      0.01s CPU      0.05s WALL (    1034 calls)
     vloc_psi     :      2.32s CPU      3.72s WALL (    1034 calls)
     add_vuspsi   :      0.02s CPU      0.02s WALL (    1034 calls)
     h_psi_meta   :      7.03s CPU     11.72s WALL (    1034 calls)

     General routines
     calbec       :      0.01s CPU      0.04s WALL (    1034 calls)
     fft          :      0.03s CPU      0.04s WALL (     129 calls)
     ffts         :      0.07s CPU      0.11s WALL (     305 calls)
     fftw         :     10.28s CPU     16.83s WALL (   41600 calls)
     interpolate  :      0.00s CPU      0.00s WALL (      11 calls)
 
     Parallel routines
 
     PWSCF        :     12.18s CPU     19.94s WALL

 
   This run was terminated on:  14:24: 5   7Jul2023            

=------------------------------------------------------------------------------=
   JOB DONE.
=------------------------------------------------------------------------------=
