
     Program PWSCF v.7.0 starts on 10Apr2023 at  9:43:45 

     This program is part of the open-source Quantum ESPRESSO suite
     for quantum simulation of materials; please cite
         "P. Giannozzi et al., J. Phys.:Condens. Matter 21 395502 (2009);
         "P. Giannozzi et al., J. Phys.:Condens. Matter 29 465901 (2017);
         "P. Giannozzi et al., J. Chem. Phys. 152 154105 (2020);
          URL http://www.quantum-espresso.org", 
     in publications or presentations arising from this work. More details at
     http://www.quantum-espresso.org/quote

     Parallel version (MPI), running on     1 processors

     MPI processes distributed on     1 nodes
     19299 MiB available memory on the printing compute node when the environment starts
 
     Waiting for input...
     Reading input from standard input
Warning: card &CELL ignored
Warning: card / ignored

     Current dimensions of program PWSCF are:
     Max number of different atomic species (ntypx) = 10
     Max number of k-points (npk) =  40000
     Max angular momentum in pseudopotentials (lmaxx) =  4

     WARNING: the MGGA functional with ID    5 has been 
     read together with other dft terms, but it should 
     stand alone in order to work properly. The other 
     terms will be ignored.

     WARNING: the MGGA functional with ID    5 has been 
     read together with other dft terms, but it should 
     stand alone in order to work properly. The other 
     terms will be ignored.

     Subspace diagonalization in iterative solution of the eigenvalue problem:
     a serial algorithm will be used

 
     G-vector sticks info
     --------------------
     sticks:   dense  smooth     PW     G-vecs:    dense   smooth      PW
     Sum         475     475    151                 6735     6735    1243
 
     Using Slab Decomposition
 


     bravais-lattice index     =            2
     lattice parameter (alat)  =       8.2543  a.u.
     unit-cell volume          =     140.5997 (a.u.)^3
     number of atoms/cell      =            2
     number of atomic types    =            2
     number of electrons       =         8.00
     number of Kohn-Sham states=            4
     kinetic-energy cutoff     =      50.0000  Ry
     charge density cutoff     =     200.0000  Ry
     scf convergence threshold =      1.0E-06
     mixing beta               =       0.0100
     number of iterations used =            8  local-TF  mixing
     Exchange-correlation= SLA  PW   SCAN SCAN
                           (   0   0   0   0   0 263 267)

     celldm(1)=   8.254324  celldm(2)=   0.000000  celldm(3)=   0.000000
     celldm(4)=   0.000000  celldm(5)=   0.000000  celldm(6)=   0.000000

     crystal axes: (cart. coord. in units of alat)
               a(1) = (  -0.500000   0.000000   0.500000 )  
               a(2) = (   0.000000   0.500000   0.500000 )  
               a(3) = (  -0.500000   0.500000   0.000000 )  

     reciprocal axes: (cart. coord. in units 2 pi/alat)
               b(1) = ( -1.000000 -1.000000  1.000000 )  
               b(2) = (  1.000000  1.000000  1.000000 )  
               b(3) = ( -1.000000  1.000000 -1.000000 )  


     PseudoPot. # 1 for Li read from file:
     ~/Documents/TA/PWDFT.jl/pseudopotentials/scan_upf/Li.SCAN.UPF2
     MD5 check sum: Not computed, couldn't open file
     Pseudo is Norm-conserving, Zval =  1.0
     Generated by new atomic code, or converted to UPF format
     Using radial grid of 1321 points,  1 beta functions with: 
                l(1) =   0

     PseudoPot. # 2 for F  read from file:
     ~/Documents/TA/PWDFT.jl/pseudopotentials/scan_upf/F.SCAN.UPF2
     MD5 check sum: Not computed, couldn't open file
     Pseudo is Norm-conserving, Zval =  7.0
     Generated by new atomic code, or converted to UPF format
     Using radial grid of 1431 points,  1 beta functions with: 
                l(1) =   0

     atomic species   valence    mass     pseudopotential
        Li             1.00     6.94100     Li( 1.00)
        F              7.00    18.99800     F ( 1.00)

     48 Sym. Ops., with inversion, found



   Cartesian axes

     site n.     atom                  positions (alat units)
         1           Li  tau(   1) = (   0.0000000   0.0000000   0.0000000  )
         2           F   tau(   2) = (   0.5000000   0.5000000   0.5000000  )

     number of k points=    47
                       cart. coord. in units 2pi/alat
        k(    1) = (   0.0000000   0.0000000   0.0000000), wk =   0.0020000
        k(    2) = (  -0.1000000   0.1000000  -0.1000000), wk =   0.0160000
        k(    3) = (  -0.2000000   0.2000000  -0.2000000), wk =   0.0160000
        k(    4) = (  -0.3000000   0.3000000  -0.3000000), wk =   0.0160000
        k(    5) = (  -0.4000000   0.4000000  -0.4000000), wk =   0.0160000
        k(    6) = (   0.5000000  -0.5000000   0.5000000), wk =   0.0080000
        k(    7) = (   0.0000000   0.2000000   0.0000000), wk =   0.0120000
        k(    8) = (  -0.1000000   0.3000000  -0.1000000), wk =   0.0480000
        k(    9) = (  -0.2000000   0.4000000  -0.2000000), wk =   0.0480000
        k(   10) = (  -0.3000000   0.5000000  -0.3000000), wk =   0.0480000
        k(   11) = (   0.6000000  -0.4000000   0.6000000), wk =   0.0480000
        k(   12) = (   0.5000000  -0.3000000   0.5000000), wk =   0.0480000
        k(   13) = (   0.4000000  -0.2000000   0.4000000), wk =   0.0480000
        k(   14) = (   0.3000000  -0.1000000   0.3000000), wk =   0.0480000
        k(   15) = (   0.2000000   0.0000000   0.2000000), wk =   0.0240000
        k(   16) = (   0.0000000   0.4000000   0.0000000), wk =   0.0120000
        k(   17) = (  -0.1000000   0.5000000  -0.1000000), wk =   0.0480000
        k(   18) = (  -0.2000000   0.6000000  -0.2000000), wk =   0.0480000
        k(   19) = (   0.7000000  -0.3000000   0.7000000), wk =   0.0480000
        k(   20) = (   0.6000000  -0.2000000   0.6000000), wk =   0.0480000
        k(   21) = (   0.5000000  -0.1000000   0.5000000), wk =   0.0480000
        k(   22) = (   0.4000000   0.0000000   0.4000000), wk =   0.0240000
        k(   23) = (   0.0000000   0.6000000   0.0000000), wk =   0.0120000
        k(   24) = (  -0.1000000   0.7000000  -0.1000000), wk =   0.0480000
        k(   25) = (   0.8000000  -0.2000000   0.8000000), wk =   0.0480000
        k(   26) = (   0.7000000  -0.1000000   0.7000000), wk =   0.0480000
        k(   27) = (   0.6000000  -0.0000000   0.6000000), wk =   0.0240000
        k(   28) = (   0.0000000   0.8000000   0.0000000), wk =   0.0120000
        k(   29) = (   0.9000000  -0.1000000   0.9000000), wk =   0.0480000
        k(   30) = (   0.8000000   0.0000000   0.8000000), wk =   0.0240000
        k(   31) = (   0.0000000  -1.0000000   0.0000000), wk =   0.0060000
        k(   32) = (  -0.2000000   0.4000000   0.0000000), wk =   0.0480000
        k(   33) = (  -0.3000000   0.5000000  -0.1000000), wk =   0.0960000
        k(   34) = (   0.6000000  -0.4000000   0.8000000), wk =   0.0960000
        k(   35) = (   0.5000000  -0.3000000   0.7000000), wk =   0.0480000
        k(   36) = (  -0.2000000   0.6000000   0.0000000), wk =   0.0480000
        k(   37) = (   0.7000000  -0.3000000   0.9000000), wk =   0.0960000
        k(   38) = (   0.6000000  -0.2000000   0.8000000), wk =   0.0960000
        k(   39) = (   0.5000000  -0.1000000   0.7000000), wk =   0.0960000
        k(   40) = (   0.4000000   0.0000000   0.6000000), wk =   0.0480000
        k(   41) = (   0.8000000  -0.2000000   1.0000000), wk =   0.0480000
        k(   42) = (   0.7000000  -0.1000000   0.9000000), wk =   0.0960000
        k(   43) = (   0.6000000   0.0000000   0.8000000), wk =   0.0480000
        k(   44) = (  -0.2000000  -1.0000000   0.0000000), wk =   0.0240000
        k(   45) = (   0.6000000  -0.2000000   1.0000000), wk =   0.0480000
        k(   46) = (   0.5000000  -0.1000000   0.9000000), wk =   0.0480000
        k(   47) = (  -0.4000000  -1.0000000   0.0000000), wk =   0.0240000

     Dense  grid:     6735 G-vectors     FFT dimensions: (  27,  27,  27)

     Estimated max dynamical RAM per process >      12.59 MB

     WARNING: libxc functional with ID  263 depends
      on external parameters: check the user_guide of
      QE if you need to modify them or to check their
      default values.

     Initial potential from superposition of free atoms

     starting charge       7.9953, renormalised to       8.0000
     Starting wfcs are    8 randomized atomic wfcs

     total cpu time spent up to now is        2.2 secs

     Self-consistent Calculation

     iteration #  1     ecut=    50.00 Ry     beta= 0.01
     Davidson diagonalization with overlap
     ethr =  1.00E-02,  avg # of iterations =  2.0

     total cpu time spent up to now is        5.1 secs

     total energy              =     -48.54588134 Ry
     estimated scf accuracy    <      17.61105308 Ry

     iteration #  2     ecut=    50.00 Ry     beta= 0.01
     Davidson diagonalization with overlap
     ethr =  1.00E-02,  avg # of iterations =  1.0

     total cpu time spent up to now is        7.4 secs

     total energy              =     -48.60611539 Ry
     estimated scf accuracy    <      17.29136170 Ry

     iteration #  3     ecut=    50.00 Ry     beta= 0.01
     Davidson diagonalization with overlap
     ethr =  1.00E-02,  avg # of iterations =  1.0

     total cpu time spent up to now is        9.5 secs

     total energy              =     -48.61032918 Ry
     estimated scf accuracy    <       0.00909901 Ry

     iteration #  4     ecut=    50.00 Ry     beta= 0.01
     Davidson diagonalization with overlap
     ethr =  1.14E-04,  avg # of iterations =  1.0

     total cpu time spent up to now is       11.7 secs

     total energy              =     -48.61029297 Ry
     estimated scf accuracy    <       0.01031925 Ry

     iteration #  5     ecut=    50.00 Ry     beta= 0.01
     Davidson diagonalization with overlap
     ethr =  1.14E-04,  avg # of iterations =  1.0

     total cpu time spent up to now is       13.6 secs

     total energy              =     -48.61128656 Ry
     estimated scf accuracy    <       0.01376575 Ry

     iteration #  6     ecut=    50.00 Ry     beta= 0.01
     Davidson diagonalization with overlap
     ethr =  1.14E-04,  avg # of iterations =  1.0

     total cpu time spent up to now is       15.7 secs

     total energy              =     -48.61209328 Ry
     estimated scf accuracy    <       0.00639720 Ry

     iteration #  7     ecut=    50.00 Ry     beta= 0.01
     Davidson diagonalization with overlap
     ethr =  8.00E-05,  avg # of iterations =  1.0

     total cpu time spent up to now is       17.7 secs

     total energy              =     -48.61215658 Ry
     estimated scf accuracy    <       0.00877198 Ry

     iteration #  8     ecut=    50.00 Ry     beta= 0.01
     Davidson diagonalization with overlap
     ethr =  8.00E-05,  avg # of iterations =  1.0

     total cpu time spent up to now is       19.7 secs

     total energy              =     -48.61207858 Ry
     estimated scf accuracy    <       0.00883289 Ry

     iteration #  9     ecut=    50.00 Ry     beta= 0.01
     Davidson diagonalization with overlap
     ethr =  8.00E-05,  avg # of iterations =  1.0

     total cpu time spent up to now is       21.5 secs

     total energy              =     -48.61203094 Ry
     estimated scf accuracy    <       0.00532864 Ry

     iteration # 10     ecut=    50.00 Ry     beta= 0.01
     Davidson diagonalization with overlap
     ethr =  6.66E-05,  avg # of iterations =  1.0

     total cpu time spent up to now is       23.3 secs

     total energy              =     -48.61208778 Ry
     estimated scf accuracy    <       0.00230561 Ry

     iteration # 11     ecut=    50.00 Ry     beta= 0.01
     Davidson diagonalization with overlap
     ethr =  2.88E-05,  avg # of iterations =  1.0

     total cpu time spent up to now is       25.2 secs

     total energy              =     -48.61195704 Ry
     estimated scf accuracy    <       0.00363406 Ry

     iteration # 12     ecut=    50.00 Ry     beta= 0.01
     Davidson diagonalization with overlap
     ethr =  2.88E-05,  avg # of iterations =  1.0

     total cpu time spent up to now is       26.8 secs

     total energy              =     -48.61201828 Ry
     estimated scf accuracy    <       0.00000353 Ry

     iteration # 13     ecut=    50.00 Ry     beta= 0.01
     Davidson diagonalization with overlap
     ethr =  4.42E-08,  avg # of iterations =  2.7

     total cpu time spent up to now is       28.6 secs

     total energy              =     -48.61202030 Ry
     estimated scf accuracy    <       0.00000949 Ry

     iteration # 14     ecut=    50.00 Ry     beta= 0.01
     Davidson diagonalization with overlap
     ethr =  4.42E-08,  avg # of iterations =  1.8

     total cpu time spent up to now is       29.8 secs

     total energy              =     -48.61202064 Ry
     estimated scf accuracy    <       0.00000339 Ry

     iteration # 15     ecut=    50.00 Ry     beta= 0.01
     Davidson diagonalization with overlap
     ethr =  4.23E-08,  avg # of iterations =  1.0

     total cpu time spent up to now is       30.8 secs

     End of self-consistent calculation

          k = 0.0000 0.0000 0.0000 (   869 PWs)   bands (ev):

   -22.9964  -1.7036  -1.7036  -1.7036

          k =-0.1000 0.1000-0.1000 (   866 PWs)   bands (ev):

   -22.9701  -1.9038  -1.7099  -1.7099

          k =-0.2000 0.2000-0.2000 (   842 PWs)   bands (ev):

   -22.8999  -2.3381  -1.6757  -1.6757

          k =-0.3000 0.3000-0.3000 (   845 PWs)   bands (ev):

   -22.8135  -2.9084  -1.7576  -1.7576

          k =-0.4000 0.4000-0.4000 (   847 PWs)   bands (ev):

   -22.7420  -3.3470  -1.8002  -1.8002

          k = 0.5000-0.5000 0.5000 (   832 PWs)   bands (ev):

   -22.7134  -3.4529  -1.7653  -1.7653

          k = 0.0000 0.2000 0.0000 (   865 PWs)   bands (ev):

   -22.9613  -1.8369  -1.7854  -1.7854

          k =-0.1000 0.3000-0.1000 (   854 PWs)   bands (ev):

   -22.9056  -2.2238  -1.8287  -1.7587

          k =-0.2000 0.4000-0.2000 (   846 PWs)   bands (ev):

   -22.8236  -2.7549  -1.8428  -1.8162

          k =-0.3000 0.5000-0.3000 (   841 PWs)   bands (ev):

   -22.7458  -3.1951  -1.8885  -1.8605

          k = 0.6000-0.4000 0.6000 (   834 PWs)   bands (ev):

   -22.7026  -3.4011  -1.9386  -1.8315

          k = 0.5000-0.3000 0.5000 (   840 PWs)   bands (ev):

   -22.7124  -3.3702  -1.9791  -1.8110

          k = 0.4000-0.2000 0.4000 (   843 PWs)   bands (ev):

   -22.7703  -3.0634  -1.9825  -1.7278

          k = 0.3000-0.1000 0.3000 (   845 PWs)   bands (ev):

   -22.8531  -2.5718  -1.9154  -1.6622

          k = 0.2000 0.0000 0.2000 (   851 PWs)   bands (ev):

   -22.9288  -2.0944  -1.8028  -1.6495

          k = 0.0000 0.4000 0.0000 (   849 PWs)   bands (ev):

   -22.8663  -2.3435  -1.9072  -1.9072

          k =-0.1000 0.5000-0.1000 (   846 PWs)   bands (ev):

   -22.7970  -2.7483  -2.0096  -1.9759

          k =-0.2000 0.6000-0.2000 (   842 PWs)   bands (ev):

   -22.7233  -3.1198  -2.1472  -2.0042

          k = 0.7000-0.3000 0.7000 (   837 PWs)   bands (ev):

   -22.6739  -3.3218  -2.3044  -1.9550

          k = 0.6000-0.2000 0.6000 (   838 PWs)   bands (ev):

   -22.6688  -3.3023  -2.4230  -1.8950

          k = 0.5000-0.1000 0.5000 (   839 PWs)   bands (ev):

   -22.7099  -3.0757  -2.4218  -1.8052

          k = 0.4000 0.0000 0.4000 (   837 PWs)   bands (ev):

   -22.7802  -2.8095  -2.2239  -1.6671

          k = 0.0000 0.6000 0.0000 (   833 PWs)   bands (ev):

   -22.7426  -2.9911  -2.0563  -2.0563

          k =-0.1000 0.7000-0.1000 (   835 PWs)   bands (ev):

   -22.6819  -3.2642  -2.2310  -2.1253

          k = 0.8000-0.2000 0.8000 (   838 PWs)   bands (ev):

   -22.6377  -3.3841  -2.4812  -2.1227

          k = 0.7000-0.1000 0.7000 (   837 PWs)   bands (ev):

   -22.6273  -3.2544  -2.7593  -2.0315

          k = 0.6000-0.0000 0.6000 (   840 PWs)   bands (ev):

   -22.6552  -3.0106  -2.8690  -1.9340

          k = 0.0000 0.8000 0.0000 (   830 PWs)   bands (ev):

   -22.6374  -3.5103  -2.2152  -2.2152

          k = 0.9000-0.1000 0.9000 (   826 PWs)   bands (ev):

   -22.6072  -3.5661  -2.3565  -2.2278

          k = 0.8000 0.0000 0.8000 (   842 PWs)   bands (ev):

   -22.6042  -3.4790  -2.6661  -2.1756

          k = 0.0000-1.0000 0.0000 (   846 PWs)   bands (ev):

   -22.5971  -3.7386  -2.3394  -2.3394

          k =-0.2000 0.4000 0.0000 (   845 PWs)   bands (ev):

   -22.8431  -2.5289  -1.9763  -1.7811

          k =-0.3000 0.5000-0.1000 (   841 PWs)   bands (ev):

   -22.7647  -2.9347  -2.1425  -1.8099

          k = 0.6000-0.4000 0.8000 (   836 PWs)   bands (ev):

   -22.7002  -3.2414  -2.2198  -1.8658

          k = 0.5000-0.3000 0.7000 (   834 PWs)   bands (ev):

   -22.6753  -3.3457  -2.2538  -1.8945

          k =-0.2000 0.6000 0.0000 (   844 PWs)   bands (ev):

   -22.7315  -3.0382  -2.2208  -2.0167

          k = 0.7000-0.3000 0.9000 (   840 PWs)   bands (ev):

   -22.6714  -3.2194  -2.4367  -2.0574

          k = 0.6000-0.2000 0.8000 (   836 PWs)   bands (ev):

   -22.6403  -3.2475  -2.6195  -2.0471

          k = 0.5000-0.1000 0.7000 (   836 PWs)   bands (ev):

   -22.6509  -3.1463  -2.7035  -1.9654

          k = 0.4000 0.0000 0.6000 (   841 PWs)   bands (ev):

   -22.6990  -3.0419  -2.5255  -1.8941

          k = 0.8000-0.2000 1.0000 (   834 PWs)   bands (ev):

   -22.6357  -3.4163  -2.3690  -2.2030

          k = 0.7000-0.1000 0.9000 (   835 PWs)   bands (ev):

   -22.6107  -3.3820  -2.6279  -2.1923

          k = 0.6000 0.0000 0.8000 (   840 PWs)   bands (ev):

   -22.6169  -3.1597  -2.9131  -2.1122

          k =-0.2000-1.0000 0.0000 (   830 PWs)   bands (ev):

   -22.5978  -3.5719  -2.4252  -2.2665

          k = 0.6000-0.2000 1.0000 (   840 PWs)   bands (ev):

   -22.6290  -3.1861  -2.7586  -2.1450

          k = 0.5000-0.1000 0.9000 (   842 PWs)   bands (ev):

   -22.6129  -3.1214  -2.9349  -2.1926

          k =-0.4000-1.0000 0.0000 (   844 PWs)   bands (ev):

   -22.6016  -3.2777  -2.8570  -2.2355

     highest occupied level (ev):    -1.6495

!    total energy              =     -48.61202077 Ry
     estimated scf accuracy    <       0.00000042 Ry

     The total energy is the sum of the following terms:
     one-electron contribution =     -27.34211099 Ry
     hartree contribution      =      18.13593360 Ry
     xc contribution           =      -9.78508061 Ry
     ewald contribution        =     -29.62076277 Ry

     convergence has been achieved in  15 iterations
     Writing meta-gga kinetic term

     Writing all to output data dir ./input_pw/LiF/12/pwscf.save/
     Writing meta-gga kinetic term
 
     init_run     :      0.85s CPU      2.11s WALL (       1 calls)
     electrons    :     15.29s CPU     28.59s WALL (       1 calls)

     Called by init_run:
     wfcinit      :      0.77s CPU      1.92s WALL (       1 calls)
     potinit      :      0.01s CPU      0.06s WALL (       1 calls)
     hinit0       :      0.06s CPU      0.12s WALL (       1 calls)

     Called by electrons:
     c_bands      :     11.94s CPU     22.30s WALL (      15 calls)
     sum_band     :      2.98s CPU      5.58s WALL (      15 calls)
     v_of_rho     :      0.19s CPU      0.39s WALL (      16 calls)
     mix_rho      :      0.19s CPU      0.35s WALL (      15 calls)

     Called by c_bands:
     init_us_2    :      0.06s CPU      0.07s WALL (    1457 calls)
     init_us_2:cp :      0.06s CPU      0.07s WALL (    1457 calls)
     cegterg      :     11.88s CPU     22.21s WALL (     705 calls)

     Called by *egterg:
     cdiaghg      :      0.06s CPU      0.11s WALL (    1574 calls)
     h_psi        :     12.40s CPU     23.76s WALL (    1621 calls)
     g_psi        :      0.01s CPU      0.01s WALL (     869 calls)

     Called by h_psi:
     h_psi:calbec :      0.02s CPU      0.02s WALL (    1621 calls)
     vloc_psi     :      3.06s CPU      5.41s WALL (    1621 calls)
     add_vuspsi   :      0.03s CPU      0.05s WALL (    1621 calls)
     h_psi_meta   :      9.27s CPU     18.24s WALL (    1621 calls)

     General routines
     calbec       :      0.02s CPU      0.02s WALL (    1621 calls)
     fft          :      0.04s CPU      0.06s WALL (     189 calls)
     ffts         :      0.10s CPU      0.17s WALL (     446 calls)
     fftw         :     13.85s CPU     26.68s WALL (   62168 calls)
     interpolate  :      0.00s CPU      0.00s WALL (      16 calls)
 
     Parallel routines
 
     PWSCF        :     16.18s CPU     30.81s WALL

 
   This run was terminated on:   9:44:15  10Apr2023            

=------------------------------------------------------------------------------=
   JOB DONE.
=------------------------------------------------------------------------------=
