
     Program PWSCF v.7.0 starts on 29Mar2023 at 12:34:18 

     This program is part of the open-source Quantum ESPRESSO suite
     for quantum simulation of materials; please cite
         "P. Giannozzi et al., J. Phys.:Condens. Matter 21 395502 (2009);
         "P. Giannozzi et al., J. Phys.:Condens. Matter 29 465901 (2017);
         "P. Giannozzi et al., J. Chem. Phys. 152 154105 (2020);
          URL http://www.quantum-espresso.org", 
     in publications or presentations arising from this work. More details at
     http://www.quantum-espresso.org/quote

     Parallel version (MPI), running on     1 processors

     MPI processes distributed on     1 nodes
     23553 MiB available memory on the printing compute node when the environment starts
 
     Waiting for input...
     Reading input from standard input
Warning: card &CELL ignored
Warning: card / ignored

     Current dimensions of program PWSCF are:
     Max number of different atomic species (ntypx) = 10
     Max number of k-points (npk) =  40000
     Max angular momentum in pseudopotentials (lmaxx) =  4

     WARNING: the MGGA functional with ID    5 has been 
     read together with other dft terms, but it should 
     stand alone in order to work properly. The other 
     terms will be ignored.

     Subspace diagonalization in iterative solution of the eigenvalue problem:
     a serial algorithm will be used

 
     G-vector sticks info
     --------------------
     sticks:   dense  smooth     PW     G-vecs:    dense   smooth      PW
     Sum         223     223     85                 2229     2229     531
 
     Using Slab Decomposition
 


     bravais-lattice index     =            2
     lattice parameter (alat)  =       5.7168  a.u.
     unit-cell volume          =      46.7088 (a.u.)^3
     number of atoms/cell      =            2
     number of atomic types    =            1
     number of electrons       =         8.00
     number of Kohn-Sham states=            4
     kinetic-energy cutoff     =      50.0000  Ry
     charge density cutoff     =     200.0000  Ry
     scf convergence threshold =      1.0E-06
     mixing beta               =       0.0100
     number of iterations used =            8  local-TF  mixing
     Exchange-correlation= SLA  PW   SCAN SCAN
                           (   0   0   0   0   0 263 267)

     celldm(1)=   5.716799  celldm(2)=   0.000000  celldm(3)=   0.000000
     celldm(4)=   0.000000  celldm(5)=   0.000000  celldm(6)=   0.000000

     crystal axes: (cart. coord. in units of alat)
               a(1) = (  -0.500000   0.000000   0.500000 )  
               a(2) = (   0.000000   0.500000   0.500000 )  
               a(3) = (  -0.500000   0.500000   0.000000 )  

     reciprocal axes: (cart. coord. in units 2 pi/alat)
               b(1) = ( -1.000000 -1.000000  1.000000 )  
               b(2) = (  1.000000  1.000000  1.000000 )  
               b(3) = ( -1.000000  1.000000 -1.000000 )  


     PseudoPot. # 1 for C  read from file:
     ~/Documents/TA/PWDFT.jl/pseudopotentials/scan_upf/C.SCAN.UPF2
     MD5 check sum: Not computed, couldn't open file
     Pseudo is Norm-conserving, Zval =  4.0
     Generated by new atomic code, or converted to UPF format
     Using radial grid of 1389 points,  1 beta functions with: 
                l(1) =   0

     atomic species   valence    mass     pseudopotential
        C              4.00    12.01100     C ( 1.00)

     48 Sym. Ops., with inversion, found (24 have fractional translation)



   Cartesian axes

     site n.     atom                  positions (alat units)
         1           C   tau(   1) = (   0.0000000   0.0000000   0.0000000  )
         2           C   tau(   2) = (   0.2500000   0.2500000   0.2500000  )

     number of k points=    47
                       cart. coord. in units 2pi/alat
        k(    1) = (   0.0000000   0.0000000   0.0000000), wk =   0.0020000
        k(    2) = (  -0.1000000   0.1000000  -0.1000000), wk =   0.0160000
        k(    3) = (  -0.2000000   0.2000000  -0.2000000), wk =   0.0160000
        k(    4) = (  -0.3000000   0.3000000  -0.3000000), wk =   0.0160000
        k(    5) = (  -0.4000000   0.4000000  -0.4000000), wk =   0.0160000
        k(    6) = (   0.5000000  -0.5000000   0.5000000), wk =   0.0080000
        k(    7) = (   0.0000000   0.2000000   0.0000000), wk =   0.0120000
        k(    8) = (  -0.1000000   0.3000000  -0.1000000), wk =   0.0480000
        k(    9) = (  -0.2000000   0.4000000  -0.2000000), wk =   0.0480000
        k(   10) = (  -0.3000000   0.5000000  -0.3000000), wk =   0.0480000
        k(   11) = (   0.6000000  -0.4000000   0.6000000), wk =   0.0480000
        k(   12) = (   0.5000000  -0.3000000   0.5000000), wk =   0.0480000
        k(   13) = (   0.4000000  -0.2000000   0.4000000), wk =   0.0480000
        k(   14) = (   0.3000000  -0.1000000   0.3000000), wk =   0.0480000
        k(   15) = (   0.2000000   0.0000000   0.2000000), wk =   0.0240000
        k(   16) = (   0.0000000   0.4000000   0.0000000), wk =   0.0120000
        k(   17) = (  -0.1000000   0.5000000  -0.1000000), wk =   0.0480000
        k(   18) = (  -0.2000000   0.6000000  -0.2000000), wk =   0.0480000
        k(   19) = (   0.7000000  -0.3000000   0.7000000), wk =   0.0480000
        k(   20) = (   0.6000000  -0.2000000   0.6000000), wk =   0.0480000
        k(   21) = (   0.5000000  -0.1000000   0.5000000), wk =   0.0480000
        k(   22) = (   0.4000000   0.0000000   0.4000000), wk =   0.0240000
        k(   23) = (   0.0000000   0.6000000   0.0000000), wk =   0.0120000
        k(   24) = (  -0.1000000   0.7000000  -0.1000000), wk =   0.0480000
        k(   25) = (   0.8000000  -0.2000000   0.8000000), wk =   0.0480000
        k(   26) = (   0.7000000  -0.1000000   0.7000000), wk =   0.0480000
        k(   27) = (   0.6000000  -0.0000000   0.6000000), wk =   0.0240000
        k(   28) = (   0.0000000   0.8000000   0.0000000), wk =   0.0120000
        k(   29) = (   0.9000000  -0.1000000   0.9000000), wk =   0.0480000
        k(   30) = (   0.8000000   0.0000000   0.8000000), wk =   0.0240000
        k(   31) = (   0.0000000  -1.0000000   0.0000000), wk =   0.0060000
        k(   32) = (  -0.2000000   0.4000000   0.0000000), wk =   0.0480000
        k(   33) = (  -0.3000000   0.5000000  -0.1000000), wk =   0.0960000
        k(   34) = (   0.6000000  -0.4000000   0.8000000), wk =   0.0960000
        k(   35) = (   0.5000000  -0.3000000   0.7000000), wk =   0.0480000
        k(   36) = (  -0.2000000   0.6000000   0.0000000), wk =   0.0480000
        k(   37) = (   0.7000000  -0.3000000   0.9000000), wk =   0.0960000
        k(   38) = (   0.6000000  -0.2000000   0.8000000), wk =   0.0960000
        k(   39) = (   0.5000000  -0.1000000   0.7000000), wk =   0.0960000
        k(   40) = (   0.4000000   0.0000000   0.6000000), wk =   0.0480000
        k(   41) = (   0.8000000  -0.2000000   1.0000000), wk =   0.0480000
        k(   42) = (   0.7000000  -0.1000000   0.9000000), wk =   0.0960000
        k(   43) = (   0.6000000   0.0000000   0.8000000), wk =   0.0480000
        k(   44) = (  -0.2000000  -1.0000000   0.0000000), wk =   0.0240000
        k(   45) = (   0.6000000  -0.2000000   1.0000000), wk =   0.0480000
        k(   46) = (   0.5000000  -0.1000000   0.9000000), wk =   0.0480000
        k(   47) = (  -0.4000000  -1.0000000   0.0000000), wk =   0.0240000

     Dense  grid:     2229 G-vectors     FFT dimensions: (  20,  20,  20)

     Estimated max dynamical RAM per process >       4.28 MB

     WARNING: libxc functional with ID  263 depends
      on external parameters: check the user_guide of
      QE if you need to modify them or to check their
      default values.

     Initial potential from superposition of free atoms

     starting charge       7.9999, renormalised to       8.0000
     Starting wfcs are    8 randomized atomic wfcs

     total cpu time spent up to now is        1.0 secs

     Self-consistent Calculation

     iteration #  1     ecut=    50.00 Ry     beta= 0.01
     Davidson diagonalization with overlap
     ethr =  1.00E-02,  avg # of iterations =  2.0

     total cpu time spent up to now is        2.3 secs

     total energy              =     -22.35322607 Ry
     estimated scf accuracy    <       4.15842054 Ry

     iteration #  2     ecut=    50.00 Ry     beta= 0.01
     Davidson diagonalization with overlap
     ethr =  1.00E-02,  avg # of iterations =  1.0

     total cpu time spent up to now is        3.0 secs

     total energy              =     -22.36358749 Ry
     estimated scf accuracy    <       4.14172604 Ry

     iteration #  3     ecut=    50.00 Ry     beta= 0.01
     Davidson diagonalization with overlap
     ethr =  1.00E-02,  avg # of iterations =  1.0

     total cpu time spent up to now is        3.8 secs

     total energy              =     -22.38027271 Ry
     estimated scf accuracy    <       0.30986680 Ry

     iteration #  4     ecut=    50.00 Ry     beta= 0.01
     Davidson diagonalization with overlap
     ethr =  3.87E-03,  avg # of iterations =  1.0

     total cpu time spent up to now is        4.6 secs

     total energy              =     -22.38141931 Ry
     estimated scf accuracy    <       0.03010564 Ry

     iteration #  5     ecut=    50.00 Ry     beta= 0.01
     Davidson diagonalization with overlap
     ethr =  3.76E-04,  avg # of iterations =  1.0

     total cpu time spent up to now is        5.3 secs

     total energy              =     -22.38017204 Ry
     estimated scf accuracy    <       0.02757576 Ry

     iteration #  6     ecut=    50.00 Ry     beta= 0.01
     Davidson diagonalization with overlap
     ethr =  3.45E-04,  avg # of iterations =  1.0

     total cpu time spent up to now is        6.1 secs

     total energy              =     -22.38104422 Ry
     estimated scf accuracy    <       0.00717911 Ry

     iteration #  7     ecut=    50.00 Ry     beta= 0.01
     Davidson diagonalization with overlap
     ethr =  8.97E-05,  avg # of iterations =  1.0

     total cpu time spent up to now is        6.8 secs

     total energy              =     -22.38143561 Ry
     estimated scf accuracy    <       0.00035906 Ry

     iteration #  8     ecut=    50.00 Ry     beta= 0.01
     Davidson diagonalization with overlap
     ethr =  4.49E-06,  avg # of iterations =  1.3

     total cpu time spent up to now is        7.6 secs

     total energy              =     -22.38145059 Ry
     estimated scf accuracy    <       0.00020533 Ry

     iteration #  9     ecut=    50.00 Ry     beta= 0.01
     Davidson diagonalization with overlap
     ethr =  2.57E-06,  avg # of iterations =  1.0

     total cpu time spent up to now is        8.4 secs

     total energy              =     -22.38156500 Ry
     estimated scf accuracy    <       0.00033196 Ry

     iteration # 10     ecut=    50.00 Ry     beta= 0.01
     Davidson diagonalization with overlap
     ethr =  2.57E-06,  avg # of iterations =  1.0

     total cpu time spent up to now is        9.0 secs

     total energy              =     -22.38159874 Ry
     estimated scf accuracy    <       0.00007156 Ry

     iteration # 11     ecut=    50.00 Ry     beta= 0.01
     Davidson diagonalization with overlap
     ethr =  8.94E-07,  avg # of iterations =  2.0

     total cpu time spent up to now is       10.0 secs

     total energy              =     -22.38161641 Ry
     estimated scf accuracy    <       0.00018839 Ry

     iteration # 12     ecut=    50.00 Ry     beta= 0.01
     Davidson diagonalization with overlap
     ethr =  8.94E-07,  avg # of iterations =  1.0

     total cpu time spent up to now is       10.8 secs

     total energy              =     -22.38161780 Ry
     estimated scf accuracy    <       0.00011094 Ry

     iteration # 13     ecut=    50.00 Ry     beta= 0.01
     Davidson diagonalization with overlap
     ethr =  8.94E-07,  avg # of iterations =  1.0

     total cpu time spent up to now is       11.6 secs

     total energy              =     -22.38162120 Ry
     estimated scf accuracy    <       0.00000495 Ry

     iteration # 14     ecut=    50.00 Ry     beta= 0.01
     Davidson diagonalization with overlap
     ethr =  6.19E-08,  avg # of iterations =  1.1

     total cpu time spent up to now is       12.4 secs

     total energy              =     -22.38162145 Ry
     estimated scf accuracy    <       0.00000176 Ry

     iteration # 15     ecut=    50.00 Ry     beta= 0.01
     Davidson diagonalization with overlap
     ethr =  2.20E-08,  avg # of iterations =  1.0

     total cpu time spent up to now is       13.1 secs

     total energy              =     -22.38162146 Ry
     estimated scf accuracy    <       0.00000163 Ry

     iteration # 16     ecut=    50.00 Ry     beta= 0.01
     Davidson diagonalization with overlap
     ethr =  2.04E-08,  avg # of iterations =  1.0

     total cpu time spent up to now is       13.8 secs

     total energy              =     -22.38162151 Ry
     estimated scf accuracy    <       0.00000174 Ry

     iteration # 17     ecut=    50.00 Ry     beta= 0.01
     Davidson diagonalization with overlap
     ethr =  2.04E-08,  avg # of iterations =  1.0

     total cpu time spent up to now is       14.5 secs

     End of self-consistent calculation

          k = 0.0000 0.0000 0.0000 (   283 PWs)   bands (ev):

    -6.3253  24.0257  24.0257  24.0257

          k =-0.1000 0.1000-0.1000 (   280 PWs)   bands (ev):

    -5.9325  21.4203  23.2668  23.2668

          k =-0.2000 0.2000-0.2000 (   283 PWs)   bands (ev):

    -4.7586  16.7378  21.8321  21.8321

          k =-0.3000 0.3000-0.3000 (   287 PWs)   bands (ev):

    -2.8170  11.8690  20.5896  20.5896

          k =-0.4000 0.4000-0.4000 (   281 PWs)   bands (ev):

    -0.1271   7.3145  19.8139  19.8139

          k = 0.5000-0.5000 0.5000 (   272 PWs)   bands (ev):

     3.1870   3.3556  19.5655  19.5655

          k = 0.0000 0.2000 0.0000 (   283 PWs)   bands (ev):

    -5.8017  21.8876  21.8876  23.0802

          k =-0.1000 0.3000-0.1000 (   289 PWs)   bands (ev):

    -4.8883  18.3154  20.3050  22.2296

          k =-0.2000 0.4000-0.2000 (   286 PWs)   bands (ev):

    -3.2028  13.6561  19.1495  20.8443

          k =-0.3000 0.5000-0.3000 (   275 PWs)   bands (ev):

    -0.7631   9.0581  18.6134  19.4568

          k = 0.6000-0.4000 0.6000 (   275 PWs)   bands (ev):

     2.3891   4.8721  18.4044  18.7175

          k = 0.5000-0.3000 0.5000 (   278 PWs)   bands (ev):

     1.2604   6.2145  17.8809  19.4064

          k = 0.4000-0.2000 0.4000 (   285 PWs)   bands (ev):

    -1.6604  10.5714  17.9629  20.5922

          k = 0.3000-0.1000 0.3000 (   288 PWs)   bands (ev):

    -3.8500  15.2676  18.6794  22.0675

          k = 0.2000 0.0000 0.2000 (   285 PWs)   bands (ev):

    -5.2795  19.6951  20.1381  23.3098

          k = 0.0000 0.4000 0.0000 (   291 PWs)   bands (ev):

    -4.2365  18.6119  18.6119  20.3799

          k =-0.1000 0.5000-0.1000 (   288 PWs)   bands (ev):

    -2.8118  15.4439  17.3735  18.9809

          k =-0.2000 0.6000-0.2000 (   280 PWs)   bands (ev):

    -0.6308  11.2365  16.7989  17.2546

          k = 0.7000-0.3000 0.7000 (   275 PWs)   bands (ev):

     2.2638   7.0953  15.6543  16.9492

          k = 0.6000-0.2000 0.6000 (   275 PWs)   bands (ev):

     3.3453   5.8550  14.5550  17.7794

          k = 0.5000-0.1000 0.5000 (   279 PWs)   bands (ev):

     0.2444   9.9310  14.1212  19.1708

          k = 0.4000 0.0000 0.4000 (   281 PWs)   bands (ev):

    -2.1725  14.1299  14.6013  20.8360

          k = 0.0000 0.6000 0.0000 (   290 PWs)   bands (ev):

    -1.6491  15.9924  15.9924  16.2793

          k =-0.1000 0.7000-0.1000 (   280 PWs)   bands (ev):

     0.2692  13.1088  14.6124  15.2664

          k = 0.8000-0.2000 0.8000 (   276 PWs)   bands (ev):

     2.8937   9.6511  12.4796  15.2904

          k = 0.7000-0.1000 0.7000 (   278 PWs)   bands (ev):

     5.7400   6.5300  10.8894  16.0351

          k = 0.6000-0.0000 0.6000 (   280 PWs)   bands (ev):

     2.8439   9.8552  10.2142  17.4204

          k = 0.0000 0.8000 0.0000 (   278 PWs)   bands (ev):

     1.9151  11.3197  14.3569  14.3569

          k = 0.9000-0.1000 0.9000 (   276 PWs)   bands (ev):

     4.2649   8.9582  12.6213  14.1856

          k = 0.8000 0.0000 0.8000 (   280 PWs)   bands (ev):

     7.0908   7.2223   9.6378  14.7611

          k = 0.0000-1.0000 0.0000 (   286 PWs)   bands (ev):

     6.3300   6.3300  13.7928  13.7928

          k =-0.2000 0.4000 0.0000 (   288 PWs)   bands (ev):

    -3.7192  16.7529  17.2029  21.2442

          k =-0.3000 0.5000-0.1000 (   281 PWs)   bands (ev):

    -1.7856  12.5476  16.1996  19.7047

          k = 0.6000-0.4000 0.8000 (   280 PWs)   bands (ev):

     0.8812   8.1915  16.0199  18.1721

          k = 0.5000-0.3000 0.7000 (   276 PWs)   bands (ev):

     4.0442   4.4389  16.1938  17.3966

          k =-0.2000 0.6000 0.0000 (   283 PWs)   bands (ev):

    -1.1392  14.2297  14.7400  17.3148

          k = 0.7000-0.3000 0.9000 (   280 PWs)   bands (ev):

     1.2645  10.5666  14.0598  15.6131

          k = 0.6000-0.2000 0.8000 (   274 PWs)   bands (ev):

     4.3235   6.7459  13.2682  15.2622

          k = 0.5000-0.1000 0.7000 (   277 PWs)   bands (ev):

     3.2200   8.0622  12.3951  16.3045

          k = 0.4000 0.0000 0.6000 (   276 PWs)   bands (ev):

     0.3738  11.9053  12.3425  17.9769

          k = 0.8000-0.2000 1.0000 (   276 PWs)   bands (ev):

     2.4043  11.3949  13.1906  13.6074

          k = 0.7000-0.1000 0.9000 (   281 PWs)   bands (ev):

     5.1899   9.1376  10.5273  13.6005

          k = 0.6000 0.0000 0.8000 (   276 PWs)   bands (ev):

     6.0686   8.5028   8.9695  14.6339

          k =-0.2000-1.0000 0.0000 (   276 PWs)   bands (ev):

     6.7647   6.7647  12.7097  12.7097

          k = 0.6000-0.2000 1.0000 (   269 PWs)   bands (ev):

     3.8453  10.3245  10.9234  13.5834

          k = 0.5000-0.1000 0.9000 (   272 PWs)   bands (ev):

     6.5816   7.5080  10.9953  12.4941

          k =-0.4000-1.0000 0.0000 (   276 PWs)   bands (ev):

     7.9026   7.9026  10.6812  10.6812

     highest occupied level (ev):    24.0257

!    total energy              =     -22.38162172 Ry
     estimated scf accuracy    <       0.00000081 Ry

     The total energy is the sum of the following terms:
     one-electron contribution =      14.26231373 Ry
     hartree contribution      =       1.52073051 Ry
     xc contribution           =      -8.01186132 Ry
     ewald contribution        =     -30.15280463 Ry

     convergence has been achieved in  17 iterations
     Writing meta-gga kinetic term

     Writing all to output data dir ./input_pw/C/0/pwscf.save/
     Writing meta-gga kinetic term
 
     init_run     :      0.36s CPU      0.94s WALL (       1 calls)
     electrons    :      6.61s CPU     13.52s WALL (       1 calls)

     Called by init_run:
     wfcinit      :      0.31s CPU      0.84s WALL (       1 calls)
     potinit      :      0.01s CPU      0.01s WALL (       1 calls)
     hinit0       :      0.03s CPU      0.09s WALL (       1 calls)

     Called by electrons:
     c_bands      :      5.21s CPU     10.60s WALL (      17 calls)
     sum_band     :      1.27s CPU      2.67s WALL (      17 calls)
     v_of_rho     :      0.09s CPU      0.20s WALL (      18 calls)
     mix_rho      :      0.04s CPU      0.05s WALL (      17 calls)

     Called by c_bands:
     init_us_2    :      0.03s CPU      0.08s WALL (    1645 calls)
     init_us_2:cp :      0.02s CPU      0.06s WALL (    1645 calls)
     cegterg      :      5.17s CPU     10.53s WALL (     799 calls)

     Called by *egterg:
     cdiaghg      :      0.07s CPU      0.11s WALL (    1710 calls)
     h_psi        :      5.32s CPU     10.99s WALL (    1757 calls)
     g_psi        :      0.00s CPU      0.02s WALL (     911 calls)

     Called by h_psi:
     h_psi:calbec :      0.01s CPU      0.01s WALL (    1757 calls)
     vloc_psi     :      1.31s CPU      2.62s WALL (    1757 calls)
     add_vuspsi   :      0.02s CPU      0.07s WALL (    1757 calls)
     h_psi_meta   :      3.95s CPU      8.19s WALL (    1757 calls)

     General routines
     calbec       :      0.01s CPU      0.01s WALL (    1757 calls)
     fft          :      0.02s CPU      0.07s WALL (     213 calls)
     ffts         :      0.02s CPU      0.04s WALL (     272 calls)
     fftw         :      5.84s CPU     11.96s WALL (   70192 calls)
     interpolate  :      0.00s CPU      0.00s WALL (      18 calls)
 
     Parallel routines
 
     PWSCF        :      7.00s CPU     14.55s WALL

 
   This run was terminated on:  12:34:33  29Mar2023            

=------------------------------------------------------------------------------=
   JOB DONE.
=------------------------------------------------------------------------------=
