
     Program PWSCF v.7.0 starts on  7Jul2023 at 14:25:23 

     This program is part of the open-source Quantum ESPRESSO suite
     for quantum simulation of materials; please cite
         "P. Giannozzi et al., J. Phys.:Condens. Matter 21 395502 (2009);
         "P. Giannozzi et al., J. Phys.:Condens. Matter 29 465901 (2017);
         "P. Giannozzi et al., J. Chem. Phys. 152 154105 (2020);
          URL http://www.quantum-espresso.org", 
     in publications or presentations arising from this work. More details at
     http://www.quantum-espresso.org/quote

     Parallel version (MPI), running on     1 processors

     MPI processes distributed on     1 nodes
     27455 MiB available memory on the printing compute node when the environment starts
 
     Waiting for input...
     Reading input from standard input
Warning: card &CELL ignored
Warning: card / ignored

     Current dimensions of program PWSCF are:
     Max number of different atomic species (ntypx) = 10
     Max number of k-points (npk) =  40000
     Max angular momentum in pseudopotentials (lmaxx) =  4

     WARNING: the MGGA functional with ID    5 has been 
     read together with other dft terms, but it should 
     stand alone in order to work properly. The other 
     terms will be ignored.

     Subspace diagonalization in iterative solution of the eigenvalue problem:
     a serial algorithm will be used

 
     G-vector sticks info
     --------------------
     sticks:   dense  smooth     PW     G-vecs:    dense   smooth      PW
     Sum         223     223     85                 2229     2229     531
 
     Using Slab Decomposition
 


     bravais-lattice index     =            2
     lattice parameter (alat)  =       5.7168  a.u.
     unit-cell volume          =      46.7088 (a.u.)^3
     number of atoms/cell      =            2
     number of atomic types    =            1
     number of electrons       =         8.00
     number of Kohn-Sham states=            4
     kinetic-energy cutoff     =      50.0000  Ry
     charge density cutoff     =     200.0000  Ry
     scf convergence threshold =      2.0E-05
     mixing beta               =       0.2000
     number of iterations used =            8  local-TF  mixing
     Exchange-correlation= SLA  PW   SCAN SCAN
                           (   0   0   0   0   0 263 267)

     celldm(1)=   5.716799  celldm(2)=   0.000000  celldm(3)=   0.000000
     celldm(4)=   0.000000  celldm(5)=   0.000000  celldm(6)=   0.000000

     crystal axes: (cart. coord. in units of alat)
               a(1) = (  -0.500000   0.000000   0.500000 )  
               a(2) = (   0.000000   0.500000   0.500000 )  
               a(3) = (  -0.500000   0.500000   0.000000 )  

     reciprocal axes: (cart. coord. in units 2 pi/alat)
               b(1) = ( -1.000000 -1.000000  1.000000 )  
               b(2) = (  1.000000  1.000000  1.000000 )  
               b(3) = ( -1.000000  1.000000 -1.000000 )  


     PseudoPot. # 1 for C  read from file:
     ~/Documents/TA/PWDFT.jl/pseudopotentials/scan_upf/C.SCAN.UPF2
     MD5 check sum: Not computed, couldn't open file
     Pseudo is Norm-conserving, Zval =  4.0
     Generated by new atomic code, or converted to UPF format
     Using radial grid of 1389 points,  1 beta functions with: 
                l(1) =   0

     atomic species   valence    mass     pseudopotential
        C              4.00    12.01100     C ( 1.00)

     48 Sym. Ops., with inversion, found (24 have fractional translation)



   Cartesian axes

     site n.     atom                  positions (alat units)
         1           C   tau(   1) = (   0.0000000   0.0000000   0.0000000  )
         2           C   tau(   2) = (   0.2500000   0.2500000   0.2500000  )

     number of k points=    47
                       cart. coord. in units 2pi/alat
        k(    1) = (   0.0000000   0.0000000   0.0000000), wk =   0.0020000
        k(    2) = (  -0.1000000   0.1000000  -0.1000000), wk =   0.0160000
        k(    3) = (  -0.2000000   0.2000000  -0.2000000), wk =   0.0160000
        k(    4) = (  -0.3000000   0.3000000  -0.3000000), wk =   0.0160000
        k(    5) = (  -0.4000000   0.4000000  -0.4000000), wk =   0.0160000
        k(    6) = (   0.5000000  -0.5000000   0.5000000), wk =   0.0080000
        k(    7) = (   0.0000000   0.2000000   0.0000000), wk =   0.0120000
        k(    8) = (  -0.1000000   0.3000000  -0.1000000), wk =   0.0480000
        k(    9) = (  -0.2000000   0.4000000  -0.2000000), wk =   0.0480000
        k(   10) = (  -0.3000000   0.5000000  -0.3000000), wk =   0.0480000
        k(   11) = (   0.6000000  -0.4000000   0.6000000), wk =   0.0480000
        k(   12) = (   0.5000000  -0.3000000   0.5000000), wk =   0.0480000
        k(   13) = (   0.4000000  -0.2000000   0.4000000), wk =   0.0480000
        k(   14) = (   0.3000000  -0.1000000   0.3000000), wk =   0.0480000
        k(   15) = (   0.2000000   0.0000000   0.2000000), wk =   0.0240000
        k(   16) = (   0.0000000   0.4000000   0.0000000), wk =   0.0120000
        k(   17) = (  -0.1000000   0.5000000  -0.1000000), wk =   0.0480000
        k(   18) = (  -0.2000000   0.6000000  -0.2000000), wk =   0.0480000
        k(   19) = (   0.7000000  -0.3000000   0.7000000), wk =   0.0480000
        k(   20) = (   0.6000000  -0.2000000   0.6000000), wk =   0.0480000
        k(   21) = (   0.5000000  -0.1000000   0.5000000), wk =   0.0480000
        k(   22) = (   0.4000000   0.0000000   0.4000000), wk =   0.0240000
        k(   23) = (   0.0000000   0.6000000   0.0000000), wk =   0.0120000
        k(   24) = (  -0.1000000   0.7000000  -0.1000000), wk =   0.0480000
        k(   25) = (   0.8000000  -0.2000000   0.8000000), wk =   0.0480000
        k(   26) = (   0.7000000  -0.1000000   0.7000000), wk =   0.0480000
        k(   27) = (   0.6000000  -0.0000000   0.6000000), wk =   0.0240000
        k(   28) = (   0.0000000   0.8000000   0.0000000), wk =   0.0120000
        k(   29) = (   0.9000000  -0.1000000   0.9000000), wk =   0.0480000
        k(   30) = (   0.8000000   0.0000000   0.8000000), wk =   0.0240000
        k(   31) = (   0.0000000  -1.0000000   0.0000000), wk =   0.0060000
        k(   32) = (  -0.2000000   0.4000000   0.0000000), wk =   0.0480000
        k(   33) = (  -0.3000000   0.5000000  -0.1000000), wk =   0.0960000
        k(   34) = (   0.6000000  -0.4000000   0.8000000), wk =   0.0960000
        k(   35) = (   0.5000000  -0.3000000   0.7000000), wk =   0.0480000
        k(   36) = (  -0.2000000   0.6000000   0.0000000), wk =   0.0480000
        k(   37) = (   0.7000000  -0.3000000   0.9000000), wk =   0.0960000
        k(   38) = (   0.6000000  -0.2000000   0.8000000), wk =   0.0960000
        k(   39) = (   0.5000000  -0.1000000   0.7000000), wk =   0.0960000
        k(   40) = (   0.4000000   0.0000000   0.6000000), wk =   0.0480000
        k(   41) = (   0.8000000  -0.2000000   1.0000000), wk =   0.0480000
        k(   42) = (   0.7000000  -0.1000000   0.9000000), wk =   0.0960000
        k(   43) = (   0.6000000   0.0000000   0.8000000), wk =   0.0480000
        k(   44) = (  -0.2000000  -1.0000000   0.0000000), wk =   0.0240000
        k(   45) = (   0.6000000  -0.2000000   1.0000000), wk =   0.0480000
        k(   46) = (   0.5000000  -0.1000000   0.9000000), wk =   0.0480000
        k(   47) = (  -0.4000000  -1.0000000   0.0000000), wk =   0.0240000

     Dense  grid:     2229 G-vectors     FFT dimensions: (  20,  20,  20)

     Estimated max dynamical RAM per process >       4.28 MB

     WARNING: libxc functional with ID  263 depends
      on external parameters: check the user_guide of
      QE if you need to modify them or to check their
      default values.

     Initial potential from superposition of free atoms

     starting charge       7.9999, renormalised to       8.0000
     Starting wfcs are    8 randomized atomic wfcs

     total cpu time spent up to now is        1.1 secs

     Self-consistent Calculation

     iteration #  1     ecut=    50.00 Ry     beta= 0.20
     Davidson diagonalization with overlap
     ethr =  1.00E-02,  avg # of iterations =  2.0

     total cpu time spent up to now is        2.1 secs

     total energy              =     -22.41518838 Ry
     estimated scf accuracy    <       4.15842054 Ry

     iteration #  2     ecut=    50.00 Ry     beta= 0.20
     Davidson diagonalization with overlap
     ethr =  1.00E-02,  avg # of iterations =  1.0

     total cpu time spent up to now is        2.9 secs

     total energy              =     -22.36658760 Ry
     estimated scf accuracy    <       2.77046664 Ry

     iteration #  3     ecut=    50.00 Ry     beta= 0.20
     Davidson diagonalization with overlap
     ethr =  1.00E-02,  avg # of iterations =  1.0

     total cpu time spent up to now is        3.7 secs

     total energy              =     -22.37998802 Ry
     estimated scf accuracy    <       0.04666610 Ry

     iteration #  4     ecut=    50.00 Ry     beta= 0.20
     Davidson diagonalization with overlap
     ethr =  5.83E-04,  avg # of iterations =  1.0

     total cpu time spent up to now is        4.4 secs

     total energy              =     -22.38044177 Ry
     estimated scf accuracy    <       0.02064560 Ry

     iteration #  5     ecut=    50.00 Ry     beta= 0.20
     Davidson diagonalization with overlap
     ethr =  2.58E-04,  avg # of iterations =  1.0

     total cpu time spent up to now is        5.2 secs

     total energy              =     -22.38147344 Ry
     estimated scf accuracy    <       0.00347813 Ry

     iteration #  6     ecut=    50.00 Ry     beta= 0.20
     Davidson diagonalization with overlap
     ethr =  4.35E-05,  avg # of iterations =  1.0

     total cpu time spent up to now is        6.0 secs

     total energy              =     -22.38157882 Ry
     estimated scf accuracy    <       0.00006291 Ry

     iteration #  7     ecut=    50.00 Ry     beta= 0.20
     Davidson diagonalization with overlap
     ethr =  7.86E-07,  avg # of iterations =  2.1

     total cpu time spent up to now is        6.9 secs

     total energy              =     -22.38161557 Ry
     estimated scf accuracy    <       0.00003926 Ry

     iteration #  8     ecut=    50.00 Ry     beta= 0.20
     Davidson diagonalization with overlap
     ethr =  4.91E-07,  avg # of iterations =  2.0

     total cpu time spent up to now is        8.0 secs

     End of self-consistent calculation

          k = 0.0000 0.0000 0.0000 (   283 PWs)   bands (ev):

    -6.3239  24.0270  24.0270  24.0270

          k =-0.1000 0.1000-0.1000 (   280 PWs)   bands (ev):

    -5.9312  21.4219  23.2683  23.2683

          k =-0.2000 0.2000-0.2000 (   283 PWs)   bands (ev):

    -4.7572  16.7395  21.8338  21.8338

          k =-0.3000 0.3000-0.3000 (   287 PWs)   bands (ev):

    -2.8156  11.8707  20.5915  20.5915

          k =-0.4000 0.4000-0.4000 (   281 PWs)   bands (ev):

    -0.1257   7.3161  19.8158  19.8158

          k = 0.5000-0.5000 0.5000 (   272 PWs)   bands (ev):

     3.1889   3.3566  19.5675  19.5675

          k = 0.0000 0.2000 0.0000 (   283 PWs)   bands (ev):

    -5.8003  21.8893  21.8893  23.0817

          k =-0.1000 0.3000-0.1000 (   289 PWs)   bands (ev):

    -4.8869  18.3172  20.3068  22.2312

          k =-0.2000 0.4000-0.2000 (   286 PWs)   bands (ev):

    -3.2015  13.6578  19.1514  20.8461

          k =-0.3000 0.5000-0.3000 (   275 PWs)   bands (ev):

    -0.7616   9.0597  18.6153  19.4587

          k = 0.6000-0.4000 0.6000 (   275 PWs)   bands (ev):

     2.3906   4.8736  18.4064  18.7195

          k = 0.5000-0.3000 0.5000 (   278 PWs)   bands (ev):

     1.2619   6.2160  17.8829  19.4084

          k = 0.4000-0.2000 0.4000 (   285 PWs)   bands (ev):

    -1.6590  10.5731  17.9648  20.5941

          k = 0.3000-0.1000 0.3000 (   288 PWs)   bands (ev):

    -3.8487  15.2694  18.6812  22.0692

          k = 0.2000 0.0000 0.2000 (   285 PWs)   bands (ev):

    -5.2782  19.6969  20.1399  23.3114

          k = 0.0000 0.4000 0.0000 (   291 PWs)   bands (ev):

    -4.2351  18.6138  18.6138  20.3816

          k =-0.1000 0.5000-0.1000 (   288 PWs)   bands (ev):

    -2.8104  15.4458  17.3755  18.9827

          k =-0.2000 0.6000-0.2000 (   280 PWs)   bands (ev):

    -0.6293  11.2382  16.8009  17.2563

          k = 0.7000-0.3000 0.7000 (   275 PWs)   bands (ev):

     2.2653   7.0968  15.6561  16.9512

          k = 0.6000-0.2000 0.6000 (   275 PWs)   bands (ev):

     3.3468   5.8564  14.5568  17.7814

          k = 0.5000-0.1000 0.5000 (   279 PWs)   bands (ev):

     0.2458   9.9326  14.1229  19.1727

          k = 0.4000 0.0000 0.4000 (   281 PWs)   bands (ev):

    -2.1711  14.1317  14.6031  20.8378

          k = 0.0000 0.6000 0.0000 (   290 PWs)   bands (ev):

    -1.6477  15.9944  15.9944  16.2811

          k =-0.1000 0.7000-0.1000 (   280 PWs)   bands (ev):

     0.2706  13.1107  14.6142  15.2684

          k = 0.8000-0.2000 0.8000 (   276 PWs)   bands (ev):

     2.8952   9.6528  12.4812  15.2924

          k = 0.7000-0.1000 0.7000 (   278 PWs)   bands (ev):

     5.7419   6.5313  10.8910  16.0371

          k = 0.6000-0.0000 0.6000 (   280 PWs)   bands (ev):

     2.8454   9.8570  10.2158  17.4224

          k = 0.0000 0.8000 0.0000 (   278 PWs)   bands (ev):

     1.9165  11.3214  14.3589  14.3589

          k = 0.9000-0.1000 0.9000 (   276 PWs)   bands (ev):

     4.2665   8.9599  12.6231  14.1876

          k = 0.8000 0.0000 0.8000 (   280 PWs)   bands (ev):

     7.0926   7.2239   9.6392  14.7632

          k = 0.0000-1.0000 0.0000 (   286 PWs)   bands (ev):

     6.3316   6.3316  13.7948  13.7948

          k =-0.2000 0.4000 0.0000 (   288 PWs)   bands (ev):

    -3.7178  16.7547  17.2047  21.2459

          k =-0.3000 0.5000-0.1000 (   281 PWs)   bands (ev):

    -1.7842  12.5493  16.2014  19.7066

          k = 0.6000-0.4000 0.8000 (   280 PWs)   bands (ev):

     0.8827   8.1931  16.0218  18.1740

          k = 0.5000-0.3000 0.7000 (   276 PWs)   bands (ev):

     4.0460   4.4400  16.1957  17.3985

          k =-0.2000 0.6000 0.0000 (   283 PWs)   bands (ev):

    -1.1378  14.2316  14.7418  17.3166

          k = 0.7000-0.3000 0.9000 (   280 PWs)   bands (ev):

     1.2660  10.5683  14.0616  15.6148

          k = 0.6000-0.2000 0.8000 (   274 PWs)   bands (ev):

     4.3251   6.7474  13.2700  15.2640

          k = 0.5000-0.1000 0.7000 (   277 PWs)   bands (ev):

     3.2215   8.0638  12.3969  16.3063

          k = 0.4000 0.0000 0.6000 (   276 PWs)   bands (ev):

     0.3753  11.9071  12.3442  17.9787

          k = 0.8000-0.2000 1.0000 (   276 PWs)   bands (ev):

     2.4058  11.3968  13.1925  13.6091

          k = 0.7000-0.1000 0.9000 (   281 PWs)   bands (ev):

     5.1915   9.1395  10.5288  13.6023

          k = 0.6000 0.0000 0.8000 (   276 PWs)   bands (ev):

     6.0704   8.5045   8.9709  14.6358

          k =-0.2000-1.0000 0.0000 (   276 PWs)   bands (ev):

     6.7663   6.7663  12.7116  12.7116

          k = 0.6000-0.2000 1.0000 (   269 PWs)   bands (ev):

     3.8469  10.3264  10.9250  13.5850

          k = 0.5000-0.1000 0.9000 (   272 PWs)   bands (ev):

     6.5835   7.5094  10.9971  12.4956

          k =-0.4000-1.0000 0.0000 (   276 PWs)   bands (ev):

     7.9045   7.9045  10.6826  10.6826

     highest occupied level (ev):    24.0270

!    total energy              =     -22.38162153 Ry
     estimated scf accuracy    <       0.00000057 Ry

     The total energy is the sum of the following terms:
     one-electron contribution =      14.26240336 Ry
     hartree contribution      =       1.52059504 Ry
     xc contribution           =      -8.01181529 Ry
     ewald contribution        =     -30.15280463 Ry

     convergence has been achieved in   8 iterations
     Writing meta-gga kinetic term

     Writing all to output data dir ./input_pw/C/0/pwscf.save/
     Writing meta-gga kinetic term
 
     init_run     :      0.32s CPU      1.03s WALL (       1 calls)
     electrons    :      3.37s CPU      6.91s WALL (       1 calls)

     Called by init_run:
     wfcinit      :      0.28s CPU      0.93s WALL (       1 calls)
     potinit      :      0.01s CPU      0.01s WALL (       1 calls)
     hinit0       :      0.03s CPU      0.09s WALL (       1 calls)

     Called by electrons:
     c_bands      :      2.71s CPU      5.58s WALL (       8 calls)
     sum_band     :      0.61s CPU      1.23s WALL (       8 calls)
     v_of_rho     :      0.04s CPU      0.06s WALL (       9 calls)
     mix_rho      :      0.02s CPU      0.05s WALL (       8 calls)

     Called by c_bands:
     init_us_2    :      0.01s CPU      0.01s WALL (     799 calls)
     init_us_2:cp :      0.01s CPU      0.01s WALL (     799 calls)
     cegterg      :      2.69s CPU      5.54s WALL (     376 calls)

     Called by *egterg:
     cdiaghg      :      0.03s CPU      0.07s WALL (     897 calls)
     h_psi        :      2.88s CPU      6.30s WALL (     944 calls)
     g_psi        :      0.00s CPU      0.00s WALL (     521 calls)

     Called by h_psi:
     h_psi:calbec :      0.01s CPU      0.03s WALL (     944 calls)
     vloc_psi     :      0.71s CPU      1.58s WALL (     944 calls)
     add_vuspsi   :      0.01s CPU      0.01s WALL (     944 calls)
     h_psi_meta   :      2.14s CPU      4.63s WALL (     944 calls)

     General routines
     calbec       :      0.00s CPU      0.02s WALL (     944 calls)
     fft          :      0.01s CPU      0.02s WALL (     105 calls)
     ffts         :      0.01s CPU      0.04s WALL (     119 calls)
     fftw         :      3.10s CPU      6.67s WALL (   36936 calls)
     interpolate  :      0.00s CPU      0.00s WALL (       9 calls)
 
     Parallel routines
 
     PWSCF        :      3.72s CPU      8.04s WALL

 
   This run was terminated on:  14:25:31   7Jul2023            

=------------------------------------------------------------------------------=
   JOB DONE.
=------------------------------------------------------------------------------=
