
     Program PWSCF v.7.0 starts on 16Feb2023 at 13:52:27 

     This program is part of the open-source Quantum ESPRESSO suite
     for quantum simulation of materials; please cite
         "P. Giannozzi et al., J. Phys.:Condens. Matter 21 395502 (2009);
         "P. Giannozzi et al., J. Phys.:Condens. Matter 29 465901 (2017);
         "P. Giannozzi et al., J. Chem. Phys. 152 154105 (2020);
          URL http://www.quantum-espresso.org", 
     in publications or presentations arising from this work. More details at
     http://www.quantum-espresso.org/quote

     Parallel version (MPI), running on     1 processors

     MPI processes distributed on     1 nodes
     11052 MiB available memory on the printing compute node when the environment starts
 
     Waiting for input...
     Reading input from standard input

     Current dimensions of program PWSCF are:
     Max number of different atomic species (ntypx) = 10
     Max number of k-points (npk) =  40000
     Max angular momentum in pseudopotentials (lmaxx) =  4

     WARNING: the MGGA functional with ID    5 has been 
     read together with other dft terms, but it should 
     stand alone in order to work properly. The other 
     terms will be ignored.

     Subspace diagonalization in iterative solution of the eigenvalue problem:
     a serial algorithm will be used

 
     G-vector sticks info
     --------------------
     sticks:   dense  smooth     PW     G-vecs:    dense   smooth      PW
     Sum         733     733    211                12939    12939    2085
 
     Using Slab Decomposition
 


     bravais-lattice index     =            2
     lattice parameter (alat)  =      10.2631  a.u.
     unit-cell volume          =     270.2562 (a.u.)^3
     number of atoms/cell      =            2
     number of atomic types    =            1
     number of electrons       =         8.00
     number of Kohn-Sham states=            4
     kinetic-energy cutoff     =      50.0000  Ry
     charge density cutoff     =     200.0000  Ry
     scf convergence threshold =      1.0E-06
     mixing beta               =       0.0100
     number of iterations used =            8  local-TF  mixing
     energy convergence thresh.=      1.0E-04
     force convergence thresh. =      1.0E-03
     press convergence thresh. =      5.0E-01
     Exchange-correlation= SLA  PW   SCAN SCAN
                           (   0   0   0   0   0 263 267)
     nstep                     =           50


     celldm(1)=  10.263100  celldm(2)=   0.000000  celldm(3)=   0.000000
     celldm(4)=   0.000000  celldm(5)=   0.000000  celldm(6)=   0.000000

     crystal axes: (cart. coord. in units of alat)
               a(1) = (  -0.500000   0.000000   0.500000 )  
               a(2) = (   0.000000   0.500000   0.500000 )  
               a(3) = (  -0.500000   0.500000   0.000000 )  

     reciprocal axes: (cart. coord. in units 2 pi/alat)
               b(1) = ( -1.000000 -1.000000  1.000000 )  
               b(2) = (  1.000000  1.000000  1.000000 )  
               b(3) = ( -1.000000  1.000000 -1.000000 )  


     PseudoPot. # 1 for C  read from file:
     ~/Documents/PWDFT.jl/pseudopotentials/scan_upf/C.SCAN.UPF
     MD5 check sum: Not computed, couldn't open file
     Pseudo is Norm-conserving, Zval =  4.0
     Generated by new atomic code, or converted to UPF format
     Using radial grid of 1389 points,  1 beta functions with: 
                l(1) =   0

     atomic species   valence    mass     pseudopotential
        C              4.00    12.01100     C ( 1.00)

     48 Sym. Ops., with inversion, found (24 have fractional translation)



   Cartesian axes

     site n.     atom                  positions (alat units)
         1           C   tau(   1) = (   0.0000000   0.0000000   0.0000000  )
         2           C   tau(   2) = (   0.2500000   0.2500000   0.2500000  )

     number of k points=     4
                       cart. coord. in units 2pi/alat
        k(    1) = (   0.0000000   0.0000000   0.0000000), wk =   0.0740741
        k(    2) = (  -0.3333333   0.3333333  -0.3333333), wk =   0.5925926
        k(    3) = (   0.0000000   0.6666667   0.0000000), wk =   0.4444444
        k(    4) = (   0.6666667  -0.0000000   0.6666667), wk =   0.8888889

     Dense  grid:    12939 G-vectors     FFT dimensions: (  36,  36,  36)

     Estimated max dynamical RAM per process >      20.56 MB

     WARNING: libxc functional with ID  263 depends
      on external parameters: check the user_guide of
      QE if you need to modify them or to check their
      default values.

     Initial potential from superposition of free atoms

     starting charge       7.9999, renormalised to       8.0000
     Starting wfcs are    8 randomized atomic wfcs

     total cpu time spent up to now is        0.3 secs

     Self-consistent Calculation

     iteration #  1     ecut=    50.00 Ry     beta= 0.01
     Davidson diagonalization with overlap
     ethr =  1.00E-02,  avg # of iterations =  1.0

     total cpu time spent up to now is        0.4 secs

     total energy              =     -21.92071460 Ry
     estimated scf accuracy    <       0.57729543 Ry

     iteration #  2     ecut=    50.00 Ry     beta= 0.01
     Davidson diagonalization with overlap
     ethr =  7.22E-03,  avg # of iterations =  1.0

     total cpu time spent up to now is        0.6 secs

     total energy              =     -21.95413637 Ry
     estimated scf accuracy    <       0.57407808 Ry

     iteration #  3     ecut=    50.00 Ry     beta= 0.01
     Davidson diagonalization with overlap
     ethr =  7.18E-03,  avg # of iterations =  1.0

     total cpu time spent up to now is        0.7 secs

     total energy              =     -21.93727260 Ry
     estimated scf accuracy    <       0.44522457 Ry

     iteration #  4     ecut=    50.00 Ry     beta= 0.01
     Davidson diagonalization with overlap
     ethr =  5.57E-03,  avg # of iterations =  1.0

     total cpu time spent up to now is        0.8 secs

     total energy              =     -21.94071961 Ry
     estimated scf accuracy    <       0.00742575 Ry

     iteration #  5     ecut=    50.00 Ry     beta= 0.01
     Davidson diagonalization with overlap
     ethr =  9.28E-05,  avg # of iterations =  1.0

     total cpu time spent up to now is        1.0 secs

     total energy              =     -21.94087393 Ry
     estimated scf accuracy    <       0.00222329 Ry

     iteration #  6     ecut=    50.00 Ry     beta= 0.01
     Davidson diagonalization with overlap
     ethr =  2.78E-05,  avg # of iterations =  1.0

     total cpu time spent up to now is        1.1 secs

     total energy              =     -21.94105801 Ry
     estimated scf accuracy    <       0.00369053 Ry

     iteration #  7     ecut=    50.00 Ry     beta= 0.01
     Davidson diagonalization with overlap
     ethr =  2.78E-05,  avg # of iterations =  1.0

     total cpu time spent up to now is        1.2 secs

     total energy              =     -21.94111438 Ry
     estimated scf accuracy    <       0.00037636 Ry

     iteration #  8     ecut=    50.00 Ry     beta= 0.01
     Davidson diagonalization with overlap
     ethr =  4.70E-06,  avg # of iterations =  1.0

     total cpu time spent up to now is        1.4 secs

     total energy              =     -21.94112429 Ry
     estimated scf accuracy    <       0.00009701 Ry

     iteration #  9     ecut=    50.00 Ry     beta= 0.01
     Davidson diagonalization with overlap
     ethr =  1.21E-06,  avg # of iterations =  1.0

     total cpu time spent up to now is        1.5 secs

     total energy              =     -21.94115034 Ry
     estimated scf accuracy    <       0.00008583 Ry

     iteration # 10     ecut=    50.00 Ry     beta= 0.01
     Davidson diagonalization with overlap
     ethr =  1.07E-06,  avg # of iterations =  2.0

     total cpu time spent up to now is        1.7 secs

     total energy              =     -21.94116018 Ry
     estimated scf accuracy    <       0.00001164 Ry

     iteration # 11     ecut=    50.00 Ry     beta= 0.01
     Davidson diagonalization with overlap
     ethr =  1.46E-07,  avg # of iterations =  5.5

     total cpu time spent up to now is        1.8 secs

     total energy              =     -21.94116708 Ry
     estimated scf accuracy    <       0.00000233 Ry

     iteration # 12     ecut=    50.00 Ry     beta= 0.01
     Davidson diagonalization with overlap
     ethr =  2.91E-08,  avg # of iterations =  4.5

     total cpu time spent up to now is        2.0 secs

     total energy              =     -21.94116857 Ry
     estimated scf accuracy    <       0.00000391 Ry

     iteration # 13     ecut=    50.00 Ry     beta= 0.01
     Davidson diagonalization with overlap
     ethr =  2.91E-08,  avg # of iterations =  2.0

     total cpu time spent up to now is        2.1 secs

     End of self-consistent calculation

          k = 0.0000 0.0000 0.0000 (  1639 PWs)   bands (ev):

   -12.2576  -4.8718  -0.4270  -0.4270

          k =-0.3333 0.3333-0.3333 (  1616 PWs)   bands (ev):

   -11.3099  -7.0383  -1.0753  -1.0753

          k = 0.0000 0.6667 0.0000 (  1624 PWs)   bands (ev):

   -10.8957  -7.5641  -1.8654  -1.8654

          k = 0.6667-0.0000 0.6667 (  1612 PWs)   bands (ev):

   -10.0949  -8.5763  -2.8583  -1.7210

     highest occupied level (ev):    -0.4270

!    total energy              =     -21.94116894 Ry
     estimated scf accuracy    <       0.00000029 Ry

     The total energy is the sum of the following terms:
     one-electron contribution =      -3.34792895 Ry
     hartree contribution      =       3.93864702 Ry
     xc contribution           =      -5.73603216 Ry
     ewald contribution        =     -16.79585484 Ry

     convergence has been achieved in  13 iterations
     Writing meta-gga kinetic term

     Forces acting on atoms (cartesian axes, Ry/au):

     atom    1 type  1   force =     0.00000000    0.00000000   -0.00000000
     atom    2 type  1   force =    -0.00000000   -0.00000000    0.00000000

     Total force =     0.000000     Total SCF correction =     0.000000


     Computing stress (Cartesian axis) and pressure

          total   stress  (Ry/bohr**3)                   (kbar)     P=     -348.66
  -0.00237016   0.00000000  -0.00000000         -348.66        0.00       -0.00
   0.00000000  -0.00237016  -0.00000000            0.00     -348.66       -0.00
  -0.00000000   0.00000000  -0.00237016           -0.00        0.00     -348.66


     BFGS Geometry Optimization
     Energy error            =      0.0E+00 Ry
     Gradient error          =      1.6E-32 Ry/Bohr
     Cell gradient error     =      3.5E+02 kbar

     number of scf cycles    =   1
     number of bfgs steps    =   0

     enthalpy           new  =     -21.9411689383 Ry

     new trust radius        =       0.1948209806 bohr
     new conv_thr            =       0.0000010000 Ry

     new unit-cell volume =    225.00532 a.u.^3 (    33.34235 Ang^3 )
     density =      1.19636 g/cm^3

CELL_PARAMETERS (alat= 10.26310000)
  -0.470372986  -0.000000000   0.470372986
  -0.000000000   0.470372986   0.470372986
  -0.470372986   0.470372986   0.000000000

ATOMIC_POSITIONS (alat)
C            -0.0000000000        0.0000000000       -0.0000000000
C             0.2351864928        0.2351864928        0.2351864928



     Writing config-only to output data dir ./pwscf.save/
     NEW-OLD atomic charge density approx. for the potential
     extrapolated charge    6.39113, renormalised to    8.00000

     total cpu time spent up to now is        2.5 secs

     Self-consistent Calculation

     iteration #  1     ecut=    50.00 Ry     beta= 0.01
     Davidson diagonalization with overlap
     ethr =  1.00E-06,  avg # of iterations =  9.8

     total cpu time spent up to now is        2.9 secs

     total energy              =     -22.00990172 Ry
     estimated scf accuracy    <       0.23837891 Ry

     iteration #  2     ecut=    50.00 Ry     beta= 0.01
     Davidson diagonalization with overlap
     ethr =  2.98E-03,  avg # of iterations =  2.0

     total cpu time spent up to now is        3.1 secs

     total energy              =     -22.05587495 Ry
     estimated scf accuracy    <       0.06241213 Ry

     iteration #  3     ecut=    50.00 Ry     beta= 0.01
     Davidson diagonalization with overlap
     ethr =  7.80E-04,  avg # of iterations =  1.0

     total cpu time spent up to now is        3.2 secs

     total energy              =     -22.05894817 Ry
     estimated scf accuracy    <       0.05498145 Ry

     iteration #  4     ecut=    50.00 Ry     beta= 0.01
     Davidson diagonalization with overlap
     ethr =  6.87E-04,  avg # of iterations =  1.0

     total cpu time spent up to now is        3.4 secs

     total energy              =     -22.06223084 Ry
     estimated scf accuracy    <       0.02121979 Ry

     iteration #  5     ecut=    50.00 Ry     beta= 0.01
     Davidson diagonalization with overlap
     ethr =  2.65E-04,  avg # of iterations =  1.0

     total cpu time spent up to now is        3.5 secs

     total energy              =     -22.06277898 Ry
     estimated scf accuracy    <       0.00267490 Ry

     iteration #  6     ecut=    50.00 Ry     beta= 0.01
     Davidson diagonalization with overlap
     ethr =  3.34E-05,  avg # of iterations =  1.0

     total cpu time spent up to now is        3.6 secs

     total energy              =     -22.06286686 Ry
     estimated scf accuracy    <       0.00213215 Ry

     iteration #  7     ecut=    50.00 Ry     beta= 0.01
     Davidson diagonalization with overlap
     ethr =  2.67E-05,  avg # of iterations =  1.0

     total cpu time spent up to now is        3.7 secs

     total energy              =     -22.06272305 Ry
     estimated scf accuracy    <       0.00187264 Ry

     iteration #  8     ecut=    50.00 Ry     beta= 0.01
     Davidson diagonalization with overlap
     ethr =  2.34E-05,  avg # of iterations =  1.0

     total cpu time spent up to now is        3.9 secs

     total energy              =     -22.06292016 Ry
     estimated scf accuracy    <       0.00051117 Ry

     iteration #  9     ecut=    50.00 Ry     beta= 0.01
     Davidson diagonalization with overlap
     ethr =  6.39E-06,  avg # of iterations =  2.2

     total cpu time spent up to now is        4.0 secs

     total energy              =     -22.06315024 Ry
     estimated scf accuracy    <       0.00131380 Ry

     iteration # 10     ecut=    50.00 Ry     beta= 0.01
     Davidson diagonalization with overlap
     ethr =  6.39E-06,  avg # of iterations =  1.0

     total cpu time spent up to now is        4.2 secs

     total energy              =     -22.06317294 Ry
     estimated scf accuracy    <       0.00138893 Ry

     iteration # 11     ecut=    50.00 Ry     beta= 0.01
     Davidson diagonalization with overlap
     ethr =  6.39E-06,  avg # of iterations =  1.0

     total cpu time spent up to now is        4.3 secs

     total energy              =     -22.06322292 Ry
     estimated scf accuracy    <       0.00148114 Ry

     iteration # 12     ecut=    50.00 Ry     beta= 0.01
     Davidson diagonalization with overlap
     ethr =  6.39E-06,  avg # of iterations =  1.0

     total cpu time spent up to now is        4.5 secs

     total energy              =     -22.06283178 Ry
     estimated scf accuracy    <       0.00182498 Ry

     iteration # 13     ecut=    50.00 Ry     beta= 0.01
     Davidson diagonalization with overlap
     ethr =  6.39E-06,  avg # of iterations =  2.0

     total cpu time spent up to now is        4.7 secs

     total energy              =     -22.06296344 Ry
     estimated scf accuracy    <       0.00010979 Ry

     iteration # 14     ecut=    50.00 Ry     beta= 0.01
     Davidson diagonalization with overlap
     ethr =  1.37E-06,  avg # of iterations =  1.0

     total cpu time spent up to now is        4.8 secs

     total energy              =     -22.06296491 Ry
     estimated scf accuracy    <       0.00012306 Ry

     iteration # 15     ecut=    50.00 Ry     beta= 0.01
     Davidson diagonalization with overlap
     ethr =  1.37E-06,  avg # of iterations =  1.0

     total cpu time spent up to now is        4.9 secs

     total energy              =     -22.06298587 Ry
     estimated scf accuracy    <       0.00014317 Ry

     iteration # 16     ecut=    50.00 Ry     beta= 0.01
     Davidson diagonalization with overlap
     ethr =  1.37E-06,  avg # of iterations =  1.0

     total cpu time spent up to now is        5.1 secs

     total energy              =     -22.06300715 Ry
     estimated scf accuracy    <       0.00022954 Ry

     iteration # 17     ecut=    50.00 Ry     beta= 0.01
     Davidson diagonalization with overlap
     ethr =  1.37E-06,  avg # of iterations =  1.0

     total cpu time spent up to now is        5.2 secs

     total energy              =     -22.06300956 Ry
     estimated scf accuracy    <       0.00035119 Ry

     iteration # 18     ecut=    50.00 Ry     beta= 0.01
     Davidson diagonalization with overlap
     ethr =  1.37E-06,  avg # of iterations =  1.0

     total cpu time spent up to now is        5.3 secs

     total energy              =     -22.06294419 Ry
     estimated scf accuracy    <       0.00034541 Ry

     iteration # 19     ecut=    50.00 Ry     beta= 0.01
     Davidson diagonalization with overlap
     ethr =  1.37E-06,  avg # of iterations =  1.0

     total cpu time spent up to now is        5.5 secs

     total energy              =     -22.06293392 Ry
     estimated scf accuracy    <       0.00005186 Ry

     iteration # 20     ecut=    50.00 Ry     beta= 0.01
     Davidson diagonalization with overlap
     ethr =  6.48E-07,  avg # of iterations =  1.0

     total cpu time spent up to now is        5.6 secs

     total energy              =     -22.06292885 Ry
     estimated scf accuracy    <       0.00001312 Ry

     iteration # 21     ecut=    50.00 Ry     beta= 0.01
     Davidson diagonalization with overlap
     ethr =  1.64E-07,  avg # of iterations =  2.0

     total cpu time spent up to now is        5.8 secs

     total energy              =     -22.06293434 Ry
     estimated scf accuracy    <       0.00000625 Ry

     iteration # 22     ecut=    50.00 Ry     beta= 0.01
     Davidson diagonalization with overlap
     ethr =  7.81E-08,  avg # of iterations =  1.2

     total cpu time spent up to now is        5.9 secs

     total energy              =     -22.06293321 Ry
     estimated scf accuracy    <       0.00001292 Ry

     iteration # 23     ecut=    50.00 Ry     beta= 0.01
     Davidson diagonalization with overlap
     ethr =  7.81E-08,  avg # of iterations =  1.0

     total cpu time spent up to now is        6.1 secs

     total energy              =     -22.06293322 Ry
     estimated scf accuracy    <       0.00000177 Ry

     iteration # 24     ecut=    50.00 Ry     beta= 0.01
     Davidson diagonalization with overlap
     ethr =  2.21E-08,  avg # of iterations =  1.0

     total cpu time spent up to now is        6.2 secs

     total energy              =     -22.06293290 Ry
     estimated scf accuracy    <       0.00000112 Ry

     iteration # 25     ecut=    50.00 Ry     beta= 0.01
     Davidson diagonalization with overlap
     ethr =  1.40E-08,  avg # of iterations =  1.2

     total cpu time spent up to now is        6.3 secs

     End of self-consistent calculation

          k = 0.0000 0.0000 0.0000 (  1639 PWs)   bands (ev):

   -12.0348  -2.3296   0.6830   0.6830

          k =-0.3543 0.3543-0.3543 (  1616 PWs)   bands (ev):

   -10.8585  -5.6611  -0.1201  -0.1201

          k = 0.0000 0.7087 0.0000 (  1624 PWs)   bands (ev):

   -10.3620  -6.1872  -1.0999  -1.0999

          k = 0.7087 0.0000 0.7087 (  1612 PWs)   bands (ev):

    -9.3388  -7.5012  -2.3570  -0.9166

     highest occupied level (ev):     0.6830

!    total energy              =     -22.06293301 Ry
     estimated scf accuracy    <       0.00000003 Ry

     The total energy is the sum of the following terms:
     one-electron contribution =      -1.92004826 Ry
     hartree contribution      =       3.55619345 Ry
     xc contribution           =      -5.84531607 Ry
     ewald contribution        =     -17.85376214 Ry

     convergence has been achieved in  25 iterations
     Writing meta-gga kinetic term

     Forces acting on atoms (cartesian axes, Ry/au):

     atom    1 type  1   force =     0.00000000    0.00000000   -0.00000000
     atom    2 type  1   force =    -0.00000000   -0.00000000    0.00000000

     Total force =     0.000000     Total SCF correction =     0.000000


     Computing stress (Cartesian axis) and pressure

          total   stress  (Ry/bohr**3)                   (kbar)     P=     -450.02
  -0.00305916  -0.00000000   0.00000000         -450.02       -0.00        0.00
   0.00000000  -0.00305916   0.00000000            0.00     -450.02        0.00
   0.00000000   0.00000000  -0.00305916            0.00        0.00     -450.02

     Energy error            =      1.2E-01 Ry
     Gradient error          =      4.2E-31 Ry/Bohr
     Cell gradient error     =      4.5E+02 kbar

     number of scf cycles    =   2
     number of bfgs steps    =   1

     enthalpy           old  =     -21.9411689383 Ry
     enthalpy           new  =     -22.0629330141 Ry

     CASE: enthalpy          _new < enthalpy          _old


     WARNING: bfgs curvature condition failed, Theta= 0.700
     uphill step: resetting bfgs history

     new trust radius        =       0.2294397195 bohr
     new conv_thr            =       0.0000000100 Ry

     new unit-cell volume =    177.22832 a.u.^3 (    26.26253 Ang^3 )
     density =      1.51887 g/cm^3

CELL_PARAMETERS (alat= 10.26310000)
  -0.434399329  -0.000000000   0.434399329
  -0.000000000   0.434399329   0.434399329
  -0.434399329   0.434399329   0.000000000

ATOMIC_POSITIONS (alat)
C             0.0000000000        0.0000000000       -0.0000000000
C             0.2171996646        0.2171996646        0.2171996646



     Writing config-only to output data dir ./pwscf.save/
     NEW-OLD atomic charge density approx. for the potential
     extrapolated charge    5.84339, renormalised to    8.00000

     total cpu time spent up to now is        6.8 secs

     Self-consistent Calculation

     iteration #  1     ecut=    50.00 Ry     beta= 0.01
     Davidson diagonalization with overlap
     ethr =  1.00E-06,  avg # of iterations = 10.5

     total cpu time spent up to now is        7.2 secs

     total energy              =     -22.17430716 Ry
     estimated scf accuracy    <       0.41906147 Ry

     iteration #  2     ecut=    50.00 Ry     beta= 0.01
     Davidson diagonalization with overlap
     ethr =  5.24E-03,  avg # of iterations =  2.0

     total cpu time spent up to now is        7.3 secs

     total energy              =     -22.23836149 Ry
     estimated scf accuracy    <       0.14151902 Ry

     iteration #  3     ecut=    50.00 Ry     beta= 0.01
     Davidson diagonalization with overlap
     ethr =  1.77E-03,  avg # of iterations =  1.0

     total cpu time spent up to now is        7.5 secs

     total energy              =     -22.22778261 Ry
     estimated scf accuracy    <       0.12541530 Ry

     iteration #  4     ecut=    50.00 Ry     beta= 0.01
     Davidson diagonalization with overlap
     ethr =  1.57E-03,  avg # of iterations =  1.0

     total cpu time spent up to now is        7.6 secs

     total energy              =     -22.23370197 Ry
     estimated scf accuracy    <       0.05868521 Ry

     iteration #  5     ecut=    50.00 Ry     beta= 0.01
     Davidson diagonalization with overlap
     ethr =  7.34E-04,  avg # of iterations =  1.0

     total cpu time spent up to now is        7.7 secs

     total energy              =     -22.23484633 Ry
     estimated scf accuracy    <       0.00460021 Ry

     iteration #  6     ecut=    50.00 Ry     beta= 0.01
     Davidson diagonalization with overlap
     ethr =  5.75E-05,  avg # of iterations =  1.0

     total cpu time spent up to now is        7.8 secs

     total energy              =     -22.23486931 Ry
     estimated scf accuracy    <       0.00411496 Ry

     iteration #  7     ecut=    50.00 Ry     beta= 0.01
     Davidson diagonalization with overlap
     ethr =  5.14E-05,  avg # of iterations =  1.0

     total cpu time spent up to now is        8.0 secs

     total energy              =     -22.23414982 Ry
     estimated scf accuracy    <       0.00532641 Ry

     iteration #  8     ecut=    50.00 Ry     beta= 0.01
     Davidson diagonalization with overlap
     ethr =  5.14E-05,  avg # of iterations =  2.0

     total cpu time spent up to now is        8.1 secs

     total energy              =     -22.23455368 Ry
     estimated scf accuracy    <       0.00003368 Ry

     iteration #  9     ecut=    50.00 Ry     beta= 0.01
     Davidson diagonalization with overlap
     ethr =  4.21E-07,  avg # of iterations =  4.0

     total cpu time spent up to now is        8.3 secs

     total energy              =     -22.23457684 Ry
     estimated scf accuracy    <       0.00001601 Ry

     iteration # 10     ecut=    50.00 Ry     beta= 0.01
     Davidson diagonalization with overlap
     ethr =  2.00E-07,  avg # of iterations =  1.0

     total cpu time spent up to now is        8.5 secs

     total energy              =     -22.23457990 Ry
     estimated scf accuracy    <       0.00001436 Ry

     iteration # 11     ecut=    50.00 Ry     beta= 0.01
     Davidson diagonalization with overlap
     ethr =  1.79E-07,  avg # of iterations =  2.0

     total cpu time spent up to now is        8.6 secs

     total energy              =     -22.23458182 Ry
     estimated scf accuracy    <       0.00000237 Ry

     iteration # 12     ecut=    50.00 Ry     beta= 0.01
     Davidson diagonalization with overlap
     ethr =  2.97E-08,  avg # of iterations =  1.2

     total cpu time spent up to now is        8.7 secs

     total energy              =     -22.23458176 Ry
     estimated scf accuracy    <       0.00000202 Ry

     iteration # 13     ecut=    50.00 Ry     beta= 0.01
     Davidson diagonalization with overlap
     ethr =  2.52E-08,  avg # of iterations =  1.0

     total cpu time spent up to now is        8.9 secs

     total energy              =     -22.23458193 Ry
     estimated scf accuracy    <       0.00000226 Ry

     iteration # 14     ecut=    50.00 Ry     beta= 0.01
     Davidson diagonalization with overlap
     ethr =  2.52E-08,  avg # of iterations =  1.0

     total cpu time spent up to now is        9.0 secs

     total energy              =     -22.23458200 Ry
     estimated scf accuracy    <       0.00000056 Ry

     iteration # 15     ecut=    50.00 Ry     beta= 0.01
     Davidson diagonalization with overlap
     ethr =  7.05E-09,  avg # of iterations =  1.0

     total cpu time spent up to now is        9.1 secs

     total energy              =     -22.23458201 Ry
     estimated scf accuracy    <       0.00000002 Ry

     iteration # 16     ecut=    50.00 Ry     beta= 0.01
     Davidson diagonalization with overlap
     ethr =  3.00E-10,  avg # of iterations =  1.8

     total cpu time spent up to now is        9.2 secs

     total energy              =     -22.23458201 Ry
     estimated scf accuracy    <       0.00000003 Ry

     iteration # 17     ecut=    50.00 Ry     beta= 0.01
     Davidson diagonalization with overlap
     ethr =  3.00E-10,  avg # of iterations =  1.0

     total cpu time spent up to now is        9.4 secs

     total energy              =     -22.23458202 Ry
     estimated scf accuracy    <       0.00000003 Ry

     iteration # 18     ecut=    50.00 Ry     beta= 0.01
     Davidson diagonalization with overlap
     ethr =  3.00E-10,  avg # of iterations =  1.0

     total cpu time spent up to now is        9.5 secs

     End of self-consistent calculation

          k = 0.0000 0.0000 0.0000 (  1639 PWs)   bands (ev):

   -11.6659   1.8729   2.4941   2.4941

          k =-0.3837 0.3837-0.3837 (  1616 PWs)   bands (ev):

   -10.1462  -3.8496   1.4446   1.4446

          k = 0.0000 0.7673 0.0000 (  1624 PWs)   bands (ev):

    -9.5380  -4.1513   0.1560   0.1560

          k = 0.7673 0.0000 0.7673 (  1612 PWs)   bands (ev):

    -8.1575  -5.9175  -1.5291   0.4041

     highest occupied level (ev):     2.4941

!    total energy              =     -22.23458202 Ry
     estimated scf accuracy    <          7.6E-09 Ry

     The total energy is the sum of the following terms:
     one-electron contribution =       0.02218104 Ry
     hartree contribution      =       3.10126882 Ry
     xc contribution           =      -6.02575663 Ry
     ewald contribution        =     -19.33227525 Ry

     convergence has been achieved in  18 iterations
     Writing meta-gga kinetic term

     Forces acting on atoms (cartesian axes, Ry/au):

     atom    1 type  1   force =    -0.00000000   -0.00000000    0.00000000
     atom    2 type  1   force =     0.00000000    0.00000000    0.00000000

     Total force =     0.000000     Total SCF correction =     0.000000


     Computing stress (Cartesian axis) and pressure

          total   stress  (Ry/bohr**3)                   (kbar)     P=     -614.51
  -0.00417734   0.00000000   0.00000000         -614.51        0.00        0.00
   0.00000000  -0.00417734   0.00000000            0.00     -614.51        0.00
   0.00000000   0.00000000  -0.00417734            0.00        0.00     -614.51

     Energy error            =      1.7E-01 Ry
     Gradient error          =      7.6E-32 Ry/Bohr
     Cell gradient error     =      6.1E+02 kbar

     number of scf cycles    =   3
     number of bfgs steps    =   2

     enthalpy           old  =     -22.0629330141 Ry
     enthalpy           new  =     -22.2345820208 Ry

     CASE: enthalpy          _new < enthalpy          _old


     WARNING: bfgs curvature condition failed, Theta= 0.687
     uphill step: resetting bfgs history

     new trust radius        =       0.2780588235 bohr
     new conv_thr            =       0.0000000100 Ry

     new unit-cell volume =    127.29945 a.u.^3 (    18.86383 Ang^3 )
     density =      2.11460 g/cm^3

CELL_PARAMETERS (alat= 10.26310000)
  -0.389033456   0.000000000   0.389033456
   0.000000000   0.389033456   0.389033456
  -0.389033456   0.389033456  -0.000000000

ATOMIC_POSITIONS (alat)
C             0.0000000000        0.0000000000       -0.0000000000
C             0.1945167280        0.1945167280        0.1945167280



     Writing config-only to output data dir ./pwscf.save/
     NEW-OLD atomic charge density approx. for the potential
     extrapolated charge    4.86230, renormalised to    8.00000

     total cpu time spent up to now is        9.9 secs

     Self-consistent Calculation

     iteration #  1     ecut=    50.00 Ry     beta= 0.01
     Davidson diagonalization with overlap
     ethr =  1.00E-06,  avg # of iterations = 10.0

     total cpu time spent up to now is       10.3 secs

     total energy              =     -22.43436186 Ry
     estimated scf accuracy    <       0.87033428 Ry

     iteration #  2     ecut=    50.00 Ry     beta= 0.01
     Davidson diagonalization with overlap
     ethr =  1.00E-02,  avg # of iterations =  1.8

     total cpu time spent up to now is       10.4 secs

     total energy              =     -22.50394835 Ry
     estimated scf accuracy    <       0.43923670 Ry

     iteration #  3     ecut=    50.00 Ry     beta= 0.01
     Davidson diagonalization with overlap
     ethr =  5.49E-03,  avg # of iterations =  1.0

     total cpu time spent up to now is       10.6 secs

     total energy              =     -22.48630241 Ry
     estimated scf accuracy    <       0.38038105 Ry

     iteration #  4     ecut=    50.00 Ry     beta= 0.01
     Davidson diagonalization with overlap
     ethr =  4.75E-03,  avg # of iterations =  1.0

     total cpu time spent up to now is       10.7 secs

     total energy              =     -22.46539636 Ry
     estimated scf accuracy    <       0.26319984 Ry

     iteration #  5     ecut=    50.00 Ry     beta= 0.01
     Davidson diagonalization with overlap
     ethr =  3.29E-03,  avg # of iterations =  1.0

     total cpu time spent up to now is       10.8 secs

     total energy              =     -22.47125224 Ry
     estimated scf accuracy    <       0.01187373 Ry

     iteration #  6     ecut=    50.00 Ry     beta= 0.01
     Davidson diagonalization with overlap
     ethr =  1.48E-04,  avg # of iterations =  1.0

     total cpu time spent up to now is       10.9 secs

     total energy              =     -22.47234998 Ry
     estimated scf accuracy    <       0.01194890 Ry

     iteration #  7     ecut=    50.00 Ry     beta= 0.01
     Davidson diagonalization with overlap
     ethr =  1.48E-04,  avg # of iterations =  1.0

     total cpu time spent up to now is       11.1 secs

     total energy              =     -22.47070861 Ry
     estimated scf accuracy    <       0.00826764 Ry

     iteration #  8     ecut=    50.00 Ry     beta= 0.01
     Davidson diagonalization with overlap
     ethr =  1.03E-04,  avg # of iterations =  1.8

     total cpu time spent up to now is       11.2 secs

     total energy              =     -22.47150117 Ry
     estimated scf accuracy    <       0.00010638 Ry

     iteration #  9     ecut=    50.00 Ry     beta= 0.01
     Davidson diagonalization with overlap
     ethr =  1.33E-06,  avg # of iterations =  3.0

     total cpu time spent up to now is       11.4 secs

     total energy              =     -22.47155427 Ry
     estimated scf accuracy    <       0.00010599 Ry

     iteration # 10     ecut=    50.00 Ry     beta= 0.01
     Davidson diagonalization with overlap
     ethr =  1.32E-06,  avg # of iterations =  1.0

     total cpu time spent up to now is       11.5 secs

     total energy              =     -22.47160575 Ry
     estimated scf accuracy    <       0.00010271 Ry

     iteration # 11     ecut=    50.00 Ry     beta= 0.01
     Davidson diagonalization with overlap
     ethr =  1.28E-06,  avg # of iterations =  1.0

     total cpu time spent up to now is       11.6 secs

     total energy              =     -22.47166246 Ry
     estimated scf accuracy    <       0.00006126 Ry

     iteration # 12     ecut=    50.00 Ry     beta= 0.01
     Davidson diagonalization with overlap
     ethr =  7.66E-07,  avg # of iterations =  2.0

     total cpu time spent up to now is       11.8 secs

     total energy              =     -22.47168326 Ry
     estimated scf accuracy    <       0.00010044 Ry

     iteration # 13     ecut=    50.00 Ry     beta= 0.01
     Davidson diagonalization with overlap
     ethr =  7.66E-07,  avg # of iterations =  1.0

     total cpu time spent up to now is       11.9 secs

     total energy              =     -22.47168338 Ry
     estimated scf accuracy    <       0.00008732 Ry

     iteration # 14     ecut=    50.00 Ry     beta= 0.01
     Davidson diagonalization with overlap
     ethr =  7.66E-07,  avg # of iterations =  1.0

     total cpu time spent up to now is       12.1 secs

     total energy              =     -22.47168158 Ry
     estimated scf accuracy    <       0.00007394 Ry

     iteration # 15     ecut=    50.00 Ry     beta= 0.01
     Davidson diagonalization with overlap
     ethr =  7.66E-07,  avg # of iterations =  1.0

     total cpu time spent up to now is       12.2 secs

     total energy              =     -22.47168267 Ry
     estimated scf accuracy    <       0.00000043 Ry

     iteration # 16     ecut=    50.00 Ry     beta= 0.01
     Davidson diagonalization with overlap
     ethr =  5.38E-09,  avg # of iterations =  6.0

     total cpu time spent up to now is       12.4 secs

     total energy              =     -22.49307171 Ry
     estimated scf accuracy    <       0.00083851 Ry

     iteration # 17     ecut=    50.00 Ry     beta= 0.01
     Davidson diagonalization with overlap
     ethr =  5.38E-09,  avg # of iterations =  1.0

     total cpu time spent up to now is       12.5 secs

     total energy              =     -22.49307378 Ry
     estimated scf accuracy    <       0.00084155 Ry

     iteration # 18     ecut=    50.00 Ry     beta= 0.01
     Davidson diagonalization with overlap
     ethr =  5.38E-09,  avg # of iterations =  1.0

     total cpu time spent up to now is       12.7 secs

     total energy              =     -22.49306914 Ry
     estimated scf accuracy    <       0.00083460 Ry

     iteration # 19     ecut=    50.00 Ry     beta= 0.01
     Davidson diagonalization with overlap
     ethr =  5.38E-09,  avg # of iterations =  1.0

     total cpu time spent up to now is       12.8 secs

     total energy              =     -22.49305654 Ry
     estimated scf accuracy    <       0.00087319 Ry

     iteration # 20     ecut=    50.00 Ry     beta= 0.01
     Davidson diagonalization with overlap
     ethr =  5.38E-09,  avg # of iterations =  2.0

     total cpu time spent up to now is       12.9 secs

     total energy              =     -22.49305424 Ry
     estimated scf accuracy    <       0.00096766 Ry

     iteration # 21     ecut=    50.00 Ry     beta= 0.01
     Davidson diagonalization with overlap
     ethr =  5.38E-09,  avg # of iterations =  1.0

     total cpu time spent up to now is       13.1 secs

     total energy              =     -22.49304392 Ry
     estimated scf accuracy    <       0.00100058 Ry

     iteration # 22     ecut=    50.00 Ry     beta= 0.01
     Davidson diagonalization with overlap
     ethr =  5.38E-09,  avg # of iterations =  2.0

     total cpu time spent up to now is       13.2 secs

     total energy              =     -22.49309690 Ry
     estimated scf accuracy    <       0.00106521 Ry

     iteration # 23     ecut=    50.00 Ry     beta= 0.01
     Davidson diagonalization with overlap
     ethr =  5.38E-09,  avg # of iterations =  3.5

     total cpu time spent up to now is       13.4 secs

     total energy              =     -22.49314602 Ry
     estimated scf accuracy    <       0.00070108 Ry

     iteration # 24     ecut=    50.00 Ry     beta= 0.01
     Davidson diagonalization with overlap
     ethr =  5.38E-09,  avg # of iterations =  3.8

     total cpu time spent up to now is       13.6 secs

     total energy              =     -22.49318625 Ry
     estimated scf accuracy    <       0.00036535 Ry

     iteration # 25     ecut=    50.00 Ry     beta= 0.01
     Davidson diagonalization with overlap
     ethr =  5.38E-09,  avg # of iterations =  5.5

     total cpu time spent up to now is       13.9 secs

     total energy              =     -22.49320141 Ry
     estimated scf accuracy    <       0.00000103 Ry

     iteration # 26     ecut=    50.00 Ry     beta= 0.01
     Davidson diagonalization with overlap
     ethr =  5.38E-09,  avg # of iterations =  1.0

     total cpu time spent up to now is       14.0 secs

     total energy              =     -22.49320162 Ry
     estimated scf accuracy    <       0.00000155 Ry

     iteration # 27     ecut=    50.00 Ry     beta= 0.01
     Davidson diagonalization with overlap
     ethr =  5.38E-09,  avg # of iterations =  1.8

     total cpu time spent up to now is       14.2 secs

     total energy              =     -22.49320170 Ry
     estimated scf accuracy    <       0.00000110 Ry

     iteration # 28     ecut=    50.00 Ry     beta= 0.01
     Davidson diagonalization with overlap
     ethr =  5.38E-09,  avg # of iterations =  2.0

     total cpu time spent up to now is       14.3 secs

     total energy              =     -22.49320178 Ry
     estimated scf accuracy    <       0.00000003 Ry

     iteration # 29     ecut=    50.00 Ry     beta= 0.01
     Davidson diagonalization with overlap
     ethr =  3.47E-10,  avg # of iterations =  2.0

     total cpu time spent up to now is       14.5 secs

     total energy              =     -22.49320175 Ry
     estimated scf accuracy    <       0.00000007 Ry

     iteration # 30     ecut=    50.00 Ry     beta= 0.01
     Davidson diagonalization with overlap
     ethr =  3.47E-10,  avg # of iterations =  1.2

     total cpu time spent up to now is       14.6 secs

     total energy              =     -22.49320179 Ry
     estimated scf accuracy    <       0.00000003 Ry

     iteration # 31     ecut=    50.00 Ry     beta= 0.01
     Davidson diagonalization with overlap
     ethr =  3.47E-10,  avg # of iterations =  2.0

     total cpu time spent up to now is       14.8 secs

     total energy              =     -22.49320180 Ry
     estimated scf accuracy    <       0.00000006 Ry

     iteration # 32     ecut=    50.00 Ry     beta= 0.01
     Davidson diagonalization with overlap
     ethr =  3.47E-10,  avg # of iterations =  1.0

     total cpu time spent up to now is       14.9 secs

     End of self-consistent calculation

          k = 0.0000 0.0000 0.0000 (  1639 PWs)   bands (ev):

   -10.9105   5.8070   5.8070   5.8070

          k =-0.4284 0.4284-0.4284 (  1616 PWs)   bands (ev):

    -8.8291  -1.2740   4.3354   4.3354

          k =-0.0000 0.8568-0.0000 (  1624 PWs)   bands (ev):

    -8.0607  -0.8212   2.4927   2.4927

          k = 0.8568 0.0000 0.8568 (  1612 PWs)   bands (ev):

    -6.0282  -3.3073   0.0356   2.8604

     highest occupied level (ev):     5.8070

!    total energy              =     -22.49320180 Ry
     estimated scf accuracy    <          5.0E-10 Ry

     The total energy is the sum of the following terms:
     one-electron contribution =       2.88145366 Ry
     hartree contribution      =       2.57999199 Ry
     xc contribution           =      -6.36800169 Ry
     ewald contribution        =     -21.58664575 Ry

     convergence has been achieved in  32 iterations
     Writing meta-gga kinetic term

     Forces acting on atoms (cartesian axes, Ry/au):

     atom    1 type  1   force =    -0.00000000   -0.00000000    0.00000000
     atom    2 type  1   force =    -0.00000000   -0.00000000    0.00000000

     Total force =     0.000000     Total SCF correction =     0.000000


     Computing stress (Cartesian axis) and pressure

          total   stress  (Ry/bohr**3)                   (kbar)     P=     -850.66
  -0.00578268   0.00000000   0.00000000         -850.66        0.00        0.00
   0.00000000  -0.00578268   0.00000000            0.00     -850.66        0.00
   0.00000000   0.00000000  -0.00578268            0.00        0.00     -850.66

     Energy error            =      2.6E-01 Ry
     Gradient error          =      2.5E-31 Ry/Bohr
     Cell gradient error     =      8.5E+02 kbar

     number of scf cycles    =   4
     number of bfgs steps    =   3

     enthalpy           old  =     -22.2345820208 Ry
     enthalpy           new  =     -22.4932017977 Ry

     CASE: enthalpy          _new < enthalpy          _old


     WARNING: bfgs curvature condition failed, Theta= 0.721
     uphill step: resetting bfgs history

     new trust radius        =       0.3262211378 bohr
     new conv_thr            =       0.0000000100 Ry

     new unit-cell volume =     79.68649 a.u.^3 (    11.80832 Ang^3 )
     density =      3.37808 g/cm^3

CELL_PARAMETERS (alat= 10.26310000)
  -0.332792099   0.000000000   0.332792099
   0.000000000   0.332792099   0.332792099
  -0.332792099   0.332792099  -0.000000000

ATOMIC_POSITIONS (alat)
C             0.0000000000        0.0000000000       -0.0000000000
C             0.1663960497        0.1663960497        0.1663960497



     Writing config-only to output data dir ./pwscf.save/
     NEW-OLD atomic charge density approx. for the potential

     negative rho (up,down):  5.962E-03 0.000E+00
     extrapolated charge    3.22001, renormalised to    8.00000

     total cpu time spent up to now is       15.3 secs

     Self-consistent Calculation

     iteration #  1     ecut=    50.00 Ry     beta= 0.01
     Davidson diagonalization with overlap
     ethr =  1.00E-06,  avg # of iterations =  8.2

     negative rho (up,down):  1.425E-02 0.000E+00

     total cpu time spent up to now is       15.7 secs

     total energy              =     -21.47696444 Ry
     estimated scf accuracy    <       1.15646754 Ry

     iteration #  2     ecut=    50.00 Ry     beta= 0.01
     Davidson diagonalization with overlap
     ethr =  1.00E-02,  avg # of iterations =  2.0

     negative rho (up,down):  1.266E-02 0.000E+00

     total cpu time spent up to now is       15.8 secs

     total energy              =     -21.09555858 Ry
     estimated scf accuracy    <       0.79352423 Ry

     iteration #  3     ecut=    50.00 Ry     beta= 0.01
     Davidson diagonalization with overlap
     ethr =  9.92E-03,  avg # of iterations =  2.0

     negative rho (up,down):  1.518E-02 0.000E+00

     total cpu time spent up to now is       16.0 secs

     total energy              =     -21.52940297 Ry
     estimated scf accuracy    <       0.77935932 Ry

     iteration #  4     ecut=    50.00 Ry     beta= 0.01
     Davidson diagonalization with overlap
     ethr =  9.74E-03,  avg # of iterations =  2.0

     negative rho (up,down):  3.037E-03 0.000E+00

     total cpu time spent up to now is       16.1 secs

     total energy              =     -21.91209906 Ry
     estimated scf accuracy    <       0.80999249 Ry

     iteration #  5     ecut=    50.00 Ry     beta= 0.01
     Davidson diagonalization with overlap
     ethr =  9.74E-03,  avg # of iterations =  2.0

     negative rho (up,down):  1.545E-03 0.000E+00

     total cpu time spent up to now is       16.3 secs

     total energy              =     -22.51766970 Ry
     estimated scf accuracy    <       0.40388219 Ry

     iteration #  6     ecut=    50.00 Ry     beta= 0.01
     Davidson diagonalization with overlap
     ethr =  5.05E-03,  avg # of iterations =  2.0

     negative rho (up,down):  8.509E-04 0.000E+00

     total cpu time spent up to now is       16.4 secs

     total energy              =     -19.95681898 Ry
     estimated scf accuracy    <       0.50743449 Ry

     iteration #  7     ecut=    50.00 Ry     beta= 0.01
     Davidson diagonalization with overlap
     ethr =  5.05E-03,  avg # of iterations =  3.2

     negative rho (up,down):  7.254E-04 0.000E+00

     total cpu time spent up to now is       16.6 secs

     total energy              =     -22.23357429 Ry
     estimated scf accuracy    <       0.19250820 Ry

     iteration #  8     ecut=    50.00 Ry     beta= 0.01
     Davidson diagonalization with overlap
     ethr =  2.41E-03,  avg # of iterations =  2.0

     negative rho (up,down):  6.726E-05 0.000E+00

     total cpu time spent up to now is       16.8 secs

     total energy              =     -22.58770661 Ry
     estimated scf accuracy    <       0.38580432 Ry

     iteration #  9     ecut=    50.00 Ry     beta= 0.01
     Davidson diagonalization with overlap
     ethr =  2.41E-03,  avg # of iterations =  1.0

     total cpu time spent up to now is       16.9 secs

     total energy              =     -22.66823138 Ry
     estimated scf accuracy    <       0.14939911 Ry

     iteration # 10     ecut=    50.00 Ry     beta= 0.01
     Davidson diagonalization with overlap
     ethr =  1.87E-03,  avg # of iterations =  2.0

     total cpu time spent up to now is       17.0 secs

     total energy              =     -22.71497277 Ry
     estimated scf accuracy    <       1.18992350 Ry

     iteration # 11     ecut=    50.00 Ry     beta= 0.01
     Davidson diagonalization with overlap
     ethr =  1.87E-03,  avg # of iterations =  1.0

     total cpu time spent up to now is       17.2 secs

     total energy              =     -22.68547426 Ry
     estimated scf accuracy    <       1.52881040 Ry

     iteration # 12     ecut=    50.00 Ry     beta= 0.01
     Davidson diagonalization with overlap
     ethr =  1.87E-03,  avg # of iterations =  1.0

     negative rho (up,down):  5.638E-05 0.000E+00

     total cpu time spent up to now is       17.3 secs

     total energy              =     -22.61968981 Ry
     estimated scf accuracy    <       0.73087166 Ry

     iteration # 13     ecut=    50.00 Ry     beta= 0.01
     Davidson diagonalization with overlap
     ethr =  1.87E-03,  avg # of iterations =  2.0

     total cpu time spent up to now is       17.4 secs

     total energy              =     -22.70018734 Ry
     estimated scf accuracy    <       0.15563696 Ry

     iteration # 14     ecut=    50.00 Ry     beta= 0.01
     Davidson diagonalization with overlap
     ethr =  1.87E-03,  avg # of iterations =  2.0

     total cpu time spent up to now is       17.6 secs

     total energy              =     -22.71506323 Ry
     estimated scf accuracy    <       0.01948978 Ry

     iteration # 15     ecut=    50.00 Ry     beta= 0.01
     Davidson diagonalization with overlap
     ethr =  2.44E-04,  avg # of iterations =  1.0

     total cpu time spent up to now is       17.7 secs

     total energy              =     -22.71525559 Ry
     estimated scf accuracy    <       0.01188690 Ry

     iteration # 16     ecut=    50.00 Ry     beta= 0.01
     Davidson diagonalization with overlap
     ethr =  1.49E-04,  avg # of iterations =  1.0

     total cpu time spent up to now is       17.8 secs

     total energy              =     -22.71563536 Ry
     estimated scf accuracy    <       0.01453608 Ry

     iteration # 17     ecut=    50.00 Ry     beta= 0.01
     Davidson diagonalization with overlap
     ethr =  1.49E-04,  avg # of iterations =  1.0

     total cpu time spent up to now is       18.0 secs

     total energy              =     -22.71512855 Ry
     estimated scf accuracy    <       0.00522667 Ry

     iteration # 18     ecut=    50.00 Ry     beta= 0.01
     Davidson diagonalization with overlap
     ethr =  6.53E-05,  avg # of iterations =  1.0

     total cpu time spent up to now is       18.1 secs

     total energy              =     -22.71542395 Ry
     estimated scf accuracy    <       0.00801767 Ry

     iteration # 19     ecut=    50.00 Ry     beta= 0.01
     Davidson diagonalization with overlap
     ethr =  6.53E-05,  avg # of iterations =  1.0

     total cpu time spent up to now is       18.2 secs

     total energy              =     -22.71561266 Ry
     estimated scf accuracy    <       0.00853913 Ry

     iteration # 20     ecut=    50.00 Ry     beta= 0.01
     Davidson diagonalization with overlap
     ethr =  6.53E-05,  avg # of iterations =  1.0

     total cpu time spent up to now is       18.3 secs

     total energy              =     -22.71576428 Ry
     estimated scf accuracy    <       0.00925709 Ry

     iteration # 21     ecut=    50.00 Ry     beta= 0.01
     Davidson diagonalization with overlap
     ethr =  6.53E-05,  avg # of iterations =  1.0

     total cpu time spent up to now is       18.5 secs

     total energy              =     -22.71586638 Ry
     estimated scf accuracy    <       0.00034405 Ry

     iteration # 22     ecut=    50.00 Ry     beta= 0.01
     Davidson diagonalization with overlap
     ethr =  4.30E-06,  avg # of iterations =  1.0

     total cpu time spent up to now is       18.6 secs

     total energy              =     -22.71583075 Ry
     estimated scf accuracy    <       0.00045805 Ry

     iteration # 23     ecut=    50.00 Ry     beta= 0.01
     Davidson diagonalization with overlap
     ethr =  4.30E-06,  avg # of iterations =  1.0

     total cpu time spent up to now is       18.7 secs

     total energy              =     -22.71586252 Ry
     estimated scf accuracy    <       0.00025051 Ry

     iteration # 24     ecut=    50.00 Ry     beta= 0.01
     Davidson diagonalization with overlap
     ethr =  3.13E-06,  avg # of iterations =  1.0

     total cpu time spent up to now is       18.9 secs

     total energy              =     -22.71590128 Ry
     estimated scf accuracy    <       0.00017261 Ry

     iteration # 25     ecut=    50.00 Ry     beta= 0.01
     Davidson diagonalization with overlap
     ethr =  2.16E-06,  avg # of iterations =  1.2

     total cpu time spent up to now is       19.0 secs

     total energy              =     -22.71591296 Ry
     estimated scf accuracy    <       0.00005001 Ry

     iteration # 26     ecut=    50.00 Ry     beta= 0.01
     Davidson diagonalization with overlap
     ethr =  6.25E-07,  avg # of iterations =  1.0

     total cpu time spent up to now is       19.1 secs

     total energy              =     -22.71591035 Ry
     estimated scf accuracy    <       0.00006829 Ry

     iteration # 27     ecut=    50.00 Ry     beta= 0.01
     Davidson diagonalization with overlap
     ethr =  6.25E-07,  avg # of iterations =  1.0

     total cpu time spent up to now is       19.2 secs

     total energy              =     -22.71591261 Ry
     estimated scf accuracy    <       0.00005915 Ry

     iteration # 28     ecut=    50.00 Ry     beta= 0.01
     Davidson diagonalization with overlap
     ethr =  6.25E-07,  avg # of iterations =  1.0

     total cpu time spent up to now is       19.4 secs

     total energy              =     -22.71591244 Ry
     estimated scf accuracy    <       0.00004329 Ry

     iteration # 29     ecut=    50.00 Ry     beta= 0.01
     Davidson diagonalization with overlap
     ethr =  5.41E-07,  avg # of iterations =  1.0

     total cpu time spent up to now is       19.5 secs

     total energy              =     -22.71591268 Ry
     estimated scf accuracy    <       0.00000385 Ry

     iteration # 30     ecut=    50.00 Ry     beta= 0.01
     Davidson diagonalization with overlap
     ethr =  4.81E-08,  avg # of iterations =  1.0

     total cpu time spent up to now is       19.6 secs

     total energy              =     -22.71591309 Ry
     estimated scf accuracy    <       0.00000327 Ry

     iteration # 31     ecut=    50.00 Ry     beta= 0.01
     Davidson diagonalization with overlap
     ethr =  4.09E-08,  avg # of iterations =  1.0

     total cpu time spent up to now is       19.8 secs

     total energy              =     -22.71591306 Ry
     estimated scf accuracy    <       0.00000312 Ry

     iteration # 32     ecut=    50.00 Ry     beta= 0.01
     Davidson diagonalization with overlap
     ethr =  3.90E-08,  avg # of iterations =  1.0

     total cpu time spent up to now is       19.9 secs

     total energy              =     -22.71591310 Ry
     estimated scf accuracy    <       0.00000317 Ry

     iteration # 33     ecut=    50.00 Ry     beta= 0.01
     Davidson diagonalization with overlap
     ethr =  3.90E-08,  avg # of iterations =  1.0

     total cpu time spent up to now is       20.0 secs

     total energy              =     -22.71591422 Ry
     estimated scf accuracy    <       0.00000313 Ry

     iteration # 34     ecut=    50.00 Ry     beta= 0.01
     Davidson diagonalization with overlap
     ethr =  3.90E-08,  avg # of iterations =  1.0

     total cpu time spent up to now is       20.1 secs

     total energy              =     -22.71591550 Ry
     estimated scf accuracy    <       0.00000538 Ry

     iteration # 35     ecut=    50.00 Ry     beta= 0.01
     Davidson diagonalization with overlap
     ethr =  3.90E-08,  avg # of iterations =  1.0

     total cpu time spent up to now is       20.3 secs

     total energy              =     -22.71591707 Ry
     estimated scf accuracy    <       0.00000367 Ry

     iteration # 36     ecut=    50.00 Ry     beta= 0.01
     Davidson diagonalization with overlap
     ethr =  3.90E-08,  avg # of iterations =  1.0

     total cpu time spent up to now is       20.4 secs

     total energy              =     -22.71591706 Ry
     estimated scf accuracy    <       0.00000590 Ry

     iteration # 37     ecut=    50.00 Ry     beta= 0.01
     Davidson diagonalization with overlap
     ethr =  3.90E-08,  avg # of iterations =  1.0

     total cpu time spent up to now is       20.5 secs

     total energy              =     -22.71591713 Ry
     estimated scf accuracy    <       0.00000245 Ry

     iteration # 38     ecut=    50.00 Ry     beta= 0.01
     Davidson diagonalization with overlap
     ethr =  3.06E-08,  avg # of iterations =  1.0

     total cpu time spent up to now is       20.6 secs

     total energy              =     -22.71591687 Ry
     estimated scf accuracy    <       0.00000237 Ry

     iteration # 39     ecut=    50.00 Ry     beta= 0.01
     Davidson diagonalization with overlap
     ethr =  2.96E-08,  avg # of iterations =  1.0

     total cpu time spent up to now is       20.8 secs

     total energy              =     -22.71591709 Ry
     estimated scf accuracy    <       0.00000227 Ry

     iteration # 40     ecut=    50.00 Ry     beta= 0.01
     Davidson diagonalization with overlap
     ethr =  2.84E-08,  avg # of iterations =  1.0

     total cpu time spent up to now is       20.9 secs

     total energy              =     -22.71591855 Ry
     estimated scf accuracy    <       0.00000219 Ry

     iteration # 41     ecut=    50.00 Ry     beta= 0.01
     Davidson diagonalization with overlap
     ethr =  2.74E-08,  avg # of iterations =  1.0

     total cpu time spent up to now is       21.0 secs

     total energy              =     -22.71591927 Ry
     estimated scf accuracy    <       0.00000192 Ry

     iteration # 42     ecut=    50.00 Ry     beta= 0.01
     Davidson diagonalization with overlap
     ethr =  2.40E-08,  avg # of iterations =  1.0

     total cpu time spent up to now is       21.2 secs

     total energy              =     -22.71591918 Ry
     estimated scf accuracy    <       0.00000348 Ry

     iteration # 43     ecut=    50.00 Ry     beta= 0.01
     Davidson diagonalization with overlap
     ethr =  2.40E-08,  avg # of iterations =  1.0

     total cpu time spent up to now is       21.3 secs

     total energy              =     -22.71591874 Ry
     estimated scf accuracy    <       0.00000340 Ry

     iteration # 44     ecut=    50.00 Ry     beta= 0.01
     Davidson diagonalization with overlap
     ethr =  2.40E-08,  avg # of iterations =  1.0

     total cpu time spent up to now is       21.4 secs

     total energy              =     -22.71591888 Ry
     estimated scf accuracy    <       0.00000275 Ry

     iteration # 45     ecut=    50.00 Ry     beta= 0.01
     Davidson diagonalization with overlap
     ethr =  2.40E-08,  avg # of iterations =  1.0

     total cpu time spent up to now is       21.5 secs

     total energy              =     -22.71591892 Ry
     estimated scf accuracy    <       0.00000175 Ry

     iteration # 46     ecut=    50.00 Ry     beta= 0.01
     Davidson diagonalization with overlap
     ethr =  2.19E-08,  avg # of iterations =  1.0

     total cpu time spent up to now is       21.7 secs

     total energy              =     -22.71591886 Ry
     estimated scf accuracy    <       0.00000162 Ry

     iteration # 47     ecut=    50.00 Ry     beta= 0.01
     Davidson diagonalization with overlap
     ethr =  2.03E-08,  avg # of iterations =  1.0

     total cpu time spent up to now is       21.8 secs

     total energy              =     -22.71591886 Ry
     estimated scf accuracy    <       0.00000151 Ry

     iteration # 48     ecut=    50.00 Ry     beta= 0.01
     Davidson diagonalization with overlap
     ethr =  1.89E-08,  avg # of iterations =  1.0

     total cpu time spent up to now is       21.9 secs

     total energy              =     -22.71591903 Ry
     estimated scf accuracy    <       0.00000148 Ry

     iteration # 49     ecut=    50.00 Ry     beta= 0.01
     Davidson diagonalization with overlap
     ethr =  1.84E-08,  avg # of iterations =  1.0

     total cpu time spent up to now is       22.0 secs

     total energy              =     -22.71591894 Ry
     estimated scf accuracy    <       0.00000136 Ry

     iteration # 50     ecut=    50.00 Ry     beta= 0.01
     Davidson diagonalization with overlap
     ethr =  1.70E-08,  avg # of iterations =  1.0

     total cpu time spent up to now is       22.2 secs

     total energy              =     -22.71591865 Ry
     estimated scf accuracy    <       0.00000129 Ry

     iteration # 51     ecut=    50.00 Ry     beta= 0.01
     Davidson diagonalization with overlap
     ethr =  1.61E-08,  avg # of iterations =  1.0

     total cpu time spent up to now is       22.3 secs

     total energy              =     -22.71591848 Ry
     estimated scf accuracy    <       0.00000128 Ry

     iteration # 52     ecut=    50.00 Ry     beta= 0.01
     Davidson diagonalization with overlap
     ethr =  1.60E-08,  avg # of iterations =  1.0

     total cpu time spent up to now is       22.4 secs

     total energy              =     -22.71591856 Ry
     estimated scf accuracy    <       0.00000082 Ry

     iteration # 53     ecut=    50.00 Ry     beta= 0.01
     Davidson diagonalization with overlap
     ethr =  1.03E-08,  avg # of iterations =  1.0

     total cpu time spent up to now is       22.6 secs

     total energy              =     -22.71591861 Ry
     estimated scf accuracy    <       0.00000079 Ry

     iteration # 54     ecut=    50.00 Ry     beta= 0.01
     Davidson diagonalization with overlap
     ethr =  9.91E-09,  avg # of iterations =  1.0

     total cpu time spent up to now is       22.7 secs

     total energy              =     -22.71591864 Ry
     estimated scf accuracy    <       0.00000077 Ry

     iteration # 55     ecut=    50.00 Ry     beta= 0.01
     Davidson diagonalization with overlap
     ethr =  9.58E-09,  avg # of iterations =  1.0

     total cpu time spent up to now is       22.8 secs

     total energy              =     -22.71591872 Ry
     estimated scf accuracy    <       0.00000073 Ry

     iteration # 56     ecut=    50.00 Ry     beta= 0.01
     Davidson diagonalization with overlap
     ethr =  9.11E-09,  avg # of iterations =  1.0

     total cpu time spent up to now is       22.9 secs

     total energy              =     -22.71591843 Ry
     estimated scf accuracy    <       0.00000071 Ry

     iteration # 57     ecut=    50.00 Ry     beta= 0.01
     Davidson diagonalization with overlap
     ethr =  8.87E-09,  avg # of iterations =  1.0

     total cpu time spent up to now is       23.1 secs

     total energy              =     -22.71591855 Ry
     estimated scf accuracy    <       0.00000057 Ry

     iteration # 58     ecut=    50.00 Ry     beta= 0.01
     Davidson diagonalization with overlap
     ethr =  7.15E-09,  avg # of iterations =  1.0

     total cpu time spent up to now is       23.2 secs

     total energy              =     -22.71591866 Ry
     estimated scf accuracy    <       0.00000054 Ry

     iteration # 59     ecut=    50.00 Ry     beta= 0.01
     Davidson diagonalization with overlap
     ethr =  6.76E-09,  avg # of iterations =  1.0

     total cpu time spent up to now is       23.3 secs

     total energy              =     -22.71591870 Ry
     estimated scf accuracy    <       0.00000053 Ry

     iteration # 60     ecut=    50.00 Ry     beta= 0.01
     Davidson diagonalization with overlap
     ethr =  6.65E-09,  avg # of iterations =  1.0

     total cpu time spent up to now is       23.5 secs

     total energy              =     -22.71591885 Ry
     estimated scf accuracy    <       0.00000052 Ry

     iteration # 61     ecut=    50.00 Ry     beta= 0.01
     Davidson diagonalization with overlap
     ethr =  6.46E-09,  avg # of iterations =  1.0

     total cpu time spent up to now is       23.6 secs

     total energy              =     -22.71591893 Ry
     estimated scf accuracy    <       0.00000047 Ry

     iteration # 62     ecut=    50.00 Ry     beta= 0.01
     Davidson diagonalization with overlap
     ethr =  5.83E-09,  avg # of iterations =  1.0

     total cpu time spent up to now is       23.7 secs

     total energy              =     -22.71591903 Ry
     estimated scf accuracy    <       0.00000064 Ry

     iteration # 63     ecut=    50.00 Ry     beta= 0.01
     Davidson diagonalization with overlap
     ethr =  5.83E-09,  avg # of iterations =  1.0

     total cpu time spent up to now is       23.8 secs

     total energy              =     -22.71591908 Ry
     estimated scf accuracy    <       0.00000043 Ry

     iteration # 64     ecut=    50.00 Ry     beta= 0.01
     Davidson diagonalization with overlap
     ethr =  5.40E-09,  avg # of iterations =  1.0

     total cpu time spent up to now is       24.0 secs

     total energy              =     -22.71591921 Ry
     estimated scf accuracy    <       0.00000042 Ry

     iteration # 65     ecut=    50.00 Ry     beta= 0.01
     Davidson diagonalization with overlap
     ethr =  5.25E-09,  avg # of iterations =  1.0

     total cpu time spent up to now is       24.1 secs

     total energy              =     -22.71591925 Ry
     estimated scf accuracy    <       0.00000040 Ry

     iteration # 66     ecut=    50.00 Ry     beta= 0.01
     Davidson diagonalization with overlap
     ethr =  5.06E-09,  avg # of iterations =  1.0

     total cpu time spent up to now is       24.2 secs

     total energy              =     -22.71591948 Ry
     estimated scf accuracy    <       0.00000038 Ry

     iteration # 67     ecut=    50.00 Ry     beta= 0.01
     Davidson diagonalization with overlap
     ethr =  4.73E-09,  avg # of iterations =  1.0

     total cpu time spent up to now is       24.3 secs

     total energy              =     -22.71591952 Ry
     estimated scf accuracy    <       0.00000031 Ry

     iteration # 68     ecut=    50.00 Ry     beta= 0.01
     Davidson diagonalization with overlap
     ethr =  3.85E-09,  avg # of iterations =  1.0

     total cpu time spent up to now is       24.5 secs

     total energy              =     -22.71591953 Ry
     estimated scf accuracy    <       0.00000030 Ry

     iteration # 69     ecut=    50.00 Ry     beta= 0.01
     Davidson diagonalization with overlap
     ethr =  3.76E-09,  avg # of iterations =  1.0

     total cpu time spent up to now is       24.6 secs

     total energy              =     -22.71591966 Ry
     estimated scf accuracy    <       0.00000029 Ry

     iteration # 70     ecut=    50.00 Ry     beta= 0.01
     Davidson diagonalization with overlap
     ethr =  3.68E-09,  avg # of iterations =  2.0

     total cpu time spent up to now is       24.7 secs

     total energy              =     -22.71591970 Ry
     estimated scf accuracy    <       0.00000022 Ry

     iteration # 71     ecut=    50.00 Ry     beta= 0.01
     Davidson diagonalization with overlap
     ethr =  2.79E-09,  avg # of iterations =  1.0

     total cpu time spent up to now is       24.9 secs

     total energy              =     -22.71591968 Ry
     estimated scf accuracy    <       0.00000009 Ry

     iteration # 72     ecut=    50.00 Ry     beta= 0.01
     Davidson diagonalization with overlap
     ethr =  1.17E-09,  avg # of iterations =  1.0

     total cpu time spent up to now is       25.0 secs

     total energy              =     -22.71591969 Ry
     estimated scf accuracy    <       0.00000007 Ry

     iteration # 73     ecut=    50.00 Ry     beta= 0.01
     Davidson diagonalization with overlap
     ethr =  8.62E-10,  avg # of iterations =  1.0

     total cpu time spent up to now is       25.1 secs

     total energy              =     -22.71591970 Ry
     estimated scf accuracy    <       0.00000007 Ry

     iteration # 74     ecut=    50.00 Ry     beta= 0.01
     Davidson diagonalization with overlap
     ethr =  8.20E-10,  avg # of iterations =  1.0

     total cpu time spent up to now is       25.3 secs

     total energy              =     -22.71591974 Ry
     estimated scf accuracy    <       0.00000006 Ry

     iteration # 75     ecut=    50.00 Ry     beta= 0.01
     Davidson diagonalization with overlap
     ethr =  6.92E-10,  avg # of iterations =  2.0

     total cpu time spent up to now is       25.4 secs

     total energy              =     -22.71591975 Ry
     estimated scf accuracy    <       0.00000003 Ry

     iteration # 76     ecut=    50.00 Ry     beta= 0.01
     Davidson diagonalization with overlap
     ethr =  3.63E-10,  avg # of iterations =  1.0

     total cpu time spent up to now is       25.5 secs

     total energy              =     -22.71591975 Ry
     estimated scf accuracy    <       0.00000003 Ry

     iteration # 77     ecut=    50.00 Ry     beta= 0.01
     Davidson diagonalization with overlap
     ethr =  3.49E-10,  avg # of iterations =  1.0

     total cpu time spent up to now is       25.7 secs

     total energy              =     -22.71591974 Ry
     estimated scf accuracy    <       0.00000002 Ry

     iteration # 78     ecut=    50.00 Ry     beta= 0.01
     Davidson diagonalization with overlap
     ethr =  2.29E-10,  avg # of iterations =  1.5

     total cpu time spent up to now is       25.8 secs

     total energy              =     -22.71591975 Ry
     estimated scf accuracy    <       0.00000002 Ry

     iteration # 79     ecut=    50.00 Ry     beta= 0.01
     Davidson diagonalization with overlap
     ethr =  2.18E-10,  avg # of iterations =  1.0

     total cpu time spent up to now is       26.0 secs

     total energy              =     -22.71591975 Ry
     estimated scf accuracy    <       0.00000002 Ry

     iteration # 80     ecut=    50.00 Ry     beta= 0.01
     Davidson diagonalization with overlap
     ethr =  2.17E-10,  avg # of iterations =  1.0

     total cpu time spent up to now is       26.1 secs

     total energy              =     -22.71591975 Ry
     estimated scf accuracy    <       0.00000001 Ry

     iteration # 81     ecut=    50.00 Ry     beta= 0.01
     Davidson diagonalization with overlap
     ethr =  1.86E-10,  avg # of iterations =  1.0

     total cpu time spent up to now is       26.2 secs

     total energy              =     -22.71591975 Ry
     estimated scf accuracy    <       0.00000001 Ry

     iteration # 82     ecut=    50.00 Ry     beta= 0.01
     Davidson diagonalization with overlap
     ethr =  1.79E-10,  avg # of iterations =  2.0

     total cpu time spent up to now is       26.4 secs

     total energy              =     -22.71591976 Ry
     estimated scf accuracy    <       0.00000002 Ry

     iteration # 83     ecut=    50.00 Ry     beta= 0.01
     Davidson diagonalization with overlap
     ethr =  1.79E-10,  avg # of iterations =  1.0

     total cpu time spent up to now is       26.5 secs

     End of self-consistent calculation

          k = 0.0000 0.0000 0.0000 (  1639 PWs)   bands (ev):

    -9.3025  12.5603  12.5603  12.5603

          k =-0.5008 0.5008-0.5008 (  1616 PWs)   bands (ev):

    -6.2555   3.1048  10.2521  10.2521

          k = 0.0000 1.0016-0.0000 (  1624 PWs)   bands (ev):

    -5.2294   5.1605   7.2766   7.2766

          k = 1.0016-0.0000 1.0016 (  1612 PWs)   bands (ev):

    -1.8660   1.3868   3.2772   7.8941

     highest occupied level (ev):    12.5603

!    total energy              =     -22.71591976 Ry
     estimated scf accuracy    <          7.6E-09 Ry

     The total energy is the sum of the following terms:
     one-electron contribution =       7.51919346 Ry
     hartree contribution      =       2.04096863 Ry
     xc contribution           =      -7.04132592 Ry
     ewald contribution        =     -25.23475592 Ry

     convergence has been achieved in  83 iterations
     Writing meta-gga kinetic term

     Forces acting on atoms (cartesian axes, Ry/au):

     atom    1 type  1   force =     0.00000000    0.00000000   -0.00000000
     atom    2 type  1   force =    -0.00000000   -0.00000000    0.00000000

     Total force =     0.000000     Total SCF correction =     0.000000


     Computing stress (Cartesian axis) and pressure

          total   stress  (Ry/bohr**3)                   (kbar)     P=     -171.06
  -0.00116283   0.00000000   0.00000000         -171.06        0.00        0.00
   0.00000000  -0.00116283   0.00000000            0.00     -171.06        0.00
   0.00000000   0.00000000  -0.00116283            0.00        0.00     -171.06

     Energy error            =      2.2E-01 Ry
     Gradient error          =      7.4E-32 Ry/Bohr
     Cell gradient error     =      1.7E+02 kbar

     number of scf cycles    =   5
     number of bfgs steps    =   4

     enthalpy           old  =     -22.4932017977 Ry
     enthalpy           new  =     -22.7159197571 Ry

     CASE: enthalpy          _new < enthalpy          _old

     new trust radius        =       0.0520583649 bohr
     new conv_thr            =       0.0000000100 Ry

     new unit-cell volume =     72.91711 a.u.^3 (    10.80520 Ang^3 )
     density =      3.69169 g/cm^3

CELL_PARAMETERS (alat= 10.26310000)
  -0.323088314   0.000000000   0.323088314
   0.000000000   0.323088314   0.323088314
  -0.323088314   0.323088314  -0.000000000

ATOMIC_POSITIONS (alat)
C             0.0000000000        0.0000000000       -0.0000000000
C             0.1615441570        0.1615441570        0.1615441570



     Writing config-only to output data dir ./pwscf.save/
     NEW-OLD atomic charge density approx. for the potential
     extrapolated charge    7.25731, renormalised to    8.00000

     total cpu time spent up to now is       26.9 secs

     Self-consistent Calculation

     iteration #  1     ecut=    50.00 Ry     beta= 0.01
     Davidson diagonalization with overlap
     ethr =  1.00E-06,  avg # of iterations =  5.2

     total cpu time spent up to now is       27.2 secs

     total energy              =     -22.70497939 Ry
     estimated scf accuracy    <       0.07018588 Ry

     iteration #  2     ecut=    50.00 Ry     beta= 0.01
     Davidson diagonalization with overlap
     ethr =  8.77E-04,  avg # of iterations =  1.5

     total cpu time spent up to now is       27.3 secs

     total energy              =     -22.71185638 Ry
     estimated scf accuracy    <       0.04316893 Ry

     iteration #  3     ecut=    50.00 Ry     beta= 0.01
     Davidson diagonalization with overlap
     ethr =  5.40E-04,  avg # of iterations =  1.0

     total cpu time spent up to now is       27.4 secs

     total energy              =     -22.71341986 Ry
     estimated scf accuracy    <       0.03715629 Ry

     iteration #  4     ecut=    50.00 Ry     beta= 0.01
     Davidson diagonalization with overlap
     ethr =  4.64E-04,  avg # of iterations =  1.0

     total cpu time spent up to now is       27.5 secs

     total energy              =     -22.71474432 Ry
     estimated scf accuracy    <       0.01480888 Ry

     iteration #  5     ecut=    50.00 Ry     beta= 0.01
     Davidson diagonalization with overlap
     ethr =  1.85E-04,  avg # of iterations =  1.0

     total cpu time spent up to now is       27.7 secs

     total energy              =     -22.71507270 Ry
     estimated scf accuracy    <       0.00018481 Ry

     iteration #  6     ecut=    50.00 Ry     beta= 0.01
     Davidson diagonalization with overlap
     ethr =  2.31E-06,  avg # of iterations =  1.0

     total cpu time spent up to now is       27.8 secs

     total energy              =     -22.71507595 Ry
     estimated scf accuracy    <       0.00020063 Ry

     iteration #  7     ecut=    50.00 Ry     beta= 0.01
     Davidson diagonalization with overlap
     ethr =  2.31E-06,  avg # of iterations =  1.0

     total cpu time spent up to now is       27.9 secs

     total energy              =     -22.71507363 Ry
     estimated scf accuracy    <       0.00019494 Ry

     iteration #  8     ecut=    50.00 Ry     beta= 0.01
     Davidson diagonalization with overlap
     ethr =  2.31E-06,  avg # of iterations =  1.0

     total cpu time spent up to now is       28.0 secs

     total energy              =     -22.71507544 Ry
     estimated scf accuracy    <       0.00004027 Ry

     iteration #  9     ecut=    50.00 Ry     beta= 0.01
     Davidson diagonalization with overlap
     ethr =  5.03E-07,  avg # of iterations =  1.0

     total cpu time spent up to now is       28.2 secs

     total energy              =     -22.71507719 Ry
     estimated scf accuracy    <       0.00000221 Ry

     iteration # 10     ecut=    50.00 Ry     beta= 0.01
     Davidson diagonalization with overlap
     ethr =  2.77E-08,  avg # of iterations =  1.0

     total cpu time spent up to now is       28.3 secs

     total energy              =     -22.71507724 Ry
     estimated scf accuracy    <       0.00000239 Ry

     iteration # 11     ecut=    50.00 Ry     beta= 0.01
     Davidson diagonalization with overlap
     ethr =  2.77E-08,  avg # of iterations =  1.0

     total cpu time spent up to now is       28.4 secs

     total energy              =     -22.71507719 Ry
     estimated scf accuracy    <       0.00000164 Ry

     iteration # 12     ecut=    50.00 Ry     beta= 0.01
     Davidson diagonalization with overlap
     ethr =  2.05E-08,  avg # of iterations =  1.2

     total cpu time spent up to now is       28.6 secs

     total energy              =     -22.71507729 Ry
     estimated scf accuracy    <       0.00000002 Ry

     iteration # 13     ecut=    50.00 Ry     beta= 0.01
     Davidson diagonalization with overlap
     ethr =  2.76E-10,  avg # of iterations =  2.5

     total cpu time spent up to now is       28.7 secs

     total energy              =     -22.71507729 Ry
     estimated scf accuracy    <       0.00000006 Ry

     iteration # 14     ecut=    50.00 Ry     beta= 0.01
     Davidson diagonalization with overlap
     ethr =  2.76E-10,  avg # of iterations =  1.0

     total cpu time spent up to now is       28.9 secs

     total energy              =     -22.71507730 Ry
     estimated scf accuracy    <       0.00000004 Ry

     iteration # 15     ecut=    50.00 Ry     beta= 0.01
     Davidson diagonalization with overlap
     ethr =  2.76E-10,  avg # of iterations =  2.0

     total cpu time spent up to now is       29.0 secs

     End of self-consistent calculation

          k = 0.0000 0.0000 0.0000 (  1639 PWs)   bands (ev):

    -8.9097  14.1595  14.1595  14.1595

          k =-0.5159 0.5159-0.5159 (  1616 PWs)   bands (ev):

    -5.6594   4.1038  11.6532  11.6532

          k =-0.0000 1.0317-0.0000 (  1624 PWs)   bands (ev):

    -4.5765   6.5132   8.4061   8.4061

          k = 1.0317 0.0000 1.0317 (  1612 PWs)   bands (ev):

    -0.9006   2.4434   4.0558   9.0840

     highest occupied level (ev):    14.1595

!    total energy              =     -22.71507730 Ry
     estimated scf accuracy    <          8.0E-10 Ry

     The total energy is the sum of the following terms:
     one-electron contribution =       8.51209686 Ry
     hartree contribution      =       1.95557786 Ry
     xc contribution           =      -7.19008363 Ry
     ewald contribution        =     -25.99266838 Ry

     convergence has been achieved in  15 iterations
     Writing meta-gga kinetic term

     Forces acting on atoms (cartesian axes, Ry/au):

     atom    1 type  1   force =    -0.00000000   -0.00000000    0.00000000
     atom    2 type  1   force =     0.00000000    0.00000000   -0.00000000

     Total force =     0.000000     Total SCF correction =     0.000000


     Computing stress (Cartesian axis) and pressure

          total   stress  (Ry/bohr**3)                   (kbar)     P=      235.37
   0.00160002  -0.00000000  -0.00000000          235.37       -0.00       -0.00
  -0.00000000   0.00160002   0.00000000           -0.00      235.37        0.00
  -0.00000000   0.00000000   0.00160002           -0.00        0.00      235.37

     Energy error            =      8.4E-04 Ry
     Gradient error          =      1.0E-31 Ry/Bohr
     Cell gradient error     =      2.4E+02 kbar

     number of scf cycles    =   6
     number of bfgs steps    =   5

     enthalpy           old  =     -22.7159197571 Ry
     enthalpy           new  =     -22.7150772986 Ry

     CASE: enthalpy          _new > enthalpy          _old

     new trust radius        =       0.0232322559 bohr
     new conv_thr            =       0.0000000100 Ry

     new unit-cell volume =     76.57081 a.u.^3 (    11.34662 Ang^3 )
     density =      3.51554 g/cm^3

CELL_PARAMETERS (alat= 10.26310000)
  -0.328397008   0.000000000   0.328397008
[...]

    -4.9413   5.7582   7.7746   7.7746

          k = 1.0150 0.0000 1.0150 (  1612 PWs)   bands (ev):

    -1.4398   1.8539   3.6195   8.4187

     highest occupied level (ev):    13.2651

!    total energy              =     -22.71783466 Ry
     estimated scf accuracy    <          5.9E-09 Ry

     The total energy is the sum of the following terms:
     one-electron contribution =       7.95993476 Ry
     hartree contribution      =       2.00207737 Ry
     xc contribution           =      -7.10736226 Ry
     ewald contribution        =     -25.57248452 Ry

     convergence has been achieved in  18 iterations
     Writing meta-gga kinetic term

     Forces acting on atoms (cartesian axes, Ry/au):

     atom    1 type  1   force =     0.00000000   -0.00000000    0.00000000
     atom    2 type  1   force =    -0.00000000    0.00000000   -0.00000000

     Total force =     0.000000     Total SCF correction =     0.000000


     Computing stress (Cartesian axis) and pressure

          total   stress  (Ry/bohr**3)                   (kbar)     P=       -4.53
  -0.00003078   0.00000000   0.00000000           -4.53        0.00        0.00
  -0.00000000  -0.00003078  -0.00000000           -0.00       -4.53       -0.00
   0.00000000  -0.00000000  -0.00003078            0.00       -0.00       -4.53

     Energy error            =      1.9E-03 Ry
     Gradient error          =      1.5E-31 Ry/Bohr
     Cell gradient error     =      4.5E+00 kbar

     number of scf cycles    =   7
     number of bfgs steps    =   5

     enthalpy           old  =     -22.7159197571 Ry
     enthalpy           new  =     -22.7178346568 Ry

     CASE: enthalpy          _new < enthalpy          _old

     new trust radius        =       0.0006197836 bohr
     new conv_thr            =       0.0000000100 Ry

     new unit-cell volume =     76.48949 a.u.^3 (    11.33457 Ang^3 )
     density =      3.51927 g/cm^3

CELL_PARAMETERS (alat= 10.26310000)
  -0.328280708   0.000000000   0.328280708
   0.000000000   0.328280708   0.328280708
  -0.328280708   0.328280708  -0.000000000

ATOMIC_POSITIONS (alat)
C             0.0000000000        0.0000000000       -0.0000000000
C             0.1641403542        0.1641403542        0.1641403542



     Writing config-only to output data dir ./pwscf.save/
     NEW-OLD atomic charge density approx. for the potential
     extrapolated charge    7.99149, renormalised to    8.00000

     total cpu time spent up to now is       32.4 secs

     Self-consistent Calculation

     iteration #  1     ecut=    50.00 Ry     beta= 0.01
     Davidson diagonalization with overlap
     ethr =  1.00E-06,  avg # of iterations =  1.0

     total cpu time spent up to now is       32.5 secs

     total energy              =     -22.71783432 Ry
     estimated scf accuracy    <       0.00001032 Ry

     iteration #  2     ecut=    50.00 Ry     beta= 0.01
     Davidson diagonalization with overlap
     ethr =  1.29E-07,  avg # of iterations =  1.8

     total cpu time spent up to now is       32.6 secs

     total energy              =     -22.71783538 Ry
     estimated scf accuracy    <       0.00000597 Ry

     iteration #  3     ecut=    50.00 Ry     beta= 0.01
     Davidson diagonalization with overlap
     ethr =  7.46E-08,  avg # of iterations =  1.0

     total cpu time spent up to now is       32.8 secs

     total energy              =     -22.71783562 Ry
     estimated scf accuracy    <       0.00000535 Ry

     iteration #  4     ecut=    50.00 Ry     beta= 0.01
     Davidson diagonalization with overlap
     ethr =  6.69E-08,  avg # of iterations =  1.0

     total cpu time spent up to now is       32.9 secs

     total energy              =     -22.71783579 Ry
     estimated scf accuracy    <       0.00000115 Ry

     iteration #  5     ecut=    50.00 Ry     beta= 0.01
     Davidson diagonalization with overlap
     ethr =  1.43E-08,  avg # of iterations =  1.0

     total cpu time spent up to now is       33.0 secs

     total energy              =     -22.71783582 Ry
     estimated scf accuracy    <       0.00000001 Ry

     iteration #  6     ecut=    50.00 Ry     beta= 0.01
     Davidson diagonalization with overlap
     ethr =  1.59E-10,  avg # of iterations =  1.5

     total cpu time spent up to now is       33.2 secs

     total energy              =     -22.71783582 Ry
     estimated scf accuracy    <       0.00000001 Ry

     iteration #  7     ecut=    50.00 Ry     beta= 0.01
     Davidson diagonalization with overlap
     ethr =  1.59E-10,  avg # of iterations =  1.0

     total cpu time spent up to now is       33.3 secs

     End of self-consistent calculation

          k = 0.0000 0.0000 0.0000 (  1639 PWs)   bands (ev):

    -9.1258  13.2842  13.2842  13.2842

          k =-0.5077 0.5077-0.5077 (  1616 PWs)   bands (ev):

    -5.9857   3.5572  10.8862  10.8862

          k = 0.0000 1.0154 0.0000 (  1624 PWs)   bands (ev):

    -4.9338   5.7742   7.7879   7.7879

          k = 1.0154 0.0000 1.0154 (  1612 PWs)   bands (ev):

    -1.4286   1.8663   3.6286   8.4327

     highest occupied level (ev):    13.2842

!    total energy              =     -22.71783582 Ry
     estimated scf accuracy    <          2.7E-09 Ry

     The total energy is the sum of the following terms:
     one-electron contribution =       7.97178992 Ry
     hartree contribution      =       2.00105823 Ry
     xc contribution           =      -7.10913992 Ry
     ewald contribution        =     -25.58154405 Ry

     convergence has been achieved in   7 iterations
     Writing meta-gga kinetic term

     Forces acting on atoms (cartesian axes, Ry/au):

     atom    1 type  1   force =     0.00000000    0.00000000    0.00000000
     atom    2 type  1   force =    -0.00000000   -0.00000000   -0.00000000

     Total force =     0.000000     Total SCF correction =     0.000000


     Computing stress (Cartesian axis) and pressure

          total   stress  (Ry/bohr**3)                   (kbar)     P=        0.29
   0.00000194   0.00000000  -0.00000000            0.29        0.00       -0.00
   0.00000000   0.00000194  -0.00000000            0.00        0.29       -0.00
  -0.00000000   0.00000000   0.00000194           -0.00        0.00        0.29

     Energy error            =      1.2E-06 Ry
     Gradient error          =      1.0E-31 Ry/Bohr
     Cell gradient error     =      2.9E-01 kbar

     bfgs converged in   8 scf cycles and   6 bfgs steps
     (criteria: energy <  1.0E-04 Ry, force <  1.0E-03Ry/Bohr, cell <  5.0E-01kbar)

     End of BFGS Geometry Optimization

     Final enthalpy           =     -22.7178358205 Ry

     File ./pwscf.bfgs deleted, as requested
Begin final coordinates
     new unit-cell volume =     76.48949 a.u.^3 (    11.33457 Ang^3 )
     density =      3.51927 g/cm^3

CELL_PARAMETERS (alat= 10.26310000)
  -0.328280708   0.000000000   0.328280708
   0.000000000   0.328280708   0.328280708
  -0.328280708   0.328280708  -0.000000000

ATOMIC_POSITIONS (alat)
C             0.0000000000        0.0000000000       -0.0000000000
C             0.1641403542        0.1641403542        0.1641403542
End final coordinates



     Writing config-only to output data dir ./pwscf.save/

     Final scf calculation at the relaxed structure.
     The G-vectors are recalculated for the final unit cell
     Results may differ from those at the preceding step.
 
     G-vector sticks info
     --------------------
     sticks:   dense  smooth     PW     G-vecs:    dense   smooth      PW
     Sum         313     313     97                 3695     3695     645
 
     Using Slab Decomposition
 


     bravais-lattice index     =            2
     lattice parameter (alat)  =      10.2631  a.u.
     unit-cell volume          =      76.4895 (a.u.)^3
     number of atoms/cell      =            2
     number of atomic types    =            1
     number of electrons       =         8.00
     number of Kohn-Sham states=            4
     kinetic-energy cutoff     =      50.0000  Ry
     charge density cutoff     =     200.0000  Ry
     scf convergence threshold =      1.0E-08
     mixing beta               =       0.0100
     number of iterations used =            8  local-TF  mixing
     press convergence thresh. =      5.0E-01
     Exchange-correlation= SLA  PW   SCAN SCAN
                           (   0   0   0   0   0 263 267)

     celldm(1)=  10.263100  celldm(2)=   0.000000  celldm(3)=   0.000000
     celldm(4)=   0.000000  celldm(5)=   0.000000  celldm(6)=   0.000000

     crystal axes: (cart. coord. in units of alat)
               a(1) = (  -0.328281   0.000000   0.328281 )  
               a(2) = (   0.000000   0.328281   0.328281 )  
               a(3) = (  -0.328281   0.328281  -0.000000 )  

     reciprocal axes: (cart. coord. in units 2 pi/alat)
               b(1) = ( -1.523087 -1.523087  1.523087 )  
               b(2) = (  1.523087  1.523087  1.523087 )  
               b(3) = ( -1.523087  1.523087 -1.523087 )  


     PseudoPot. # 1 for C  read from file:
     ~/Documents/PWDFT.jl/pseudopotentials/scan_upf/C.SCAN.UPF
     MD5 check sum: Not computed, couldn't open file
     Pseudo is Norm-conserving, Zval =  4.0
     Generated by new atomic code, or converted to UPF format
     Using radial grid of 1389 points,  1 beta functions with: 
                l(1) =   0

     atomic species   valence    mass     pseudopotential
        C              4.00    12.01100     C ( 1.00)

     48 Sym. Ops., with inversion, found (24 have fractional translation)



   Cartesian axes

     site n.     atom                  positions (alat units)
         1           C   tau(   1) = (   0.0000000   0.0000000  -0.0000000  )
         2           C   tau(   2) = (   0.1641404   0.1641404   0.1641404  )

     number of k points=     4
                       cart. coord. in units 2pi/alat
        k(    1) = (   0.0000000   0.0000000   0.0000000), wk =   0.0740741
        k(    2) = (  -0.5076956   0.5076956  -0.5076956), wk =   0.5925926
        k(    3) = (   0.0000000   1.0153912   0.0000000), wk =   0.4444444
        k(    4) = (   1.0153912   0.0000000   1.0153912), wk =   0.8888889

     Dense  grid:     3695 G-vectors     FFT dimensions: (  24,  24,  24)

     Estimated max dynamical RAM per process >       6.04 MB

     WARNING: libxc functional with ID  263 depends
      on external parameters: check the user_guide of
      QE if you need to modify them or to check their
      default values.

     Initial potential from superposition of free atoms

     starting charge       7.9999, renormalised to       8.0000
     Starting wfcs are    8 randomized atomic wfcs

     total cpu time spent up to now is       33.6 secs

     Self-consistent Calculation

     iteration #  1     ecut=    50.00 Ry     beta= 0.01
     Davidson diagonalization with overlap
     ethr =  1.00E-06,  avg # of iterations =  7.5

     total cpu time spent up to now is       33.7 secs

     total energy              =     -22.57205831 Ry
     estimated scf accuracy    <       2.34277080 Ry

     iteration #  2     ecut=    50.00 Ry     beta= 0.01
     Davidson diagonalization with overlap
     ethr =  1.00E-02,  avg # of iterations =  1.0

     total cpu time spent up to now is       33.7 secs

     total energy              =     -22.68919566 Ry
     estimated scf accuracy    <       2.29581641 Ry

     iteration #  3     ecut=    50.00 Ry     beta= 0.01
     Davidson diagonalization with overlap
     ethr =  1.00E-02,  avg # of iterations =  1.0

     total cpu time spent up to now is       33.8 secs

     total energy              =     -22.69527888 Ry
     estimated scf accuracy    <       0.01545523 Ry

     iteration #  4     ecut=    50.00 Ry     beta= 0.01
     Davidson diagonalization with overlap
     ethr =  1.93E-04,  avg # of iterations =  1.0

     total cpu time spent up to now is       33.8 secs

     total energy              =     -22.69519471 Ry
     estimated scf accuracy    <       0.01604950 Ry

     iteration #  5     ecut=    50.00 Ry     beta= 0.01
     Davidson diagonalization with overlap
     ethr =  1.93E-04,  avg # of iterations =  1.0

     total cpu time spent up to now is       33.8 secs

     total energy              =     -22.69104722 Ry
     estimated scf accuracy    <       0.02253376 Ry

     iteration #  6     ecut=    50.00 Ry     beta= 0.01
     Davidson diagonalization with overlap
     ethr =  1.93E-04,  avg # of iterations =  1.0

     total cpu time spent up to now is       33.9 secs

     total energy              =     -22.69230249 Ry
     estimated scf accuracy    <       0.00921616 Ry

     iteration #  7     ecut=    50.00 Ry     beta= 0.01
     Davidson diagonalization with overlap
     ethr =  1.15E-04,  avg # of iterations =  1.0

     total cpu time spent up to now is       33.9 secs

     total energy              =     -22.69243651 Ry
     estimated scf accuracy    <       0.00159208 Ry

     iteration #  8     ecut=    50.00 Ry     beta= 0.01
     Davidson diagonalization with overlap
     ethr =  1.99E-05,  avg # of iterations =  1.0

     total cpu time spent up to now is       33.9 secs

     total energy              =     -22.69227469 Ry
     estimated scf accuracy    <       0.00253142 Ry

     iteration #  9     ecut=    50.00 Ry     beta= 0.01
     Davidson diagonalization with overlap
     ethr =  1.99E-05,  avg # of iterations =  1.0

     total cpu time spent up to now is       34.0 secs

     total energy              =     -22.69220336 Ry
     estimated scf accuracy    <       0.00069665 Ry

     iteration # 10     ecut=    50.00 Ry     beta= 0.01
     Davidson diagonalization with overlap
     ethr =  8.71E-06,  avg # of iterations =  1.0

     total cpu time spent up to now is       34.0 secs

     total energy              =     -22.69222904 Ry
     estimated scf accuracy    <       0.00003006 Ry

     iteration # 11     ecut=    50.00 Ry     beta= 0.01
     Davidson diagonalization with overlap
     ethr =  3.76E-07,  avg # of iterations =  1.0

     total cpu time spent up to now is       34.1 secs

     total energy              =     -22.69222742 Ry
     estimated scf accuracy    <       0.00001591 Ry

     iteration # 12     ecut=    50.00 Ry     beta= 0.01
     Davidson diagonalization with overlap
     ethr =  1.99E-07,  avg # of iterations =  1.0

     total cpu time spent up to now is       34.1 secs

     total energy              =     -22.69223034 Ry
     estimated scf accuracy    <       0.00001217 Ry

     iteration # 13     ecut=    50.00 Ry     beta= 0.01
     Davidson diagonalization with overlap
     ethr =  1.52E-07,  avg # of iterations =  1.0

     total cpu time spent up to now is       34.1 secs

     total energy              =     -22.69223102 Ry
     estimated scf accuracy    <       0.00000022 Ry

     iteration # 14     ecut=    50.00 Ry     beta= 0.01
     Davidson diagonalization with overlap
     ethr =  2.73E-09,  avg # of iterations =  2.0

     total cpu time spent up to now is       34.2 secs

     total energy              =     -22.69223105 Ry
     estimated scf accuracy    <       0.00000005 Ry

     iteration # 15     ecut=    50.00 Ry     beta= 0.01
     Davidson diagonalization with overlap
     ethr =  6.87E-10,  avg # of iterations =  1.5

     total cpu time spent up to now is       34.2 secs

     total energy              =     -22.69223107 Ry
     estimated scf accuracy    <       0.00000006 Ry

     iteration # 16     ecut=    50.00 Ry     beta= 0.01
     Davidson diagonalization with overlap
     ethr =  6.87E-10,  avg # of iterations =  1.0

     total cpu time spent up to now is       34.2 secs

     total energy              =     -22.69223109 Ry
     estimated scf accuracy    <       0.00000004 Ry

     iteration # 17     ecut=    50.00 Ry     beta= 0.01
     Davidson diagonalization with overlap
     ethr =  4.62E-10,  avg # of iterations =  1.5

     total cpu time spent up to now is       34.3 secs

     End of self-consistent calculation

          k = 0.0000 0.0000 0.0000 (   459 PWs)   bands (ev):

    -9.0970  13.3573  13.3573  13.3573

          k =-0.5077 0.5077-0.5077 (   468 PWs)   bands (ev):

    -5.9535   3.5936  10.9295  10.9295

          k = 0.0000 1.0154 0.0000 (   444 PWs)   bands (ev):

    -4.8994   5.8317   7.8291   7.8291

          k = 1.0154 0.0000 1.0154 (   456 PWs)   bands (ev):

    -1.3890   1.9055   3.6564   8.4731

     highest occupied level (ev):    13.3573

!    total energy              =     -22.69223109 Ry
     estimated scf accuracy    <          4.0E-10 Ry

     The total energy is the sum of the following terms:
     one-electron contribution =       8.00016525 Ry
     hartree contribution      =       1.98933202 Ry
     xc contribution           =      -7.10018429 Ry
     ewald contribution        =     -25.58154407 Ry

     convergence has been achieved in  17 iterations
     Writing meta-gga kinetic term

     Forces acting on atoms (cartesian axes, Ry/au):

     atom    1 type  1   force =     0.00000000    0.00000000    0.00000000
     atom    2 type  1   force =    -0.00000000   -0.00000000   -0.00000000

     Total force =     0.000000     Total SCF correction =     0.000000


     Computing stress (Cartesian axis) and pressure

          total   stress  (Ry/bohr**3)                   (kbar)     P=     -146.23
  -0.00099403  -0.00000000  -0.00000000         -146.23       -0.00       -0.00
  -0.00000000  -0.00099403   0.00000000           -0.00     -146.23        0.00
  -0.00000000   0.00000000  -0.00099403           -0.00        0.00     -146.23


     Writing all to output data dir ./pwscf.save/
     Writing meta-gga kinetic term
 
     init_run     :      0.35s CPU      0.38s WALL (       2 calls)
     electrons    :     30.37s CPU     30.68s WALL (       9 calls)
     update_pot   :      1.43s CPU      1.44s WALL (       7 calls)
     forces       :      0.57s CPU      0.57s WALL (       9 calls)
     stress       :      1.11s CPU      1.14s WALL (       9 calls)

     Called by init_run:
     wfcinit      :      0.10s CPU      0.10s WALL (       2 calls)
     potinit      :      0.12s CPU      0.12s WALL (       2 calls)
     hinit0       :      0.13s CPU      0.15s WALL (       2 calls)

     Called by electrons:
     c_bands      :     18.85s CPU     19.00s WALL (     228 calls)
     sum_band     :      5.01s CPU      5.08s WALL (     228 calls)
     v_of_rho     :      4.15s CPU      4.21s WALL (     237 calls)
     mix_rho      :      2.38s CPU      2.42s WALL (     228 calls)

     Called by c_bands:
     init_us_2    :      0.07s CPU      0.07s WALL (    1904 calls)
     init_us_2:cp :      0.06s CPU      0.06s WALL (    1904 calls)
     cegterg      :     18.76s CPU     18.91s WALL (     912 calls)

     Called by *egterg:
     cdiaghg      :      0.06s CPU      0.07s WALL (    2277 calls)
     h_psi        :     18.56s CPU     18.71s WALL (    2313 calls)
     g_psi        :      0.02s CPU      0.02s WALL (    1393 calls)

     Called by h_psi:
     h_psi:calbec :      0.02s CPU      0.02s WALL (    2313 calls)
     vloc_psi     :      4.63s CPU      4.68s WALL (    2313 calls)
     add_vuspsi   :      0.04s CPU      0.04s WALL (    2313 calls)
     h_psi_meta   :     13.85s CPU     13.94s WALL (    2313 calls)

     General routines
     calbec       :      0.02s CPU      0.02s WALL (    2493 calls)
     fft          :      0.74s CPU      0.77s WALL (    2889 calls)
     ffts         :      1.13s CPU      1.14s WALL (    4471 calls)
     fftw         :     20.30s CPU     20.46s WALL (   84816 calls)
     interpolate  :      0.01s CPU      0.01s WALL (     237 calls)
 
     Parallel routines
 
     PWSCF        :     33.92s CPU     34.34s WALL

 
   This run was terminated on:  13:53: 1  16Feb2023            

=------------------------------------------------------------------------------=
   JOB DONE.
=------------------------------------------------------------------------------=
