
     Program PWSCF v.7.0 starts on 18Feb2023 at 14:29: 5 

     This program is part of the open-source Quantum ESPRESSO suite
     for quantum simulation of materials; please cite
         "P. Giannozzi et al., J. Phys.:Condens. Matter 21 395502 (2009);
         "P. Giannozzi et al., J. Phys.:Condens. Matter 29 465901 (2017);
         "P. Giannozzi et al., J. Chem. Phys. 152 154105 (2020);
          URL http://www.quantum-espresso.org", 
     in publications or presentations arising from this work. More details at
     http://www.quantum-espresso.org/quote

     Parallel version (MPI), running on     8 processors

     MPI processes distributed on     1 nodes
     R & G space division:  proc/nbgrp/npool/nimage =       8
     8007 MiB available memory on the printing compute node when the environment starts
 
     Waiting for input...
     Reading input from standard input

     Current dimensions of program PWSCF are:
     Max number of different atomic species (ntypx) = 10
     Max number of k-points (npk) =  40000
     Max angular momentum in pseudopotentials (lmaxx) =  4

     WARNING: the MGGA functional with ID    5 has been 
     read together with other dft terms, but it should 
     stand alone in order to work properly. The other 
     terms will be ignored.

     Subspace diagonalization in iterative solution of the eigenvalue problem:
     one sub-group per band group will be used
     scalapack distributed-memory algorithm (size of sub-group:  2*  2 procs)

 
     Parallelization info
     --------------------
     sticks:   dense  smooth     PW     G-vecs:    dense   smooth      PW
     Min          91      91     27                 1617     1617     278
     Max          92      92     28                 1618     1618     280
     Sum         733     733    223                12939    12939    2229
 
     Using Slab Decomposition
 


     bravais-lattice index     =            2
     lattice parameter (alat)  =      10.2631  a.u.
     unit-cell volume          =     270.2562 (a.u.)^3
     number of atoms/cell      =            2
     number of atomic types    =            1
     number of electrons       =         8.00
     number of Kohn-Sham states=            4
     kinetic-energy cutoff     =      50.0000  Ry
     charge density cutoff     =     200.0000  Ry
     scf convergence threshold =      1.0E-06
     mixing beta               =       0.0100
     number of iterations used =            8  local-TF  mixing
     energy convergence thresh.=      1.0E-04
     force convergence thresh. =      1.0E-03
     press convergence thresh. =      5.0E-01
     Exchange-correlation= SLA  PW   SCAN SCAN
                           (   0   0   0   0   0 263 267)
     nstep                     =           50


     celldm(1)=  10.263100  celldm(2)=   0.000000  celldm(3)=   0.000000
     celldm(4)=   0.000000  celldm(5)=   0.000000  celldm(6)=   0.000000

     crystal axes: (cart. coord. in units of alat)
               a(1) = (  -0.500000   0.000000   0.500000 )  
               a(2) = (   0.000000   0.500000   0.500000 )  
               a(3) = (  -0.500000   0.500000   0.000000 )  

     reciprocal axes: (cart. coord. in units 2 pi/alat)
               b(1) = ( -1.000000 -1.000000  1.000000 )  
               b(2) = (  1.000000  1.000000  1.000000 )  
               b(3) = ( -1.000000  1.000000 -1.000000 )  


     PseudoPot. # 1 for C  read from file:
     ~/Documents/PWDFT.jl/pseudopotentials/scan_upf/C.SCAN.UPF
     MD5 check sum: Not computed, couldn't open file
     Pseudo is Norm-conserving, Zval =  4.0
     Generated by new atomic code, or converted to UPF format
     Using radial grid of 1389 points,  1 beta functions with: 
                l(1) =   0

     atomic species   valence    mass     pseudopotential
        C              4.00    12.01100     C ( 1.00)

     48 Sym. Ops., with inversion, found (24 have fractional translation)



   Cartesian axes

     site n.     atom                  positions (alat units)
         1           C   tau(   1) = (   0.0000000   0.0000000   0.0000000  )
         2           C   tau(   2) = (   0.2500000   0.2500000   0.2500000  )

     number of k points=    47
                       cart. coord. in units 2pi/alat
        k(    1) = (   0.0000000   0.0000000   0.0000000), wk =   0.0020000
        k(    2) = (  -0.1000000   0.1000000  -0.1000000), wk =   0.0160000
        k(    3) = (  -0.2000000   0.2000000  -0.2000000), wk =   0.0160000
        k(    4) = (  -0.3000000   0.3000000  -0.3000000), wk =   0.0160000
        k(    5) = (  -0.4000000   0.4000000  -0.4000000), wk =   0.0160000
        k(    6) = (   0.5000000  -0.5000000   0.5000000), wk =   0.0080000
        k(    7) = (   0.0000000   0.2000000   0.0000000), wk =   0.0120000
        k(    8) = (  -0.1000000   0.3000000  -0.1000000), wk =   0.0480000
        k(    9) = (  -0.2000000   0.4000000  -0.2000000), wk =   0.0480000
        k(   10) = (  -0.3000000   0.5000000  -0.3000000), wk =   0.0480000
        k(   11) = (   0.6000000  -0.4000000   0.6000000), wk =   0.0480000
        k(   12) = (   0.5000000  -0.3000000   0.5000000), wk =   0.0480000
        k(   13) = (   0.4000000  -0.2000000   0.4000000), wk =   0.0480000
        k(   14) = (   0.3000000  -0.1000000   0.3000000), wk =   0.0480000
        k(   15) = (   0.2000000   0.0000000   0.2000000), wk =   0.0240000
        k(   16) = (   0.0000000   0.4000000   0.0000000), wk =   0.0120000
        k(   17) = (  -0.1000000   0.5000000  -0.1000000), wk =   0.0480000
        k(   18) = (  -0.2000000   0.6000000  -0.2000000), wk =   0.0480000
        k(   19) = (   0.7000000  -0.3000000   0.7000000), wk =   0.0480000
        k(   20) = (   0.6000000  -0.2000000   0.6000000), wk =   0.0480000
        k(   21) = (   0.5000000  -0.1000000   0.5000000), wk =   0.0480000
        k(   22) = (   0.4000000   0.0000000   0.4000000), wk =   0.0240000
        k(   23) = (   0.0000000   0.6000000   0.0000000), wk =   0.0120000
        k(   24) = (  -0.1000000   0.7000000  -0.1000000), wk =   0.0480000
        k(   25) = (   0.8000000  -0.2000000   0.8000000), wk =   0.0480000
        k(   26) = (   0.7000000  -0.1000000   0.7000000), wk =   0.0480000
        k(   27) = (   0.6000000  -0.0000000   0.6000000), wk =   0.0240000
        k(   28) = (   0.0000000   0.8000000   0.0000000), wk =   0.0120000
        k(   29) = (   0.9000000  -0.1000000   0.9000000), wk =   0.0480000
        k(   30) = (   0.8000000   0.0000000   0.8000000), wk =   0.0240000
        k(   31) = (   0.0000000  -1.0000000   0.0000000), wk =   0.0060000
        k(   32) = (  -0.2000000   0.4000000   0.0000000), wk =   0.0480000
        k(   33) = (  -0.3000000   0.5000000  -0.1000000), wk =   0.0960000
        k(   34) = (   0.6000000  -0.4000000   0.8000000), wk =   0.0960000
        k(   35) = (   0.5000000  -0.3000000   0.7000000), wk =   0.0480000
        k(   36) = (  -0.2000000   0.6000000   0.0000000), wk =   0.0480000
        k(   37) = (   0.7000000  -0.3000000   0.9000000), wk =   0.0960000
        k(   38) = (   0.6000000  -0.2000000   0.8000000), wk =   0.0960000
        k(   39) = (   0.5000000  -0.1000000   0.7000000), wk =   0.0960000
        k(   40) = (   0.4000000   0.0000000   0.6000000), wk =   0.0480000
        k(   41) = (   0.8000000  -0.2000000   1.0000000), wk =   0.0480000
        k(   42) = (   0.7000000  -0.1000000   0.9000000), wk =   0.0960000
        k(   43) = (   0.6000000   0.0000000   0.8000000), wk =   0.0480000
        k(   44) = (  -0.2000000  -1.0000000   0.0000000), wk =   0.0240000
        k(   45) = (   0.6000000  -0.2000000   1.0000000), wk =   0.0480000
        k(   46) = (   0.5000000  -0.1000000   0.9000000), wk =   0.0480000
        k(   47) = (  -0.4000000  -1.0000000   0.0000000), wk =   0.0240000

     Dense  grid:    12939 G-vectors     FFT dimensions: (  36,  36,  36)

     Estimated max dynamical RAM per process >       3.19 MB

     Estimated total dynamical RAM >      25.52 MB

     WARNING: libxc functional with ID  263 depends
      on external parameters: check the user_guide of
      QE if you need to modify them or to check their
      default values.

     Initial potential from superposition of free atoms

     starting charge       7.9999, renormalised to       8.0000
     Starting wfcs are    8 randomized atomic wfcs

     total cpu time spent up to now is        0.4 secs

     Self-consistent Calculation

     iteration #  1     ecut=    50.00 Ry     beta= 0.01
     Davidson diagonalization with overlap
     ethr =  1.00E-02,  avg # of iterations =  1.0

     total cpu time spent up to now is        0.9 secs

     total energy              =     -21.95327719 Ry
     estimated scf accuracy    <       0.53785442 Ry

     iteration #  2     ecut=    50.00 Ry     beta= 0.01
     Davidson diagonalization with overlap
     ethr =  6.72E-03,  avg # of iterations =  1.0

     total cpu time spent up to now is        1.3 secs

     total energy              =     -21.95931716 Ry
     estimated scf accuracy    <       0.53541256 Ry

     iteration #  3     ecut=    50.00 Ry     beta= 0.01
     Davidson diagonalization with overlap
     ethr =  6.69E-03,  avg # of iterations =  1.0

     total cpu time spent up to now is        1.7 secs

     total energy              =     -21.96582804 Ry
     estimated scf accuracy    <       0.42815881 Ry

     iteration #  4     ecut=    50.00 Ry     beta= 0.01
     Davidson diagonalization with overlap
     ethr =  5.35E-03,  avg # of iterations =  1.0

     total cpu time spent up to now is        2.2 secs

     total energy              =     -21.96958283 Ry
     estimated scf accuracy    <       0.00164367 Ry

     iteration #  5     ecut=    50.00 Ry     beta= 0.01
     Davidson diagonalization with overlap
     ethr =  2.05E-05,  avg # of iterations =  2.1

     total cpu time spent up to now is        2.8 secs

     total energy              =     -21.97006114 Ry
     estimated scf accuracy    <       0.00248403 Ry

     iteration #  6     ecut=    50.00 Ry     beta= 0.01
     Davidson diagonalization with overlap
     ethr =  2.05E-05,  avg # of iterations =  1.0

     total cpu time spent up to now is        3.3 secs

     total energy              =     -21.97012613 Ry
     estimated scf accuracy    <       0.00246506 Ry

     iteration #  7     ecut=    50.00 Ry     beta= 0.01
     Davidson diagonalization with overlap
     ethr =  2.05E-05,  avg # of iterations =  1.0

     total cpu time spent up to now is        3.7 secs

     total energy              =     -21.97017195 Ry
     estimated scf accuracy    <       0.00035621 Ry

     iteration #  8     ecut=    50.00 Ry     beta= 0.01
     Davidson diagonalization with overlap
     ethr =  4.45E-06,  avg # of iterations =  1.0

     total cpu time spent up to now is        4.1 secs

     total energy              =     -21.97018061 Ry
     estimated scf accuracy    <       0.00008788 Ry

     iteration #  9     ecut=    50.00 Ry     beta= 0.01
     Davidson diagonalization with overlap
     ethr =  1.10E-06,  avg # of iterations =  1.4

     total cpu time spent up to now is        4.6 secs

     total energy              =     -21.97019194 Ry
     estimated scf accuracy    <       0.00007620 Ry

     iteration # 10     ecut=    50.00 Ry     beta= 0.01
     Davidson diagonalization with overlap
     ethr =  9.53E-07,  avg # of iterations =  1.0

     total cpu time spent up to now is        5.0 secs

     total energy              =     -21.97020045 Ry
     estimated scf accuracy    <       0.00006063 Ry

     iteration # 11     ecut=    50.00 Ry     beta= 0.01
     Davidson diagonalization with overlap
     ethr =  7.58E-07,  avg # of iterations =  2.0

     total cpu time spent up to now is        5.6 secs

     total energy              =     -21.97020996 Ry
     estimated scf accuracy    <       0.00000180 Ry

     iteration # 12     ecut=    50.00 Ry     beta= 0.01
     Davidson diagonalization with overlap
     c_bands:  1 eigenvalues not converged
     c_bands:  1 eigenvalues not converged
     c_bands:  1 eigenvalues not converged
     ethr =  2.25E-08,  avg # of iterations =  6.6

     total cpu time spent up to now is        6.6 secs

     total energy              =     -21.97021312 Ry
     estimated scf accuracy    <       0.00000157 Ry

     iteration # 13     ecut=    50.00 Ry     beta= 0.01
     Davidson diagonalization with overlap
     c_bands:  1 eigenvalues not converged
     ethr =  1.96E-08,  avg # of iterations =  2.6

     total cpu time spent up to now is        7.3 secs

     total energy              =     -21.97021329 Ry
     estimated scf accuracy    <       0.00000132 Ry

     iteration # 14     ecut=    50.00 Ry     beta= 0.01
     Davidson diagonalization with overlap
     ethr =  1.65E-08,  avg # of iterations =  2.4

     total cpu time spent up to now is        7.9 secs

     total energy              =     -21.97021376 Ry
     estimated scf accuracy    <       0.00000226 Ry

     iteration # 15     ecut=    50.00 Ry     beta= 0.01
     Davidson diagonalization with overlap
     ethr =  1.65E-08,  avg # of iterations =  2.0

     total cpu time spent up to now is        8.5 secs

     End of self-consistent calculation

          k = 0.0000 0.0000 0.0000 (  1639 PWs)   bands (ev):

   -12.3653  -5.0223  -0.5314  -0.5314

          k =-0.1000 0.1000-0.1000 (  1606 PWs)   bands (ev):

   -12.2700  -5.3025  -0.6338  -0.6338

          k =-0.2000 0.2000-0.2000 (  1606 PWs)   bands (ev):

   -11.9941  -6.0084  -0.8711  -0.8711

          k =-0.3000 0.3000-0.3000 (  1615 PWs)   bands (ev):

   -11.5763  -6.8812  -1.1125  -1.1125

          k =-0.4000 0.4000-0.4000 (  1616 PWs)   bands (ev):

   -11.1225  -7.6607  -1.2784  -1.2784

          k = 0.5000-0.5000 0.5000 (  1622 PWs)   bands (ev):

   -10.8941  -8.0060  -1.3372  -1.3372

          k = 0.0000 0.2000 0.0000 (  1599 PWs)   bands (ev):

   -12.2377  -5.3864  -0.7982  -0.7982

          k =-0.1000 0.3000-0.1000 (  1609 PWs)   bands (ev):

   -12.0202  -5.9284  -1.1013  -1.0610

          k =-0.2000 0.4000-0.2000 (  1607 PWs)   bands (ev):

   -11.6435  -6.7204  -1.4903  -1.2949

          k =-0.3000 0.5000-0.3000 (  1610 PWs)   bands (ev):

   -11.1818  -7.5253  -1.8307  -1.4335

          k = 0.6000-0.4000 0.6000 (  1609 PWs)   bands (ev):

   -10.8365  -8.0443  -2.0307  -1.4523

          k = 0.5000-0.3000 0.5000 (  1616 PWs)   bands (ev):

   -10.9198  -7.9244  -2.0542  -1.3481

          k = 0.4000-0.2000 0.4000 (  1621 PWs)   bands (ev):

   -11.3399  -7.2668  -1.8909  -1.1454

          k = 0.3000-0.1000 0.3000 (  1605 PWs)   bands (ev):

   -11.7862  -6.4416  -1.5504  -0.8862

          k = 0.2000 0.0000 0.2000 (  1592 PWs)   bands (ev):

   -12.1137  -5.7108  -1.0844  -0.6721

          k = 0.0000 0.4000 0.0000 (  1607 PWs)   bands (ev):

   -11.8615  -6.2542  -1.3354  -1.3354

          k =-0.1000 0.5000-0.1000 (  1612 PWs)   bands (ev):

   -11.5340  -6.8739  -1.7025  -1.5780

          k =-0.2000 0.6000-0.2000 (  1619 PWs)   bands (ev):

   -11.0870  -7.6003  -2.1569  -1.7133

          k = 0.7000-0.3000 0.7000 (  1606 PWs)   bands (ev):

   -10.6629  -8.1958  -2.5108  -1.7171

          k = 0.6000-0.2000 0.6000 (  1596 PWs)   bands (ev):

   -10.5935  -8.2852  -2.6587  -1.5911

          k = 0.5000-0.1000 0.5000 (  1610 PWs)   bands (ev):

   -10.9596  -7.7888  -2.5518  -1.3637

          k = 0.4000 0.0000 0.4000 (  1610 PWs)   bands (ev):

   -11.4197  -7.0883  -2.1714  -1.0933

          k = 0.0000 0.6000 0.0000 (  1620 PWs)   bands (ev):

   -11.2555  -7.3199  -1.8353  -1.8353

          k =-0.1000 0.7000-0.1000 (  1625 PWs)   bands (ev):

   -10.8380  -7.9256  -2.1725  -1.9884

          k = 0.8000-0.2000 0.8000 (  1619 PWs)   bands (ev):

   -10.3729  -8.5143  -2.6086  -2.0037

          k = 0.7000-0.1000 0.7000 (  1621 PWs)   bands (ev):

   -10.1728  -8.7432  -2.8972  -1.8828

          k = 0.6000-0.0000 0.6000 (  1608 PWs)   bands (ev):

   -10.4995  -8.3600  -2.8967  -1.6475

          k = 0.0000 0.8000 0.0000 (  1624 PWs)   bands (ev):

   -10.4506  -8.4268  -2.1667  -2.1667

          k = 0.9000-0.1000 0.9000 (  1623 PWs)   bands (ev):

    -9.9738  -8.9756  -2.4241  -2.2075

          k = 0.8000 0.0000 0.8000 (  1622 PWs)   bands (ev):

    -9.7526  -9.2003  -2.7669  -2.1076

          k = 0.0000-1.0000 0.0000 (  1604 PWs)   bands (ev):

    -9.4902  -9.4902  -2.2783  -2.2783

          k =-0.2000 0.4000 0.0000 (  1613 PWs)   bands (ev):

   -11.7488  -6.4932  -1.6328  -1.1715

          k =-0.3000 0.5000-0.1000 (  1609 PWs)   bands (ev):

   -11.3348  -7.2284  -2.0973  -1.3749

          k = 0.6000-0.4000 0.8000 (  1618 PWs)   bands (ev):

   -10.8768  -7.9245  -2.3952  -1.5571

          k = 0.5000-0.3000 0.7000 (  1608 PWs)   bands (ev):

   -10.6389  -8.2488  -2.4965  -1.6243

          k =-0.2000 0.6000 0.0000 (  1617 PWs)   bands (ev):

   -11.1637  -7.4658  -2.1096  -1.7517

          k = 0.7000-0.3000 0.9000 (  1621 PWs)   bands (ev):

   -10.7001  -8.1110  -2.5027  -1.9129

          k = 0.6000-0.2000 0.8000 (  1613 PWs)   bands (ev):

   -10.3392  -8.5586  -2.7666  -1.9428

          k = 0.5000-0.1000 0.7000 (  1613 PWs)   bands (ev):

   -10.4572  -8.4153  -2.8115  -1.8177

          k = 0.4000 0.0000 0.6000 (  1607 PWs)   bands (ev):

   -10.9005  -7.8488  -2.5865  -1.5887

          k = 0.8000-0.2000 1.0000 (  1621 PWs)   bands (ev):

   -10.3929  -8.4879  -2.3842  -2.1896

          k = 0.7000-0.1000 0.9000 (  1625 PWs)   bands (ev):

    -9.9484  -8.9856  -2.7003  -2.2394

          k = 0.6000 0.0000 0.8000 (  1614 PWs)   bands (ev):

   -10.0082  -8.9147  -2.9033  -2.0857

          k =-0.2000-1.0000 0.0000 (  1624 PWs)   bands (ev):

    -9.4830  -9.4830  -2.4118  -2.4118

          k = 0.6000-0.2000 1.0000 (  1616 PWs)   bands (ev):

   -10.2335  -8.6614  -2.7413  -2.1775

          k = 0.5000-0.1000 0.9000 (  1608 PWs)   bands (ev):

    -9.9320  -8.9922  -2.8117  -2.3045

          k =-0.4000-1.0000 0.0000 (  1626 PWs)   bands (ev):

    -9.4708  -9.4708  -2.5970  -2.5970

     highest occupied level (ev):    -0.5314

!    total energy              =     -21.97021396 Ry
     estimated scf accuracy    <       0.00000038 Ry

     The total energy is the sum of the following terms:
     one-electron contribution =      -3.32716805 Ry
     hartree contribution      =       3.86602588 Ry
     xc contribution           =      -5.71321696 Ry
     ewald contribution        =     -16.79585484 Ry

     convergence has been achieved in  15 iterations
     Writing meta-gga kinetic term


     Computing stress (Cartesian axis) and pressure

          total   stress  (Ry/bohr**3)                   (kbar)     P=     -358.54
  -0.00243732   0.00000000  -0.00000000         -358.54        0.00       -0.00
  -0.00000000  -0.00243732   0.00000000           -0.00     -358.54        0.00
   0.00000000   0.00000000  -0.00243732            0.00        0.00     -358.54


     BFGS Geometry Optimization
     Energy error            =      0.0E+00 Ry
     Gradient error          =      0.0E+00 Ry/Bohr
     Cell gradient error     =      3.6E+02 kbar

     number of scf cycles    =   1
     number of bfgs steps    =   0

     enthalpy           new  =     -21.9702139612 Ry

     new trust radius        =       0.2003412273 bohr
     new conv_thr            =       0.0000010000 Ry

     new unit-cell volume =    223.80276 a.u.^3 (    33.16415 Ang^3 )
     density =      1.20279 g/cm^3

CELL_PARAMETERS (alat= 10.26310000)
  -0.469533505   0.000000000   0.469533505
   0.000000000   0.469533505   0.469533505
  -0.469533505   0.469533505   0.000000000

ATOMIC_POSITIONS (alat)
C             0.0000000000        0.0000000000        0.0000000000    0   0   0
C             0.2347667525        0.2347667525        0.2347667525    0   0   0



     Writing config-only to output data dir ./pwscf.save/
     NEW-OLD atomic charge density approx. for the potential
     extrapolated charge    6.33950, renormalised to    8.00000

     total cpu time spent up to now is        8.9 secs

     Self-consistent Calculation

     iteration #  1     ecut=    50.00 Ry     beta= 0.01
     Davidson diagonalization with overlap
     ethr =  1.00E-06,  avg # of iterations = 13.9

     total cpu time spent up to now is       11.4 secs

     total energy              =     -22.04189664 Ry
     estimated scf accuracy    <       0.26867145 Ry

     iteration #  2     ecut=    50.00 Ry     beta= 0.01
     Davidson diagonalization with overlap
     ethr =  3.36E-03,  avg # of iterations =  2.0

     total cpu time spent up to now is       12.0 secs

     total energy              =     -22.09197507 Ry
     estimated scf accuracy    <       0.06883361 Ry

     iteration #  3     ecut=    50.00 Ry     beta= 0.01
     Davidson diagonalization with overlap
     ethr =  8.60E-04,  avg # of iterations =  1.0

     total cpu time spent up to now is       12.5 secs

     total energy              =     -22.09300673 Ry
     estimated scf accuracy    <       0.05999031 Ry

     iteration #  4     ecut=    50.00 Ry     beta= 0.01
     Davidson diagonalization with overlap
     ethr =  7.50E-04,  avg # of iterations =  1.0

     total cpu time spent up to now is       12.9 secs

     total energy              =     -22.09812572 Ry
     estimated scf accuracy    <       0.02974792 Ry

     iteration #  5     ecut=    50.00 Ry     beta= 0.01
     Davidson diagonalization with overlap
     ethr =  3.72E-04,  avg # of iterations =  1.0

     total cpu time spent up to now is       13.3 secs

     total energy              =     -22.09894177 Ry
     estimated scf accuracy    <       0.00421334 Ry

     iteration #  6     ecut=    50.00 Ry     beta= 0.01
     Davidson diagonalization with overlap
     ethr =  5.27E-05,  avg # of iterations =  1.3

     total cpu time spent up to now is       13.7 secs

     total energy              =     -22.09915275 Ry
     estimated scf accuracy    <       0.00328325 Ry

     iteration #  7     ecut=    50.00 Ry     beta= 0.01
     Davidson diagonalization with overlap
     ethr =  4.10E-05,  avg # of iterations =  1.0

     total cpu time spent up to now is       14.2 secs

     total energy              =     -22.09878824 Ry
     estimated scf accuracy    <       0.00144547 Ry

     iteration #  8     ecut=    50.00 Ry     beta= 0.01
     Davidson diagonalization with overlap
     ethr =  1.81E-05,  avg # of iterations =  2.1

     total cpu time spent up to now is       14.7 secs

     total energy              =     -22.09918518 Ry
     estimated scf accuracy    <       0.00034512 Ry

     iteration #  9     ecut=    50.00 Ry     beta= 0.01
     Davidson diagonalization with overlap
     ethr =  4.31E-06,  avg # of iterations =  2.8

     total cpu time spent up to now is       15.3 secs

     total energy              =     -22.09924012 Ry
     estimated scf accuracy    <       0.00086940 Ry

     iteration # 10     ecut=    50.00 Ry     beta= 0.01
     Davidson diagonalization with overlap
     ethr =  4.31E-06,  avg # of iterations =  1.0

     total cpu time spent up to now is       15.8 secs

     total energy              =     -22.09913547 Ry
     estimated scf accuracy    <       0.00076504 Ry

     iteration # 11     ecut=    50.00 Ry     beta= 0.01
     Davidson diagonalization with overlap
     ethr =  4.31E-06,  avg # of iterations =  1.0

     total cpu time spent up to now is       16.2 secs

     total energy              =     -22.09915454 Ry
     estimated scf accuracy    <       0.00001976 Ry

     iteration # 12     ecut=    50.00 Ry     beta= 0.01
     Davidson diagonalization with overlap
     ethr =  2.47E-07,  avg # of iterations =  3.3

     total cpu time spent up to now is       16.8 secs

     total energy              =     -22.09916078 Ry
     estimated scf accuracy    <       0.00001349 Ry

     iteration # 13     ecut=    50.00 Ry     beta= 0.01
     Davidson diagonalization with overlap
     ethr =  1.69E-07,  avg # of iterations =  1.0

     total cpu time spent up to now is       17.3 secs

     total energy              =     -22.09916043 Ry
     estimated scf accuracy    <       0.00001427 Ry

     iteration # 14     ecut=    50.00 Ry     beta= 0.01
     Davidson diagonalization with overlap
     ethr =  1.69E-07,  avg # of iterations =  1.0

     total cpu time spent up to now is       17.7 secs

     total energy              =     -22.09916077 Ry
     estimated scf accuracy    <       0.00001113 Ry

     iteration # 15     ecut=    50.00 Ry     beta= 0.01
     Davidson diagonalization with overlap
     ethr =  1.39E-07,  avg # of iterations =  1.0

     total cpu time spent up to now is       18.1 secs

     total energy              =     -22.09916114 Ry
     estimated scf accuracy    <       0.00000203 Ry

     iteration # 16     ecut=    50.00 Ry     beta= 0.01
     Davidson diagonalization with overlap
     ethr =  2.54E-08,  avg # of iterations =  2.4

     total cpu time spent up to now is       18.7 secs

     End of self-consistent calculation

          k = 0.0000 0.0000 0.0000 (  1639 PWs)   bands (ev):

   -12.1272  -2.3797   0.6168   0.6168

          k =-0.1065 0.1065-0.1065 (  1606 PWs)   bands (ev):

   -12.0098  -2.9064   0.4843   0.4843

          k =-0.2130 0.2130-0.2130 (  1606 PWs)   bands (ev):

   -11.6683  -4.0555   0.1884   0.1884

          k =-0.3195 0.3195-0.3195 (  1615 PWs)   bands (ev):

   -11.1446  -5.3313  -0.1079  -0.1079

          k =-0.4260 0.4260-0.4260 (  1616 PWs)   bands (ev):

   -10.5615  -6.4188  -0.3110  -0.3110

          k = 0.5324-0.5324 0.5324 (  1622 PWs)   bands (ev):

   -10.2581  -6.8985  -0.3823  -0.3823

          k = 0.0000 0.2130 0.0000 (  1599 PWs)   bands (ev):

   -11.9701  -3.0365   0.2722   0.2722

          k =-0.1065 0.3195-0.1065 (  1609 PWs)   bands (ev):

   -11.7016  -3.8973  -0.0757  -0.0542

          k =-0.2130 0.4260-0.2130 (  1607 PWs)   bands (ev):

   -11.2319  -5.0598  -0.5064  -0.3405

          k =-0.3195 0.5324-0.3195 (  1610 PWs)   bands (ev):

   -10.6448  -6.1855  -0.8857  -0.5077

          k = 0.6389-0.4260 0.6389 (  1609 PWs)   bands (ev):

   -10.1913  -6.9037  -1.1192  -0.5266

          k = 0.5324-0.3195 0.5324 (  1616 PWs)   bands (ev):

   -10.3021  -6.7376  -1.1663  -0.3966

          k = 0.4260-0.2130 0.4260 (  1621 PWs)   bands (ev):

   -10.8472  -5.8287  -1.0089  -0.1445

          k = 0.3195-0.1065 0.3195 (  1605 PWs)   bands (ev):

   -11.4100  -4.6643  -0.6411   0.1738

          k = 0.2130 0.0000 0.2130 (  1592 PWs)   bands (ev):

   -11.8169  -3.5741  -0.0884   0.4382

          k = 0.0000 0.4260 0.0000 (  1607 PWs)   bands (ev):

   -11.5063  -4.3383  -0.3977  -0.3977

          k =-0.1065 0.5324-0.1065 (  1612 PWs)   bands (ev):

   -11.0998  -5.2015  -0.8364  -0.6938

          k =-0.2130 0.6389-0.2130 (  1619 PWs)   bands (ev):

   -10.5369  -6.1921  -1.3750  -0.8577

          k = 0.7454-0.3195 0.7454 (  1606 PWs)   bands (ev):

    -9.9882  -6.9994  -1.8015  -0.8595

          k = 0.6389-0.2130 0.6389 (  1596 PWs)   bands (ev):

    -9.8937  -7.1244  -1.9948  -0.7020

          k = 0.5324-0.1065 0.5324 (  1610 PWs)   bands (ev):

   -10.3691  -6.4567  -1.8886  -0.4185

          k = 0.4260 0.0000 0.4260 (  1610 PWs)   bands (ev):

   -10.9522  -5.5250  -1.4337  -0.0821

          k = 0.0000 0.6389 0.0000 (  1620 PWs)   bands (ev):

   -10.7563  -5.7751  -1.0097  -1.0097

          k =-0.1065 0.7454-0.1065 (  1625 PWs)   bands (ev):

   -10.2346  -6.5670  -1.4273  -1.1956

          k = 0.8519-0.2130 0.8519 (  1619 PWs)   bands (ev):

    -9.6418  -7.3333  -1.9762  -1.2128

          k = 0.7454-0.1065 0.7454 (  1621 PWs)   bands (ev):

    -9.3731  -7.6411  -2.3468  -1.0612

          k = 0.6389 0.0000 0.6389 (  1608 PWs)   bands (ev):

    -9.7876  -7.1576  -2.3487  -0.7705

          k = 0.0000 0.8519 0.0000 (  1624 PWs)   bands (ev):

    -9.7546  -7.2039  -1.4136  -1.4136

          k = 0.9584-0.1065 0.9584 (  1623 PWs)   bands (ev):

    -9.1541  -7.9006  -1.7425  -1.4635

          k = 0.8519 0.0000 0.8519 (  1622 PWs)   bands (ev):

    -8.8555  -8.1970  -2.1890  -1.3383

          k = 0.0000-1.0649 0.0000 (  1604 PWs)   bands (ev):

    -8.5506  -8.5506  -1.5520  -1.5520

          k =-0.2130 0.4260 0.0000 (  1613 PWs)   bands (ev):

   -11.3652  -4.7007  -0.7670  -0.1670

          k =-0.3195 0.5324-0.1065 (  1609 PWs)   bands (ev):

   -10.8463  -5.7138  -1.3193  -0.4240

          k = 0.6389-0.4260 0.8519 (  1618 PWs)   bands (ev):

   -10.2601  -6.6614  -1.6505  -0.6561

          k = 0.5324-0.3195 0.7454 (  1608 PWs)   bands (ev):

    -9.9463  -7.1057  -1.7589  -0.7441

          k =-0.2130 0.6389 0.0000 (  1617 PWs)   bands (ev):

   -10.6381  -5.9817  -1.3532  -0.9001

          k = 0.7454-0.3195 0.9584 (  1621 PWs)   bands (ev):

   -10.0517  -6.8268  -1.8362  -1.1055

          k = 0.6389-0.2130 0.8519 (  1613 PWs)   bands (ev):

    -9.5824  -7.4193  -2.1629  -1.1446

          k = 0.5324-0.1065 0.7454 (  1613 PWs)   bands (ev):

    -9.7332  -7.2338  -2.2277  -0.9865

          k = 0.4260 0.0000 0.6389 (  1607 PWs)   bands (ev):

   -10.2997  -6.5013  -1.9521  -0.6967

          k = 0.8519-0.2130 1.0649 (  1621 PWs)   bands (ev):

    -9.6763  -7.2830  -1.6921  -1.4518

          k = 0.7454-0.1065 0.9584 (  1625 PWs)   bands (ev):

    -9.1082  -7.9164  -2.1013  -1.5139

          k = 0.6389 0.0000 0.8519 (  1614 PWs)   bands (ev):

    -9.1703  -7.8390  -2.3645  -1.3221

          k =-0.2130-1.0649 0.0000 (  1624 PWs)   bands (ev):

    -8.5361  -8.5361  -1.7277  -1.7277

          k = 0.6389-0.2130 1.0649 (  1616 PWs)   bands (ev):

    -9.4627  -7.5102  -2.1520  -1.4447

          k = 0.5324-0.1065 0.9584 (  1608 PWs)   bands (ev):

    -9.0780  -7.9274  -2.2454  -1.6074

          k =-0.4260-1.0649 0.0000 (  1626 PWs)   bands (ev):

    -8.5114  -8.5114  -1.9753  -1.9753

     highest occupied level (ev):     0.6168

!    total energy              =     -22.09916162 Ry
     estimated scf accuracy    <       0.00000034 Ry

     The total energy is the sum of the following terms:
     one-electron contribution =      -1.86369965 Ry
     hartree contribution      =       3.47787830 Ry
     xc contribution           =      -5.82765733 Ry
     ewald contribution        =     -17.88568294 Ry

     convergence has been achieved in  16 iterations
     Writing meta-gga kinetic term


     Computing stress (Cartesian axis) and pressure

          total   stress  (Ry/bohr**3)                   (kbar)     P=     -465.60
  -0.00316508  -0.00000000  -0.00000000         -465.60       -0.00       -0.00
  -0.00000000  -0.00316508   0.00000000           -0.00     -465.60        0.00
  -0.00000000   0.00000000  -0.00316508           -0.00        0.00     -465.60

     Energy error            =      1.3E-01 Ry
     Gradient error          =      0.0E+00 Ry/Bohr
     Cell gradient error     =      4.7E+02 kbar

     number of scf cycles    =   2
     number of bfgs steps    =   1

     enthalpy           old  =     -21.9702139612 Ry
     enthalpy           new  =     -22.0991616229 Ry

     CASE: enthalpy          _new < enthalpy          _old


     WARNING: bfgs curvature condition failed, Theta= 0.699
     uphill step: resetting bfgs history

     new trust radius        =       0.2367484384 bohr
     new conv_thr            =       0.0000000100 Ry

     new unit-cell volume =    174.76913 a.u.^3 (    25.89811 Ang^3 )
     density =      1.54025 g/cm^3

CELL_PARAMETERS (alat= 10.26310000)
  -0.432380753   0.000000000   0.432380753
  -0.000000000   0.432380753   0.432380753
  -0.432380753   0.432380753   0.000000000

ATOMIC_POSITIONS (alat)
C             0.0000000000        0.0000000000        0.0000000000    0   0   0
C             0.2161903763        0.2161903763        0.2161903763    0   0   0



     Writing config-only to output data dir ./pwscf.save/
     NEW-OLD atomic charge density approx. for the potential
     extrapolated charge    5.75552, renormalised to    8.00000

     total cpu time spent up to now is       19.1 secs

     Self-consistent Calculation

     iteration #  1     ecut=    50.00 Ry     beta= 0.01
     Davidson diagonalization with overlap
     ethr =  1.00E-06,  avg # of iterations = 13.9

     total cpu time spent up to now is       21.4 secs

     total energy              =     -22.22038942 Ry
     estimated scf accuracy    <       0.48384096 Ry

     iteration #  2     ecut=    50.00 Ry     beta= 0.01
     Davidson diagonalization with overlap
     ethr =  6.05E-03,  avg # of iterations =  2.0

     total cpu time spent up to now is       22.1 secs

     total energy              =     -22.28858835 Ry
     estimated scf accuracy    <       0.16584430 Ry

     iteration #  3     ecut=    50.00 Ry     beta= 0.01
     Davidson diagonalization with overlap
     ethr =  2.07E-03,  avg # of iterations =  1.0

     total cpu time spent up to now is       22.5 secs

     total energy              =     -22.27688635 Ry
     estimated scf accuracy    <       0.14552858 Ry

     iteration #  4     ecut=    50.00 Ry     beta= 0.01
     Davidson diagonalization with overlap
     ethr =  1.82E-03,  avg # of iterations =  1.0

     total cpu time spent up to now is       23.0 secs

     total energy              =     -22.28235413 Ry
     estimated scf accuracy    <       0.08076428 Ry

     iteration #  5     ecut=    50.00 Ry     beta= 0.01
     Davidson diagonalization with overlap
     ethr =  1.01E-03,  avg # of iterations =  1.0

     total cpu time spent up to now is       23.4 secs

     total energy              =     -22.28385773 Ry
     estimated scf accuracy    <       0.00661939 Ry

     iteration #  6     ecut=    50.00 Ry     beta= 0.01
     Davidson diagonalization with overlap
     ethr =  8.27E-05,  avg # of iterations =  1.0

     total cpu time spent up to now is       23.8 secs

     total energy              =     -22.28398339 Ry
     estimated scf accuracy    <       0.00539790 Ry

     iteration #  7     ecut=    50.00 Ry     beta= 0.01
     Davidson diagonalization with overlap
     ethr =  6.75E-05,  avg # of iterations =  1.0

     total cpu time spent up to now is       24.2 secs

     total energy              =     -22.28274793 Ry
     estimated scf accuracy    <       0.00618413 Ry

     iteration #  8     ecut=    50.00 Ry     beta= 0.01
     Davidson diagonalization with overlap
     ethr =  6.75E-05,  avg # of iterations =  2.0

     total cpu time spent up to now is       24.7 secs

     total energy              =     -22.28337032 Ry
     estimated scf accuracy    <       0.00002192 Ry

     iteration #  9     ecut=    50.00 Ry     beta= 0.01
     Davidson diagonalization with overlap
     ethr =  2.74E-07,  avg # of iterations =  5.6

     total cpu time spent up to now is       25.7 secs

     total energy              =     -22.28344146 Ry
     estimated scf accuracy    <       0.00003611 Ry

     iteration # 10     ecut=    50.00 Ry     beta= 0.01
     Davidson diagonalization with overlap
     ethr =  2.74E-07,  avg # of iterations =  1.0

     total cpu time spent up to now is       26.1 secs

     total energy              =     -22.28344831 Ry
     estimated scf accuracy    <       0.00003776 Ry

     iteration # 11     ecut=    50.00 Ry     beta= 0.01
     Davidson diagonalization with overlap
     ethr =  2.74E-07,  avg # of iterations =  1.1

     total cpu time spent up to now is       26.5 secs

     total energy              =     -22.28345010 Ry
     estimated scf accuracy    <       0.00000650 Ry

     iteration # 12     ecut=    50.00 Ry     beta= 0.01
     Davidson diagonalization with overlap
     ethr =  8.12E-08,  avg # of iterations =  1.6

     total cpu time spent up to now is       27.0 secs

     total energy              =     -22.28345069 Ry
     estimated scf accuracy    <       0.00000029 Ry

     iteration # 13     ecut=    50.00 Ry     beta= 0.01
     Davidson diagonalization with overlap
     ethr =  3.66E-09,  avg # of iterations =  3.9

     total cpu time spent up to now is       27.7 secs

     total energy              =     -22.28345089 Ry
     estimated scf accuracy    <       0.00000024 Ry

     iteration # 14     ecut=    50.00 Ry     beta= 0.01
     Davidson diagonalization with overlap
     ethr =  3.01E-09,  avg # of iterations =  1.0

     total cpu time spent up to now is       28.1 secs

     total energy              =     -22.28345092 Ry
     estimated scf accuracy    <       0.00000027 Ry

     iteration # 15     ecut=    50.00 Ry     beta= 0.01
     Davidson diagonalization with overlap
     ethr =  3.01E-09,  avg # of iterations =  1.5

     total cpu time spent up to now is       28.6 secs

     End of self-consistent calculation

          k = 0.0000 0.0000 0.0000 (  1639 PWs)   bands (ev):

   -11.7302   2.0337   2.5195   2.5195

          k =-0.1156 0.1156-0.1156 (  1606 PWs)   bands (ev):

   -11.5802   0.5051   2.3379   2.3379

          k =-0.2313 0.2313-0.2313 (  1606 PWs)   bands (ev):

   -11.1411  -1.4171   1.9454   1.9454

          k =-0.3469 0.3469-0.3469 (  1615 PWs)   bands (ev):

   -10.4563  -3.2737   1.5610   1.5610

          k =-0.4626 0.4626-0.4626 (  1616 PWs)   bands (ev):

    -9.6642  -4.8081   1.3002   1.3002

          k = 0.5782-0.5782 0.5782 (  1622 PWs)   bands (ev):

    -9.2271  -5.4991   1.2092   1.2092

          k = 0.0000 0.2313-0.0000 (  1599 PWs)   bands (ev):

   -11.5298   0.3756   2.0433   2.0433

          k =-0.1156 0.3469-0.1156 (  1609 PWs)   bands (ev):

   -11.1855  -1.0470   1.6111   1.6541

          k =-0.2313 0.4626-0.2313 (  1607 PWs)   bands (ev):

   -10.5758  -2.7846   1.1711   1.2416

          k =-0.3469 0.5782-0.3469 (  1610 PWs)   bands (ev):

    -9.7921  -4.3894   0.7271   1.0315

          k = 0.6938-0.4626 0.6938 (  1609 PWs)   bands (ev):

    -9.1523  -5.4209   0.4350   1.0144

          k = 0.5782-0.3469 0.5782 (  1616 PWs)   bands (ev):

    -9.3125  -5.1794   0.3466   1.1881

          k = 0.4626-0.2313 0.4626 (  1621 PWs)   bands (ev):

   -10.0649  -3.8846   0.4892   1.5201

          k = 0.3469-0.1156 0.3469 (  1605 PWs)   bands (ev):

   -10.8075  -2.2162   0.8840   1.9365

          k = 0.2313 0.0000 0.2313 (  1592 PWs)   bands (ev):

   -11.3331  -0.5881   1.5597   2.2839

          k = 0.0000 0.4626-0.0000 (  1607 PWs)   bands (ev):

   -10.9367  -1.5585   1.1542   1.1542

          k =-0.1156 0.5782-0.1156 (  1612 PWs)   bands (ev):

   -10.4125  -2.7803   0.6174   0.7718

          k =-0.2313 0.6938-0.2313 (  1619 PWs)   bands (ev):

    -9.6719  -4.1779  -0.0338   0.5647

          k = 0.8095-0.3469 0.8095 (  1606 PWs)   bands (ev):

    -8.9182  -5.3262  -0.5634   0.5688

          k = 0.6938-0.2313 0.6938 (  1596 PWs)   bands (ev):

    -8.7774  -5.5136  -0.8337   0.7795

          k = 0.5782-0.1156 0.5782 (  1610 PWs)   bands (ev):

    -9.4365  -4.5666  -0.7529   1.1549

          k = 0.4626 0.0000 0.4626 (  1610 PWs)   bands (ev):

   -10.2116  -3.3040  -0.1999   1.6000

          k = 0.0000 0.6938-0.0000 (  1620 PWs)   bands (ev):

    -9.9739  -3.4897   0.3610   0.3610

          k =-0.1156 0.8095-0.1156 (  1625 PWs)   bands (ev):

    -9.2962  -4.5443  -0.1837   0.1236

          k = 0.9251-0.2313 0.9251 (  1619 PWs)   bands (ev):

    -8.5026  -5.5749  -0.9141   0.1054

          k = 0.8095-0.1156 0.8095 (  1621 PWs)   bands (ev):

    -8.1111  -6.0160  -1.4209   0.3072

          k = 0.6938 0.0000 0.6938 (  1608 PWs)   bands (ev):

    -8.6653  -5.3913  -1.4277   0.6895

          k = 0.0000 0.9251-0.0000 (  1624 PWs)   bands (ev):

    -8.6819  -5.3651  -0.1578  -0.1578

          k = 1.0407-0.1156 1.0407 (  1623 PWs)   bands (ev):

    -7.8954  -6.2716  -0.6064  -0.2209

          k = 0.9251 0.0000 0.9251 (  1622 PWs)   bands (ev):

    -7.4578  -6.6846  -1.2301  -0.0555

          k =-0.0000-1.1564 0.0000 (  1604 PWs)   bands (ev):

    -7.1206  -7.1206  -0.3365  -0.3365

          k =-0.2313 0.4626 0.0000 (  1613 PWs)   bands (ev):

   -10.7523  -2.1543   0.6702   1.5134

          k =-0.3469 0.5782-0.1156 (  1609 PWs)   bands (ev):

   -10.0743  -3.5710  -0.0012   1.1644

          k = 0.6938-0.4626 0.9251 (  1618 PWs)   bands (ev):

    -9.2829  -4.9114  -0.3546   0.8438

          k = 0.5782-0.3469 0.8095 (  1608 PWs)   bands (ev):

    -8.8363  -5.5564  -0.4618   0.7192

          k =-0.2313 0.6938-0.0000 (  1617 PWs)   bands (ev):

    -9.8139  -3.8032  -0.0914   0.5188

          k = 0.8095-0.3469 1.0407 (  1621 PWs)   bands (ev):

    -9.0371  -4.9370  -0.7082   0.2362

          k = 0.6938-0.2313 0.9251 (  1613 PWs)   bands (ev):

    -8.3862  -5.7633  -1.1270   0.1808

          k = 0.5782-0.1156 0.8095 (  1613 PWs)   bands (ev):

    -8.5905  -5.5108  -1.2328   0.3961

          k = 0.4626 0.0000 0.6938 (  1607 PWs)   bands (ev):

    -9.3553  -4.5374  -0.8854   0.7895

          k = 0.9251-0.2313 1.1564 (  1621 PWs)   bands (ev):

    -8.5675  -5.4687  -0.5354  -0.2260

          k = 0.8095-0.1156 1.0407 (  1625 PWs)   bands (ev):

    -7.8034  -6.2963  -1.1045  -0.3076

          k = 0.6938 0.0000 0.9251 (  1614 PWs)   bands (ev):

    -7.8545  -6.2240  -1.4684  -0.0514

          k =-0.2313-1.1564 0.0000 (  1624 PWs)   bands (ev):

    -7.0876  -7.0876  -0.5879  -0.5879

          k = 0.6938-0.2313 1.1564 (  1616 PWs)   bands (ev):

    -8.2592  -5.7772  -1.1660  -0.2295

          k = 0.5782-0.1156 1.0407 (  1608 PWs)   bands (ev):

    -7.7408  -6.3178  -1.2998  -0.4522

          k =-0.4626-1.1564 0.0000 (  1626 PWs)   bands (ev):

    -7.0316  -7.0316  -0.9457  -0.9457

     highest occupied level (ev):     2.5195

!    total energy              =     -22.28345094 Ry
     estimated scf accuracy    <          3.6E-09 Ry

     The total energy is the sum of the following terms:
     one-electron contribution =       0.14151594 Ry
     hartree contribution      =       3.01628863 Ry
     xc contribution           =      -6.01872721 Ry
     ewald contribution        =     -19.42252830 Ry

     convergence has been achieved in  15 iterations
     Writing meta-gga kinetic term


     Computing stress (Cartesian axis) and pressure

          total   stress  (Ry/bohr**3)                   (kbar)     P=     -653.67
  -0.00444359  -0.00000000  -0.00000000         -653.67       -0.00       -0.00
  -0.00000000  -0.00444359   0.00000000           -0.00     -653.67        0.00
  -0.00000000   0.00000000  -0.00444359           -0.00        0.00     -653.67

     Energy error            =      1.8E-01 Ry
     Gradient error          =      0.0E+00 Ry/Bohr
     Cell gradient error     =      6.5E+02 kbar

     number of scf cycles    =   3
     number of bfgs steps    =   2

     enthalpy           old  =     -22.0991616229 Ry
     enthalpy           new  =     -22.2834509417 Ry

     CASE: enthalpy          _new < enthalpy          _old


     WARNING: bfgs curvature condition failed, Theta= 0.672
     uphill step: resetting bfgs history

     new trust radius        =       0.2937218482 bohr
     new conv_thr            =       0.0000000100 Ry

     new unit-cell volume =    122.75481 a.u.^3 (    18.19039 Ang^3 )
     density =      2.19289 g/cm^3

CELL_PARAMETERS (alat= 10.26310000)
  -0.384347694   0.000000000   0.384347694
  -0.000000000   0.384347694   0.384347694
  -0.384347694   0.384347694   0.000000000

ATOMIC_POSITIONS (alat)
C             0.0000000000        0.0000000000        0.0000000000    0   0   0
C             0.1921738470        0.1921738470        0.1921738470    0   0   0



     Writing config-only to output data dir ./pwscf.save/
     NEW-OLD atomic charge density approx. for the potential
     extrapolated charge    4.61023, renormalised to    8.00000

     total cpu time spent up to now is       28.9 secs

     Self-consistent Calculation

     iteration #  1     ecut=    50.00 Ry     beta= 0.01
     Davidson diagonalization with overlap
     ethr =  1.00E-06,  avg # of iterations = 12.6

     total cpu time spent up to now is       31.0 secs

     total energy              =     -22.53478522 Ry
     estimated scf accuracy    <       1.09762661 Ry

     iteration #  2     ecut=    50.00 Ry     beta= 0.01
     Davidson diagonalization with overlap
     ethr =  1.00E-02,  avg # of iterations =  2.0

     total cpu time spent up to now is       31.5 secs

     total energy              =     -22.60569959 Ry
     estimated scf accuracy    <       0.57089481 Ry

     iteration #  3     ecut=    50.00 Ry     beta= 0.01
     Davidson diagonalization with overlap
     ethr =  7.14E-03,  avg # of iterations =  1.0

     total cpu time spent up to now is       32.0 secs

     total energy              =     -22.58124687 Ry
     estimated scf accuracy    <       0.49950653 Ry

     iteration #  4     ecut=    50.00 Ry     beta= 0.01
     Davidson diagonalization with overlap
     ethr =  6.24E-03,  avg # of iterations =  1.0

     total cpu time spent up to now is       32.4 secs

     total energy              =     -22.54594736 Ry
     estimated scf accuracy    <       0.34909325 Ry

     iteration #  5     ecut=    50.00 Ry     beta= 0.01
     Davidson diagonalization with overlap
     ethr =  4.36E-03,  avg # of iterations =  1.0

     total cpu time spent up to now is       32.9 secs

     total energy              =     -22.55367857 Ry
     estimated scf accuracy    <       0.01689748 Ry

     iteration #  6     ecut=    50.00 Ry     beta= 0.01
     Davidson diagonalization with overlap
     ethr =  2.11E-04,  avg # of iterations =  1.0

     total cpu time spent up to now is       33.3 secs

     total energy              =     -22.55596582 Ry
     estimated scf accuracy    <       0.01734788 Ry

     iteration #  7     ecut=    50.00 Ry     beta= 0.01
     Davidson diagonalization with overlap
     ethr =  2.11E-04,  avg # of iterations =  1.0

     total cpu time spent up to now is       33.7 secs

     total energy              =     -22.55328001 Ry
     estimated scf accuracy    <       0.01356914 Ry

     iteration #  8     ecut=    50.00 Ry     beta= 0.01
     Davidson diagonalization with overlap
     ethr =  1.70E-04,  avg # of iterations =  2.0

     total cpu time spent up to now is       34.2 secs

     total energy              =     -22.55477695 Ry
     estimated scf accuracy    <       0.00017256 Ry

     iteration #  9     ecut=    50.00 Ry     beta= 0.01
     Davidson diagonalization with overlap
     ethr =  2.16E-06,  avg # of iterations =  3.9

     total cpu time spent up to now is       35.0 secs

     total energy              =     -22.55487937 Ry
     estimated scf accuracy    <       0.00023051 Ry

     iteration # 10     ecut=    50.00 Ry     beta= 0.01
     Davidson diagonalization with overlap
     ethr =  2.16E-06,  avg # of iterations =  1.0

     total cpu time spent up to now is       35.4 secs

     total energy              =     -22.55500805 Ry
     estimated scf accuracy    <       0.00026150 Ry

     iteration # 11     ecut=    50.00 Ry     beta= 0.01
     Davidson diagonalization with overlap
     ethr =  2.16E-06,  avg # of iterations =  1.7

     total cpu time spent up to now is       35.9 secs

     total energy              =     -22.55503815 Ry
     estimated scf accuracy    <       0.00002128 Ry

     iteration # 12     ecut=    50.00 Ry     beta= 0.01
     Davidson diagonalization with overlap
     ethr =  2.66E-07,  avg # of iterations =  2.2

     total cpu time spent up to now is       36.5 secs

     total energy              =     -22.55504573 Ry
     estimated scf accuracy    <       0.00003572 Ry

     iteration # 13     ecut=    50.00 Ry     beta= 0.01
     Davidson diagonalization with overlap
     ethr =  2.66E-07,  avg # of iterations =  1.0

     total cpu time spent up to now is       36.9 secs

     total energy              =     -22.55504509 Ry
     estimated scf accuracy    <       0.00003222 Ry

     iteration # 14     ecut=    50.00 Ry     beta= 0.01
     Davidson diagonalization with overlap
     ethr =  2.66E-07,  avg # of iterations =  1.0

     total cpu time spent up to now is       37.3 secs

     total energy              =     -22.55504486 Ry
     estimated scf accuracy    <       0.00001501 Ry

     iteration # 15     ecut=    50.00 Ry     beta= 0.01
     Davidson diagonalization with overlap
     ethr =  1.88E-07,  avg # of iterations =  1.0

     total cpu time spent up to now is       37.7 secs

     total energy              =     -22.55504570 Ry
     estimated scf accuracy    <       0.00000011 Ry

     iteration # 16     ecut=    50.00 Ry     beta= 0.01
     Davidson diagonalization with overlap
     ethr =  1.32E-09,  avg # of iterations =  5.3

     total cpu time spent up to now is       38.6 secs

     total energy              =     -22.55570989 Ry
     estimated scf accuracy    <       0.00000034 Ry

     iteration # 17     ecut=    50.00 Ry     beta= 0.01
     Davidson diagonalization with overlap
     ethr =  1.32E-09,  avg # of iterations =  1.0

     total cpu time spent up to now is       39.0 secs

     total energy              =     -22.55570989 Ry
     estimated scf accuracy    <       0.00000041 Ry

     iteration # 18     ecut=    50.00 Ry     beta= 0.01
     Davidson diagonalization with overlap
     ethr =  1.32E-09,  avg # of iterations =  1.0

     total cpu time spent up to now is       39.5 secs

     total energy              =     -22.55570985 Ry
     estimated scf accuracy    <       0.00000032 Ry

     iteration # 19     ecut=    50.00 Ry     beta= 0.01
     Davidson diagonalization with overlap
     ethr =  1.32E-09,  avg # of iterations =  1.4

     total cpu time spent up to now is       39.9 secs

     total energy              =     -22.55570986 Ry
     estimated scf accuracy    <       0.00000012 Ry

     iteration # 20     ecut=    50.00 Ry     beta= 0.01
     Davidson diagonalization with overlap
     ethr =  1.32E-09,  avg # of iterations =  1.0

     total cpu time spent up to now is       40.4 secs

     total energy              =     -22.55570986 Ry
     estimated scf accuracy    <       0.00000016 Ry

     iteration # 21     ecut=    50.00 Ry     beta= 0.01
     Davidson diagonalization with overlap
     ethr =  1.32E-09,  avg # of iterations =  1.0

     total cpu time spent up to now is       40.9 secs

     total energy              =     -22.55570990 Ry
     estimated scf accuracy    <       0.00000018 Ry

     iteration # 22     ecut=    50.00 Ry     beta= 0.01
     Davidson diagonalization with overlap
     ethr =  1.32E-09,  avg # of iterations =  1.0

     total cpu time spent up to now is       41.3 secs

     total energy              =     -22.55570990 Ry
     estimated scf accuracy    <       0.00000004 Ry

     iteration # 23     ecut=    50.00 Ry     beta= 0.01
     Davidson diagonalization with overlap
     ethr =  5.51E-10,  avg # of iterations =  1.0

     total cpu time spent up to now is       41.7 secs

     End of self-consistent calculation

          k = 0.0000 0.0000 0.0000 (  1639 PWs)   bands (ev):

   -10.9006   6.1632   6.1632   6.1632

          k =-0.1301 0.1301-0.1301 (  1606 PWs)   bands (ev):

   -10.6971   4.7800   5.8914   5.8914

          k =-0.2602 0.2602-0.2602 (  1606 PWs)   bands (ev):

   -10.0962   2.2796   5.3228   5.3228

          k =-0.3903 0.3903-0.3903 (  1615 PWs)   bands (ev):

    -9.1361  -0.2662   4.7818   4.7818

          k =-0.5204 0.5204-0.5204 (  1616 PWs)   bands (ev):

    -7.9560  -2.4590   4.4210   4.4210

          k = 0.6505-0.6505 0.6505 (  1622 PWs)   bands (ev):

    -7.2191  -3.5421   4.2962   4.2962

          k = 0.0000 0.2602-0.0000 (  1599 PWs)   bands (ev):

   -10.6291   5.0269   5.4351   5.4351

          k =-0.1301 0.3903-0.1301 (  1609 PWs)   bands (ev):

   -10.1596   3.0300   4.8071   5.0754

          k =-0.2602 0.5204-0.2602 (  1607 PWs)   bands (ev):

    -9.3142   0.5726   4.2907   4.4790

          k =-0.3903 0.6505-0.3903 (  1610 PWs)   bands (ev):

    -8.1800  -1.7224   3.8896   4.0096

          k = 0.7805-0.5204 0.7805 (  1609 PWs)   bands (ev):

    -7.1505  -3.3022   3.4762   4.0017

          k = 0.6505-0.3903 0.6505 (  1616 PWs)   bands (ev):

    -7.4236  -2.9150   3.3135   4.2592

          k = 0.5204-0.2602 0.5204 (  1621 PWs)   bands (ev):

    -8.5814  -0.9913   3.4382   4.7374

          k = 0.3903-0.1301 0.3903 (  1605 PWs)   bands (ev):

    -9.6364   1.3811   3.8738   5.3352

          k = 0.2602 0.0000 0.2602 (  1592 PWs)   bands (ev):

   -10.3607   3.5945   4.7263   5.8341

          k = 0.0000 0.5204-0.0000 (  1607 PWs)   bands (ev):

    -9.8232   2.8098   4.1401   4.1401

          k =-0.1301 0.6505-0.1301 (  1612 PWs)   bands (ev):

    -9.1030   1.0659   3.5066   3.6017

          k =-0.2602 0.7805-0.2602 (  1619 PWs)   bands (ev):

    -8.0552  -0.9961   2.7073   3.3214

          k = 0.9106-0.3903 0.9106 (  1606 PWs)   bands (ev):

    -6.9052  -2.7544   2.0095   3.3420

          k = 0.7805-0.2602 0.7805 (  1596 PWs)   bands (ev):

    -6.6556  -3.0748   1.5914   3.6545

          k = 0.6505-0.1301 0.6505 (  1610 PWs)   bands (ev):

    -7.6897  -1.5890   1.5727   4.2010

          k = 0.5204 0.0000 0.5204 (  1610 PWs)   bands (ev):

    -8.8063   0.1993   2.2280   4.8490

          k = 0.0000 0.7805-0.0000 (  1620 PWs)   bands (ev):

    -8.5093   0.3303   3.0175   3.0175

          k =-0.1301 0.9106-0.1301 (  1625 PWs)   bands (ev):

    -7.5691  -1.1092   2.2510   2.6889

          k = 1.0407-0.2602 1.0407 (  1619 PWs)   bands (ev):

    -6.4126  -2.5777   1.1961   2.6724

          k = 0.9106-0.1301 0.9106 (  1621 PWs)   bands (ev):

    -5.7468  -3.2956   0.4324   2.9679

          k = 0.7805 0.0000 0.7805 (  1608 PWs)   bands (ev):

    -6.5731  -2.4254   0.4044   3.5218

          k = 0.0000 1.0407-0.0000 (  1624 PWs)   bands (ev):

    -6.7380  -2.1871   2.2928   2.2928

          k = 1.1708-0.1301 1.1708 (  1623 PWs)   bands (ev):

    -5.6348  -3.4119   1.6129   2.2080

          k = 1.0407 0.0000 1.0407 (  1622 PWs)   bands (ev):

    -4.8910  -4.0455   0.6314   2.4467

          k =-0.0000-1.3009 0.0000 (  1604 PWs)   bands (ev):

    -4.5911  -4.5911   2.0443   2.0443

          k =-0.2602 0.5204 0.0000 (  1613 PWs)   bands (ev):

    -9.5653   1.7494   3.4564   4.7940

          k =-0.3903 0.6505-0.1301 (  1609 PWs)   bands (ev):

    -8.6160  -0.2431   2.6409   4.2598

          k = 0.7805-0.5204 1.0407 (  1618 PWs)   bands (ev):

    -7.4465  -2.2435   2.3088   3.7559

          k = 0.6505-0.3903 0.9106 (  1608 PWs)   bands (ev):

    -6.7086  -3.2806   2.2245   3.5523

          k =-0.2602 0.7805-0.0000 (  1617 PWs)   bands (ev):

    -8.2744  -0.2005   2.3775   3.2863

          k = 0.9106-0.3903 1.1708 (  1621 PWs)   bands (ev):

    -7.1619  -1.7892   1.5661   2.8381

          k = 0.7805-0.2602 1.0407 (  1613 PWs)   bands (ev):

    -6.1426  -3.0763   1.0169   2.7480

          k = 0.6505-0.1301 0.9106 (  1613 PWs)   bands (ev):

    -6.4557  -2.6843   0.8044   3.0798

          k = 0.5204 0.0000 0.7805 (  1607 PWs)   bands (ev):

    -7.5966  -1.2941   1.2350   3.6777

          k = 1.0407-0.2602 1.3009 (  1621 PWs)   bands (ev):

    -6.5506  -2.3164   1.7361   2.1511

          k = 0.9106-0.1301 1.1708 (  1625 PWs)   bands (ev):

    -5.4226  -3.4461   0.8428   2.0386

          k = 0.7805 0.0000 1.0407 (  1614 PWs)   bands (ev):

    -5.4084  -3.4218   0.2786   2.4202

          k =-0.2602-1.3009 0.0000 (  1624 PWs)   bands (ev):

    -4.5052  -4.5052   1.6380   1.6380

          k = 0.7805-0.2602 1.3009 (  1616 PWs)   bands (ev):

    -6.0451  -2.7590   0.7795   2.1220

          k = 0.6505-0.1301 1.1708 (  1608 PWs)   bands (ev):

    -5.2641  -3.5035   0.5627   1.7806

          k =-0.5204-1.3009 0.0000 (  1626 PWs)   bands (ev):

    -4.3530  -4.3530   1.0476   1.0476

     highest occupied level (ev):     6.1632

!    total energy              =     -22.55570990 Ry
     estimated scf accuracy    <          4.1E-09 Ry

     The total energy is the sum of the following terms:
     one-electron contribution =       3.20954323 Ry
     hartree contribution      =       2.48191414 Ry
     xc contribution           =      -6.39734865 Ry
     ewald contribution        =     -21.84981862 Ry

     convergence has been achieved in  23 iterations
     Writing meta-gga kinetic term


     Computing stress (Cartesian axis) and pressure

          total   stress  (Ry/bohr**3)                   (kbar)     P=     -852.56
  -0.00579559  -0.00000000   0.00000000         -852.56       -0.00        0.00
  -0.00000000  -0.00579559  -0.00000000           -0.00     -852.56       -0.00
  -0.00000000   0.00000000  -0.00579559           -0.00        0.00     -852.56

     Energy error            =      2.7E-01 Ry
     Gradient error          =      0.0E+00 Ry/Bohr
     Cell gradient error     =      8.5E+02 kbar

     number of scf cycles    =   4
     number of bfgs steps    =   3

     enthalpy           old  =     -22.2834509417 Ry
     enthalpy           new  =     -22.5557099039 Ry

     CASE: enthalpy          _new < enthalpy          _old


     WARNING: bfgs curvature condition failed, Theta= 0.776
     new trust radius        =       0.4153904185 bohr
     new conv_thr            =       0.0000000100 Ry

     new unit-cell volume =     65.85272 a.u.^3 (     9.75837 Ang^3 )
     density =      4.08772 g/cm^3

CELL_PARAMETERS (alat= 10.26310000)
  -0.312298106   0.000000000   0.312298106
  -0.000000000   0.312298106   0.312298106
  -0.312298106   0.312298106   0.000000000

ATOMIC_POSITIONS (alat)
C             0.0000000000        0.0000000000        0.0000000000    0   0   0
C             0.1561490531        0.1561490531        0.1561490531    0   0   0



     Writing config-only to output data dir ./pwscf.save/
     NEW-OLD atomic charge density approx. for the potential

     negative rho (up,down):  5.955E-01 0.000E+00
     extrapolated charge    1.08741, renormalised to    8.00000

     total cpu time spent up to now is       42.1 secs

     Self-consistent Calculation

     iteration #  1     ecut=    50.00 Ry     beta= 0.01
     Davidson diagonalization with overlap
     ethr =  1.00E-06,  avg # of iterations = 10.2

     negative rho (up,down):  4.342E+00 0.000E+00

     total cpu time spent up to now is       43.9 secs

     total energy              =     -33.01310278 Ry
     estimated scf accuracy    <      15.48805001 Ry

     iteration #  2     ecut=    50.00 Ry     beta= 0.01
     Davidson diagonalization with overlap
     ethr =  1.00E-02,  avg # of iterations =  3.9

     negative rho (up,down):  4.379E+00 0.000E+00

     total cpu time spent up to now is       44.7 secs

     total energy              =     -40.03648973 Ry
     estimated scf accuracy    <      27.89039618 Ry

     iteration #  3     ecut=    50.00 Ry     beta= 0.01
     Davidson diagonalization with overlap
     ethr =  1.00E-02,  avg # of iterations =  3.0

     negative rho (up,down):  4.469E+00 0.000E+00

     total cpu time spent up to now is       45.4 secs

     total energy              =     -38.74336572 Ry
     estimated scf accuracy    <      33.47622251 Ry

     iteration #  4     ecut=    50.00 Ry     beta= 0.01
     Davidson diagonalization with overlap
     ethr =  1.00E-02,  avg # of iterations =  2.0

     negative rho (up,down):  4.484E+00 0.000E+00

     total cpu time spent up to now is       46.0 secs

     total energy              =     -31.03091024 Ry
     estimated scf accuracy    <      34.83076017 Ry

     iteration #  5     ecut=    50.00 Ry     beta= 0.01
     Davidson diagonalization with overlap
     c_bands:  1 eigenvalues not converged
     c_bands:  1 eigenvalues not converged
     c_bands:  1 eigenvalues not converged
     c_bands:  1 eigenvalues not converged
     c_bands:  1 eigenvalues not converged
     c_bands:  1 eigenvalues not converged
     c_bands:  2 eigenvalues not converged
     c_bands:  1 eigenvalues not converged
     c_bands:  1 eigenvalues not converged
     c_bands:  3 eigenvalues not converged
     c_bands:  2 eigenvalues not converged
     c_bands:  1 eigenvalues not converged
     c_bands:  2 eigenvalues not converged
     ethr =  1.00E-02,  avg # of iterations = 18.0

     negative rho (up,down):  4.495E+00 0.000E+00

     total cpu time spent up to now is       49.0 secs

     total energy              =      17.71939042 Ry
     estimated scf accuracy    <    1571.41624662 Ry

     iteration #  6     ecut=    50.00 Ry     beta= 0.01
     Davidson diagonalization with overlap
     ethr =  1.00E-02,  avg # of iterations =  7.3

     negative rho (up,down):  4.502E+00 0.000E+00

     total cpu time spent up to now is       50.5 secs

     total energy              =     -34.53793494 Ry
     estimated scf accuracy    <      32.02648901 Ry

     iteration #  7     ecut=    50.00 Ry     beta= 0.01
     Davidson diagonalization with overlap
     c_bands:  3 eigenvalues not converged
     c_bands:  3 eigenvalues not converged
     c_bands:  4 eigenvalues not converged
     c_bands:  4 eigenvalues not converged
     c_bands:  4 eigenvalues not converged
     c_bands:  3 eigenvalues not converged
     c_bands:  4 eigenvalues not converged
     c_bands:  4 eigenvalues not converged
     c_bands:  4 eigenvalues not converged
     c_bands:  4 eigenvalues not converged
     c_bands:  4 eigenvalues not converged
     c_bands:  4 eigenvalues not converged
     c_bands:  4 eigenvalues not converged
     c_bands:  4 eigenvalues not converged
     c_bands:  4 eigenvalues not converged
     c_bands:  3 eigenvalues not converged
     c_bands:  4 eigenvalues not converged
     c_bands:  4 eigenvalues not converged
     c_bands:  4 eigenvalues not converged
     c_bands:  4 eigenvalues not converged
     c_bands:  4 eigenvalues not converged
     c_bands:  4 eigenvalues not converged
     c_bands:  4 eigenvalues not converged
     c_bands:  4 eigenvalues not converged
     c_bands:  4 eigenvalues not converged
     c_bands:  4 eigenvalues not converged
     c_bands:  4 eigenvalues not converged
     c_bands:  3 eigenvalues not converged
     c_bands:  4 eigenvalues not converged
     c_bands:  4 eigenvalues not converged
     c_bands:  2 eigenvalues not converged
     c_bands:  4 eigenvalues not converged
     c_bands:  4 eigenvalues not converged
     c_bands:  4 eigenvalues not converged
     c_bands:  4 eigenvalues not converged
     c_bands:  4 eigenvalues not converged
     c_bands:  4 eigenvalues not converged
     c_bands:  4 eigenvalues not converged
     c_bands:  4 eigenvalues not converged
     c_bands:  4 eigenvalues not converged
     c_bands:  4 eigenvalues not converged
     c_bands:  4 eigenvalues not converged
     c_bands:  4 eigenvalues not converged
     c_bands:  4 eigenvalues not converged
     c_bands:  4 eigenvalues not converged
     c_bands:  4 eigenvalues not converged
     c_bands:  4 eigenvalues not converged
     ethr =  1.00E-02,  avg # of iterations = 20.0

     negative rho (up,down):  4.559E+00 0.000E+00

     total cpu time spent up to now is       55.0 secs

     total energy              =     256.19961381 Ry
     estimated scf accuracy    <    3753.23727287 Ry

     iteration #  8     ecut=    50.00 Ry     beta= 0.01
     Davidson diagonalization with overlap
     ethr =  1.00E-02,  avg # of iterations =  8.1

     negative rho (up,down):  3.734E+00 0.000E+00

     total cpu time spent up to now is       56.4 secs

     total energy              =     -35.57396854 Ry
     estimated scf accuracy    <      33.94333422 Ry

     iteration #  9     ecut=    50.00 Ry     beta= 0.01
     Davidson diagonalization with overlap
     ethr =  1.00E-02,  avg # of iterations =  2.0

     negative rho (up,down):  6.853E-01 0.000E+00

     total cpu time spent up to now is       57.0 secs

     total energy              =      -2.92294991 Ry
     estimated scf accuracy    <      26.88660818 Ry

     iteration # 10     ecut=    50.00 Ry     beta= 0.01
     Davidson diagonalization with overlap
     ethr =  1.00E-02,  avg # of iterations = 14.3

     negative rho (up,down):  5.750E-01 0.000E+00

     total cpu time spent up to now is       58.9 secs

     total energy              =     195.51266118 Ry
     estimated scf accuracy    <    5983.04067123 Ry

     iteration # 11     ecut=    50.00 Ry     beta= 0.01
     Davidson diagonalization with overlap
     ethr =  1.00E-02,  avg # of iterations =  6.1

     negative rho (up,down):  3.300E-01 0.000E+00

     total cpu time spent up to now is       60.0 secs

     total energy              =      -1.41620589 Ry
     estimated scf accuracy    <       4.36537430 Ry

     iteration # 12     ecut=    50.00 Ry     beta= 0.01
     Davidson diagonalization with overlap
     c_bands:  1 eigenvalues not converged
     ethr =  1.00E-02,  avg # of iterations = 14.1

     negative rho (up,down):  3.833E-01 0.000E+00

     total cpu time spent up to now is       62.2 secs

     total energy              =     273.22356101 Ry
     estimated scf accuracy    <   12485.66112989 Ry

     iteration # 13     ecut=    50.00 Ry     beta= 0.01
     Davidson diagonalization with overlap
     ethr =  1.00E-02,  avg # of iterations =  6.0

     negative rho (up,down):  5.547E-01 0.000E+00

     total cpu time spent up to now is       63.3 secs

     total energy              =     -15.41515813 Ry
     estimated scf accuracy    <       4.81440380 Ry

     iteration # 14     ecut=    50.00 Ry     beta= 0.01
     Davidson diagonalization with overlap
     ethr =  1.00E-02,  avg # of iterations =  3.0

     negative rho (up,down):  5.528E-01 0.000E+00

     total cpu time spent up to now is       64.0 secs

     total energy              =     -16.28571731 Ry
     estimated scf accuracy    <       5.07050163 Ry

     iteration # 15     ecut=    50.00 Ry     beta= 0.01
     Davidson diagonalization with overlap
     ethr =  1.00E-02,  avg # of iterations =  1.0

     negative rho (up,down):  5.482E-01 0.000E+00

     total cpu time spent up to now is       64.5 secs

     total energy              =     -15.75327895 Ry
     estimated scf accuracy    <       5.06105351 Ry

     iteration # 16     ecut=    50.00 Ry     beta= 0.01
     Davidson diagonalization with overlap
     ethr =  1.00E-02,  avg # of iterations =  2.0

     negative rho (up,down):  9.058E-01 0.000E+00

     total cpu time spent up to now is       65.0 secs

     total energy              =     -18.16549322 Ry
     estimated scf accuracy    <       4.27292424 Ry

     iteration # 17     ecut=    50.00 Ry     beta= 0.01
     Davidson diagonalization with overlap
     ethr =  1.00E-02,  avg # of iterations =  3.0

     negative rho (up,down):  6.499E-01 0.000E+00

     total cpu time spent up to now is       65.8 secs

     total energy              =     -16.82340857 Ry
     estimated scf accuracy    <       3.86555755 Ry

     iteration # 18     ecut=    50.00 Ry     beta= 0.01
     Davidson diagonalization with overlap
     ethr =  1.00E-02,  avg # of iterations =  4.0

     negative rho (up,down):  7.571E-01 0.000E+00

     total cpu time spent up to now is       66.7 secs

     total energy              =     -18.35937734 Ry
     estimated scf accuracy    <       3.91848941 Ry

     iteration # 19     ecut=    50.00 Ry     beta= 0.01
     Davidson diagonalization with overlap
     ethr =  1.00E-02,  avg # of iterations =  3.0

     negative rho (up,down):  4.421E-01 0.000E+00

     total cpu time spent up to now is       67.4 secs

     total energy              =     -13.75858934 Ry
     estimated scf accuracy    <       3.71958080 Ry

     iteration # 20     ecut=    50.00 Ry     beta= 0.01
     Davidson diagonalization with overlap
     ethr =  1.00E-02,  avg # of iterations =  5.0

     negative rho (up,down):  3.583E-01 0.000E+00

     total cpu time spent up to now is       68.5 secs

     total energy              =      -9.70549083 Ry
     estimated scf accuracy    <      14.07808823 Ry

     iteration # 21     ecut=    50.00 Ry     beta= 0.01
     Davidson diagonalization with overlap
     ethr =  1.00E-02,  avg # of iterations =  3.2

     negative rho (up,down):  3.755E-02 0.000E+00

     total cpu time spent up to now is       69.2 secs

     total energy              =     -19.09404710 Ry
     estimated scf accuracy    <       3.42974579 Ry

     iteration # 22     ecut=    50.00 Ry     beta= 0.01
     Davidson diagonalization with overlap
     ethr =  1.00E-02,  avg # of iterations =  2.0

     negative rho (up,down):  1.243E-03 0.000E+00

     total cpu time spent up to now is       69.8 secs

     total energy              =     -21.81520135 Ry
     estimated scf accuracy    <       1.47198429 Ry

     iteration # 23     ecut=    50.00 Ry     beta= 0.01
     Davidson diagonalization with overlap
     ethr =  1.00E-02,  avg # of iterations =  2.3

     negative rho (up,down):  2.711E-04 0.000E+00

     total cpu time spent up to now is       70.5 secs

     total energy              =     -22.50240520 Ry
     estimated scf accuracy    <       0.69821389 Ry

     iteration # 24     ecut=    50.00 Ry     beta= 0.01
     Davidson diagonalization with overlap
     ethr =  8.73E-03,  avg # of iterations =  1.0

     negative rho (up,down):  8.060E-05 0.000E+00

     total cpu time spent up to now is       70.9 secs

     total energy              =     -21.99154942 Ry
     estimated scf accuracy    <       0.72446466 Ry

     iteration # 25     ecut=    50.00 Ry     beta= 0.01
     Davidson diagonalization with overlap
     ethr =  8.73E-03,  avg # of iterations =  2.0

     negative rho (up,down):  4.205E-05 0.000E+00

     total cpu time spent up to now is       71.5 secs

     total energy              =     -22.46463104 Ry
     estimated scf accuracy    <       0.78966653 Ry

     iteration # 26     ecut=    50.00 Ry     beta= 0.01
     Davidson diagonalization with overlap
     ethr =  8.73E-03,  avg # of iterations =  2.0

     negative rho (up,down):  6.416E-04 0.000E+00

     total cpu time spent up to now is       72.0 secs

     total energy              =     -22.60369187 Ry
     estimated scf accuracy    <       0.74871044 Ry

     iteration # 27     ecut=    50.00 Ry     beta= 0.01
     Davidson diagonalization with overlap
     ethr =  8.73E-03,  avg # of iterations =  1.0

     total cpu time spent up to now is       72.5 secs

     total energy              =     -22.61973472 Ry
     estimated scf accuracy    <       0.69064593 Ry

     iteration # 28     ecut=    50.00 Ry     beta= 0.01
     Davidson diagonalization with overlap
     ethr =  8.63E-03,  avg # of iterations =  1.0

     total cpu time spent up to now is       73.0 secs

     total energy              =     -22.64050935 Ry
     estimated scf accuracy    <       0.42712658 Ry

     iteration # 29     ecut=    50.00 Ry     beta= 0.01
     Davidson diagonalization with overlap
     ethr =  5.34E-03,  avg # of iterations =  1.0

     total cpu time spent up to now is       73.4 secs

     total energy              =     -22.65560227 Ry
     estimated scf accuracy    <       0.45141072 Ry

     iteration # 30     ecut=    50.00 Ry     beta= 0.01
     Davidson diagonalization with overlap
     ethr =  5.34E-03,  avg # of iterations =  1.0

     total cpu time spent up to now is       73.9 secs

     total energy              =     -22.66010943 Ry
     estimated scf accuracy    <       0.48055337 Ry

     iteration # 31     ecut=    50.00 Ry     beta= 0.01
     Davidson diagonalization with overlap
     ethr =  5.34E-03,  avg # of iterations =  1.0

     total cpu time spent up to now is       74.4 secs

     total energy              =     -22.62508784 Ry
     estimated scf accuracy    <       0.60677347 Ry

     iteration # 32     ecut=    50.00 Ry     beta= 0.01
     Davidson diagonalization with overlap
     ethr =  5.34E-03,  avg # of iterations =  1.0

     total cpu time spent up to now is       74.9 secs

     total energy              =     -22.67624923 Ry
     estimated scf accuracy    <       0.45311410 Ry

     iteration # 33     ecut=    50.00 Ry     beta= 0.01
     Davidson diagonalization with overlap
     ethr =  5.34E-03,  avg # of iterations =  1.0

     total cpu time spent up to now is       75.5 secs

     total energy              =     -22.68112928 Ry
     estimated scf accuracy    <       0.10577143 Ry

     iteration # 34     ecut=    50.00 Ry     beta= 0.01
     Davidson diagonalization with overlap
     ethr =  1.32E-03,  avg # of iterations =  1.0

     total cpu time spent up to now is       76.0 secs

     total energy              =     -22.68210723 Ry
     estimated scf accuracy    <       0.11247947 Ry

     iteration # 35     ecut=    50.00 Ry     beta= 0.01
     Davidson diagonalization with overlap
     ethr =  1.32E-03,  avg # of iterations =  1.0

     total cpu time spent up to now is       76.4 secs

     total energy              =     -22.73366954 Ry
     estimated scf accuracy    <       0.09433364 Ry

     iteration # 36     ecut=    50.00 Ry     beta= 0.01
     Davidson diagonalization with overlap
     ethr =  1.18E-03,  avg # of iterations =  1.0

     total cpu time spent up to now is       76.8 secs

     total energy              =     -22.73415429 Ry
     estimated scf accuracy    <       0.01366577 Ry

     iteration # 37     ecut=    50.00 Ry     beta= 0.01
     Davidson diagonalization with overlap
     ethr =  1.71E-04,  avg # of iterations =  1.0

     total cpu time spent up to now is       77.3 secs

     total energy              =     -22.73560426 Ry
     estimated scf accuracy    <       0.01282796 Ry

     iteration # 38     ecut=    50.00 Ry     beta= 0.01
     Davidson diagonalization with overlap
     ethr =  1.60E-04,  avg # of iterations =  1.0

     total cpu time spent up to now is       77.8 secs

     total energy              =     -22.73611543 Ry
     estimated scf accuracy    <       0.00334276 Ry

     iteration # 39     ecut=    50.00 Ry     beta= 0.01
     Davidson diagonalization with overlap
     ethr =  4.18E-05,  avg # of iterations =  1.0

     total cpu time spent up to now is       78.3 secs

     total energy              =     -22.73624909 Ry
     estimated scf accuracy    <       0.00026983 Ry

     iteration # 40     ecut=    50.00 Ry     beta= 0.01
     Davidson diagonalization with overlap
     ethr =  3.37E-06,  avg # of iterations =  1.0

     total cpu time spent up to now is       78.8 secs

     total energy              =     -22.73621317 Ry
     estimated scf accuracy    <       0.00028429 Ry

     iteration # 41     ecut=    50.00 Ry     beta= 0.01
     Davidson diagonalization with overlap
     ethr =  3.37E-06,  avg # of iterations =  1.0

     total cpu time spent up to now is       79.2 secs

     total energy              =     -22.73625501 Ry
     estimated scf accuracy    <       0.00032106 Ry

     iteration # 42     ecut=    50.00 Ry     beta= 0.01
     Davidson diagonalization with overlap
     ethr =  3.37E-06,  avg # of iterations =  1.0

     total cpu time spent up to now is       79.7 secs

     total energy              =     -22.73629619 Ry
     estimated scf accuracy    <       0.00026299 Ry

     iteration # 43     ecut=    50.00 Ry     beta= 0.01
     Davidson diagonalization with overlap
     ethr =  3.29E-06,  avg # of iterations =  1.0

     total cpu time spent up to now is       80.1 secs

     total energy              =     -22.73632397 Ry
     estimated scf accuracy    <       0.00020458 Ry

     iteration # 44     ecut=    50.00 Ry     beta= 0.01
     Davidson diagonalization with overlap
     ethr =  2.56E-06,  avg # of iterations =  1.0

     total cpu time spent up to now is       80.5 secs

     total energy              =     -22.73632977 Ry
     estimated scf accuracy    <       0.00000777 Ry

     iteration # 45     ecut=    50.00 Ry     beta= 0.01
     Davidson diagonalization with overlap
     ethr =  9.71E-08,  avg # of iterations =  1.1

     total cpu time spent up to now is       81.0 secs

     total energy              =     -22.73633065 Ry
     estimated scf accuracy    <       0.00000722 Ry

     iteration # 46     ecut=    50.00 Ry     beta= 0.01
     Davidson diagonalization with overlap
     ethr =  9.02E-08,  avg # of iterations =  1.0

     total cpu time spent up to now is       81.4 secs

     total energy              =     -22.73633126 Ry
     estimated scf accuracy    <       0.00000486 Ry

     iteration # 47     ecut=    50.00 Ry     beta= 0.01
     Davidson diagonalization with overlap
     ethr =  6.07E-08,  avg # of iterations =  1.0

     total cpu time spent up to now is       81.8 secs

     total energy              =     -22.73633139 Ry
     estimated scf accuracy    <       0.00000308 Ry

     iteration # 48     ecut=    50.00 Ry     beta= 0.01
     Davidson diagonalization with overlap
     ethr =  3.85E-08,  avg # of iterations =  1.0

     total cpu time spent up to now is       82.3 secs

     total energy              =     -22.73633143 Ry
     estimated scf accuracy    <       0.00000265 Ry

     iteration # 49     ecut=    50.00 Ry     beta= 0.01
     Davidson diagonalization with overlap
     ethr =  3.31E-08,  avg # of iterations =  1.0

     total cpu time spent up to now is       82.7 secs

     total energy              =     -22.73633147 Ry
     estimated scf accuracy    <       0.00000262 Ry

     iteration # 50     ecut=    50.00 Ry     beta= 0.01
     Davidson diagonalization with overlap
     ethr =  3.27E-08,  avg # of iterations =  1.0

     total cpu time spent up to now is       83.1 secs

     total energy              =     -22.73633145 Ry
     estimated scf accuracy    <       0.00000250 Ry

     iteration # 51     ecut=    50.00 Ry     beta= 0.01
     Davidson diagonalization with overlap
     ethr =  3.12E-08,  avg # of iterations =  1.0

     total cpu time spent up to now is       83.5 secs

     total energy              =     -22.73633138 Ry
     estimated scf accuracy    <       0.00000228 Ry

     iteration # 52     ecut=    50.00 Ry     beta= 0.01
     Davidson diagonalization with overlap
     ethr =  2.85E-08,  avg # of iterations =  1.0

     total cpu time spent up to now is       84.0 secs

     total energy              =     -22.73633149 Ry
     estimated scf accuracy    <       0.00000226 Ry

     iteration # 53     ecut=    50.00 Ry     beta= 0.01
     Davidson diagonalization with overlap
     ethr =  2.83E-08,  avg # of iterations =  1.0

     total cpu time spent up to now is       84.4 secs

     total energy              =     -22.73633145 Ry
     estimated scf accuracy    <       0.00000226 Ry

     iteration # 54     ecut=    50.00 Ry     beta= 0.01
     Davidson diagonalization with overlap
     ethr =  2.83E-08,  avg # of iterations =  1.0

     total cpu time spent up to now is       84.9 secs

     total energy              =     -22.73633298 Ry
     estimated scf accuracy    <       0.00000220 Ry

     iteration # 55     ecut=    50.00 Ry     beta= 0.01
     Davidson diagonalization with overlap
     ethr =  2.75E-08,  avg # of iterations =  1.0

     total cpu time spent up to now is       85.3 secs

     total energy              =     -22.73633318 Ry
     estimated scf accuracy    <       0.00000057 Ry

     iteration # 56     ecut=    50.00 Ry     beta= 0.01
     Davidson diagonalization with overlap
     ethr =  7.12E-09,  avg # of iterations =  1.0

     total cpu time spent up to now is       85.8 secs

     total energy              =     -22.73633320 Ry
     estimated scf accuracy    <       0.00000038 Ry

     iteration # 57     ecut=    50.00 Ry     beta= 0.01
     Davidson diagonalization with overlap
     ethr =  4.75E-09,  avg # of iterations =  1.0

     total cpu time spent up to now is       86.2 secs

[...]
     The G-vectors are recalculated for the final unit cell
     Results may differ from those at the preceding step.
 
     Parallelization info
     --------------------
     sticks:   dense  smooth     PW     G-vecs:    dense   smooth      PW
     Min          39      39     13                  461      461      90
     Max          40      40     14                  463      463      91
     Sum         313     313    109                 3695     3695     725
 
     Using Slab Decomposition
 


     bravais-lattice index     =            2
     lattice parameter (alat)  =      10.2631  a.u.
     unit-cell volume          =      75.6740 (a.u.)^3
     number of atoms/cell      =            2
     number of atomic types    =            1
     number of electrons       =         8.00
     number of Kohn-Sham states=            4
     kinetic-energy cutoff     =      50.0000  Ry
     charge density cutoff     =     200.0000  Ry
     scf convergence threshold =      1.0E-08
     mixing beta               =       0.0100
     number of iterations used =            8  local-TF  mixing
     press convergence thresh. =      5.0E-01
     Exchange-correlation= SLA  PW   SCAN SCAN
                           (   0   0   0   0   0 263 267)

     celldm(1)=  10.263100  celldm(2)=   0.000000  celldm(3)=   0.000000
     celldm(4)=   0.000000  celldm(5)=   0.000000  celldm(6)=   0.000000

     crystal axes: (cart. coord. in units of alat)
               a(1) = (  -0.327110   0.000000   0.327110 )  
               a(2) = (  -0.000000   0.327110   0.327110 )  
               a(3) = (  -0.327110   0.327110   0.000000 )  

     reciprocal axes: (cart. coord. in units 2 pi/alat)
               b(1) = ( -1.528539 -1.528539  1.528539 )  
               b(2) = (  1.528539  1.528539  1.528539 )  
               b(3) = ( -1.528539  1.528539 -1.528539 )  


     PseudoPot. # 1 for C  read from file:
     ~/Documents/PWDFT.jl/pseudopotentials/scan_upf/C.SCAN.UPF
     MD5 check sum: Not computed, couldn't open file
     Pseudo is Norm-conserving, Zval =  4.0
     Generated by new atomic code, or converted to UPF format
     Using radial grid of 1389 points,  1 beta functions with: 
                l(1) =   0

     atomic species   valence    mass     pseudopotential
        C              4.00    12.01100     C ( 1.00)

     48 Sym. Ops., with inversion, found (24 have fractional translation)



   Cartesian axes

     site n.     atom                  positions (alat units)
         1           C   tau(   1) = (   0.0000000   0.0000000   0.0000000  )
         2           C   tau(   2) = (   0.1635549   0.1635549   0.1635549  )

     number of k points=    47
                       cart. coord. in units 2pi/alat
        k(    1) = (   0.0000000   0.0000000   0.0000000), wk =   0.0020000
        k(    2) = (  -0.1528539   0.1528539  -0.1528539), wk =   0.0160000
        k(    3) = (  -0.3057077   0.3057077  -0.3057077), wk =   0.0160000
        k(    4) = (  -0.4585616   0.4585616  -0.4585616), wk =   0.0160000
        k(    5) = (  -0.6114154   0.6114154  -0.6114154), wk =   0.0160000
        k(    6) = (   0.7642693  -0.7642693   0.7642693), wk =   0.0080000
        k(    7) = (   0.0000000   0.3057077  -0.0000000), wk =   0.0120000
        k(    8) = (  -0.1528539   0.4585616  -0.1528539), wk =   0.0480000
        k(    9) = (  -0.3057077   0.6114154  -0.3057077), wk =   0.0480000
        k(   10) = (  -0.4585616   0.7642693  -0.4585616), wk =   0.0480000
        k(   11) = (   0.9171232  -0.6114154   0.9171232), wk =   0.0480000
        k(   12) = (   0.7642693  -0.4585616   0.7642693), wk =   0.0480000
        k(   13) = (   0.6114154  -0.3057077   0.6114154), wk =   0.0480000
        k(   14) = (   0.4585616  -0.1528539   0.4585616), wk =   0.0480000
        k(   15) = (   0.3057077   0.0000000   0.3057077), wk =   0.0240000
        k(   16) = (   0.0000000   0.6114154  -0.0000000), wk =   0.0120000
        k(   17) = (  -0.1528539   0.7642693  -0.1528539), wk =   0.0480000
        k(   18) = (  -0.3057077   0.9171232  -0.3057077), wk =   0.0480000
        k(   19) = (   1.0699770  -0.4585616   1.0699770), wk =   0.0480000
        k(   20) = (   0.9171232  -0.3057077   0.9171232), wk =   0.0480000
        k(   21) = (   0.7642693  -0.1528539   0.7642693), wk =   0.0480000
        k(   22) = (   0.6114154   0.0000000   0.6114154), wk =   0.0240000
        k(   23) = (   0.0000000   0.9171232  -0.0000000), wk =   0.0120000
        k(   24) = (  -0.1528539   1.0699770  -0.1528539), wk =   0.0480000
        k(   25) = (   1.2228309  -0.3057077   1.2228309), wk =   0.0480000
        k(   26) = (   1.0699770  -0.1528539   1.0699770), wk =   0.0480000
        k(   27) = (   0.9171232  -0.0000000   0.9171232), wk =   0.0240000
        k(   28) = (   0.0000000   1.2228309  -0.0000000), wk =   0.0120000
        k(   29) = (   1.3756847  -0.1528539   1.3756847), wk =   0.0480000
        k(   30) = (   1.2228309   0.0000000   1.2228309), wk =   0.0240000
        k(   31) = (  -0.0000000  -1.5285386   0.0000000), wk =   0.0060000
        k(   32) = (  -0.3057077   0.6114154   0.0000000), wk =   0.0480000
        k(   33) = (  -0.4585616   0.7642693  -0.1528539), wk =   0.0960000
        k(   34) = (   0.9171232  -0.6114154   1.2228309), wk =   0.0960000
        k(   35) = (   0.7642693  -0.4585616   1.0699770), wk =   0.0480000
        k(   36) = (  -0.3057077   0.9171232  -0.0000000), wk =   0.0480000
        k(   37) = (   1.0699770  -0.4585616   1.3756847), wk =   0.0960000
        k(   38) = (   0.9171232  -0.3057077   1.2228309), wk =   0.0960000
        k(   39) = (   0.7642693  -0.1528539   1.0699770), wk =   0.0960000
        k(   40) = (   0.6114154   0.0000000   0.9171232), wk =   0.0480000
        k(   41) = (   1.2228309  -0.3057077   1.5285386), wk =   0.0480000
        k(   42) = (   1.0699770  -0.1528539   1.3756847), wk =   0.0960000
        k(   43) = (   0.9171232  -0.0000000   1.2228309), wk =   0.0480000
        k(   44) = (  -0.3057077  -1.5285386   0.0000000), wk =   0.0240000
        k(   45) = (   0.9171232  -0.3057077   1.5285386), wk =   0.0480000
        k(   46) = (   0.7642693  -0.1528539   1.3756847), wk =   0.0480000
        k(   47) = (  -0.6114154  -1.5285386   0.0000000), wk =   0.0240000

     Dense  grid:     3695 G-vectors     FFT dimensions: (  24,  24,  24)

     Estimated max dynamical RAM per process >       0.92 MB

     Estimated total dynamical RAM >       7.36 MB

     WARNING: libxc functional with ID  263 depends
      on external parameters: check the user_guide of
      QE if you need to modify them or to check their
      default values.

     Initial potential from superposition of free atoms

     starting charge       7.9999, renormalised to       8.0000
     Starting wfcs are    8 randomized atomic wfcs

     total cpu time spent up to now is      124.3 secs

     Self-consistent Calculation

     iteration #  1     ecut=    50.00 Ry     beta= 0.01
     Davidson diagonalization with overlap
     ethr =  1.00E-06,  avg # of iterations =  7.8

     total cpu time spent up to now is      125.1 secs

     total energy              =     -22.61599945 Ry
     estimated scf accuracy    <       2.21649917 Ry

     iteration #  2     ecut=    50.00 Ry     beta= 0.01
     Davidson diagonalization with overlap
     ethr =  1.00E-02,  avg # of iterations =  1.0

     total cpu time spent up to now is      125.4 secs

     total energy              =     -22.73252276 Ry
     estimated scf accuracy    <       2.17198707 Ry

     iteration #  3     ecut=    50.00 Ry     beta= 0.01
     Davidson diagonalization with overlap
     ethr =  1.00E-02,  avg # of iterations =  1.0

     total cpu time spent up to now is      125.6 secs

     total energy              =     -22.73846501 Ry
     estimated scf accuracy    <       0.01431198 Ry

     iteration #  4     ecut=    50.00 Ry     beta= 0.01
     Davidson diagonalization with overlap
     ethr =  1.79E-04,  avg # of iterations =  1.0

     total cpu time spent up to now is      125.8 secs

     total energy              =     -22.73855917 Ry
     estimated scf accuracy    <       0.01484644 Ry

     iteration #  5     ecut=    50.00 Ry     beta= 0.01
     Davidson diagonalization with overlap
     ethr =  1.79E-04,  avg # of iterations =  1.0

     total cpu time spent up to now is      126.0 secs

     total energy              =     -22.73457817 Ry
     estimated scf accuracy    <       0.01842339 Ry

     iteration #  6     ecut=    50.00 Ry     beta= 0.01
     Davidson diagonalization with overlap
     ethr =  1.79E-04,  avg # of iterations =  1.0

     total cpu time spent up to now is      126.9 secs

     total energy              =     -22.73578503 Ry
     estimated scf accuracy    <       0.00446437 Ry

     iteration #  7     ecut=    50.00 Ry     beta= 0.01
     Davidson diagonalization with overlap
     ethr =  5.58E-05,  avg # of iterations =  1.0

     total cpu time spent up to now is      127.2 secs

     total energy              =     -22.73593817 Ry
     estimated scf accuracy    <       0.00176725 Ry

     iteration #  8     ecut=    50.00 Ry     beta= 0.01
     Davidson diagonalization with overlap
     ethr =  2.21E-05,  avg # of iterations =  1.0

     total cpu time spent up to now is      127.4 secs

     total energy              =     -22.73576143 Ry
     estimated scf accuracy    <       0.00295611 Ry

     iteration #  9     ecut=    50.00 Ry     beta= 0.01
     Davidson diagonalization with overlap
     ethr =  2.21E-05,  avg # of iterations =  1.0

     total cpu time spent up to now is      127.7 secs

     total energy              =     -22.73575330 Ry
     estimated scf accuracy    <       0.00026037 Ry

     iteration # 10     ecut=    50.00 Ry     beta= 0.01
     Davidson diagonalization with overlap
     ethr =  3.25E-06,  avg # of iterations =  1.0

     total cpu time spent up to now is      128.4 secs

     total energy              =     -22.73576593 Ry
     estimated scf accuracy    <       0.00001529 Ry

     iteration # 11     ecut=    50.00 Ry     beta= 0.01
     Davidson diagonalization with overlap
     ethr =  1.91E-07,  avg # of iterations =  2.0

     total cpu time spent up to now is      129.5 secs

     total energy              =     -22.73576636 Ry
     estimated scf accuracy    <       0.00001597 Ry

     iteration # 12     ecut=    50.00 Ry     beta= 0.01
     Davidson diagonalization with overlap
     ethr =  1.91E-07,  avg # of iterations =  1.0

     total cpu time spent up to now is      130.5 secs

     total energy              =     -22.73576903 Ry
     estimated scf accuracy    <       0.00000821 Ry

     iteration # 13     ecut=    50.00 Ry     beta= 0.01
     Davidson diagonalization with overlap
     ethr =  1.03E-07,  avg # of iterations =  1.0

     total cpu time spent up to now is      132.5 secs

     total energy              =     -22.73576940 Ry
     estimated scf accuracy    <       0.00000009 Ry

     iteration # 14     ecut=    50.00 Ry     beta= 0.01
     Davidson diagonalization with overlap
     ethr =  1.10E-09,  avg # of iterations =  2.5

     total cpu time spent up to now is      134.1 secs

     total energy              =     -22.73576941 Ry
     estimated scf accuracy    <       0.00000005 Ry

     iteration # 15     ecut=    50.00 Ry     beta= 0.01
     Davidson diagonalization with overlap
     ethr =  5.85E-10,  avg # of iterations =  2.0

     total cpu time spent up to now is      135.0 secs

     total energy              =     -22.73576943 Ry
     estimated scf accuracy    <       0.00000010 Ry

     iteration # 16     ecut=    50.00 Ry     beta= 0.01
     Davidson diagonalization with overlap
     ethr =  5.85E-10,  avg # of iterations =  1.1

     total cpu time spent up to now is      136.1 secs

     End of self-consistent calculation

          k = 0.0000 0.0000 0.0000 (   459 PWs)   bands (ev):

    -9.1229  13.4560  13.4560  13.4560

          k =-0.1529 0.1529-0.1529 (   456 PWs)   bands (ev):

    -8.8315  11.6990  12.9920  12.9920

          k =-0.3057 0.3057-0.3057 (   459 PWs)   bands (ev):

    -7.9640   8.3415  12.0697  12.0697

          k =-0.4586 0.4586-0.4586 (   456 PWs)   bands (ev):

    -6.5435   4.7828  11.2311  11.2311

          k =-0.6114 0.6114-0.6114 (   464 PWs)   bands (ev):

    -4.6522   1.5100  10.6873  10.6873

          k = 0.7643-0.7643 0.7643 (   464 PWs)   bands (ev):

    -3.1078  -0.5117  10.5066  10.5066

          k = 0.0000 0.3057-0.0000 (   459 PWs)   bands (ev):

    -8.7344  12.1790  12.1790  12.5263

          k =-0.1529 0.4586-0.1529 (   462 PWs)   bands (ev):

    -8.0592   9.5047  11.1611  12.0483

          k =-0.3057 0.6114-0.3057 (   459 PWs)   bands (ev):

    -6.8220   6.0807  10.3700  11.1418

          k =-0.4586 0.7643-0.4586 (   447 PWs)   bands (ev):

    -5.0743   2.7354   9.9725  10.2326

          k = 0.9171-0.6114 0.9171 (   451 PWs)   bands (ev):

    -3.1483   0.0432   9.5656   9.9993

          k = 0.7643-0.4586 0.7643 (   450 PWs)   bands (ev):

    -3.7393   0.7919   9.2622  10.4322

          k = 0.6114-0.3057 0.6114 (   449 PWs)   bands (ev):

    -5.7079   3.8258   9.3718  11.1975

          k = 0.4586-0.1529 0.4586 (   464 PWs)   bands (ev):

    -7.2956   7.2484   9.9108  12.1460

          k = 0.3057 0.0000 0.3057 (   461 PWs)   bands (ev):

    -8.3482  10.3762  11.0312  12.9509

          k = 0.0000 0.6114-0.0000 (   463 PWs)   bands (ev):

    -7.5785  10.0756  10.0756  10.1983

          k =-0.1529 0.7643-0.1529 (   451 PWs)   bands (ev):

    -6.5333   7.3338   9.2511   9.6349

          k =-0.3057 0.9171-0.3057 (   452 PWs)   bands (ev):

    -4.9610   4.2320   8.5319   8.8362

          k = 1.0700-0.4586 1.0700 (   449 PWs)   bands (ev):

    -3.0217   1.3789   7.4876   8.9011

          k = 0.9171-0.3057 0.9171 (   453 PWs)   bands (ev):

    -2.4657   0.7102   6.7864   9.4233

          k = 0.7643-0.1529 0.7643 (   448 PWs)   bands (ev):

    -4.3513   3.3089   6.5580  10.3147

          k = 0.6114 0.0000 0.6114 (   449 PWs)   bands (ev):

    -6.0724   6.1250   7.1894  11.3698

          k = 0.0000 0.9171-0.0000 (   444 PWs)   bands (ev):

    -5.6830   7.0617   8.3331   8.3331

          k =-0.1529 1.0700-0.1529 (   450 PWs)   bands (ev):

    -4.2999   4.9757   7.1930   7.8354

          k = 1.2228-0.3057 1.2228 (   451 PWs)   bands (ev):

    -2.4793   2.6897   5.6021   7.8278

          k = 1.0700-0.1529 1.0700 (   451 PWs)   bands (ev):

    -1.0966   1.2245   4.4063   8.3110

          k = 0.9171-0.0000 0.9171 (   447 PWs)   bands (ev):

    -2.5766   2.7893   4.2161   9.2050

          k = 0.0000 1.2228-0.0000 (   452 PWs)   bands (ev):

    -3.1097   3.5235   7.2232   7.2232

          k = 1.3757-0.1529 1.3757 (   454 PWs)   bands (ev):

    -1.4546   1.8036   6.0773   7.1004

          k = 1.2228 0.0000 1.2228 (   458 PWs)   bands (ev):

     0.0469   0.7235   4.3112   7.4746

          k =-0.0000-1.5285 0.0000 (   460 PWs)   bands (ev):

     0.0264   0.0264   6.8438   6.8438

          k =-0.3057 0.6114 0.0000 (   457 PWs)   bands (ev):

    -7.1987   8.1672   9.0456  11.4589

          k =-0.4586 0.7643-0.1529 (   450 PWs)   bands (ev):

    -5.7921   5.2117   8.1270  10.5269

          k = 0.9171-0.6114 1.2228 (   445 PWs)   bands (ev):

    -3.9272   2.1140   7.8719   9.6217

          k = 0.7643-0.4586 1.0700 (   452 PWs)   bands (ev):

    -2.4211   0.1702   7.8602   9.2191

          k =-0.3057 0.9171-0.0000 (   451 PWs)   bands (ev):

    -5.3188   6.0146   7.3763   8.9163

          k = 1.0700-0.4586 1.3757 (   452 PWs)   bands (ev):

    -3.6143   3.5710   6.4448   8.0435

          k = 0.9171-0.3057 1.2228 (   455 PWs)   bands (ev):

    -1.7663   1.2282   5.7703   7.8689

          k = 0.7643-0.1529 1.0700 (   447 PWs)   bands (ev):

    -2.3555   1.9738   5.2895   8.4704

          k = 0.6114 0.0000 0.9171 (   450 PWs)   bands (ev):

    -4.2491   4.3317   5.6286   9.4958

          k = 1.2228-0.3057 1.5285 (   453 PWs)   bands (ev):

    -2.7810   3.4185   6.3533   6.8723

          k = 1.0700-0.1529 1.3757 (   450 PWs)   bands (ev):

    -0.9376   1.7983   4.7556   6.7440

          k = 0.9171-0.0000 1.2228 (   451 PWs)   bands (ev):

    -0.6508   1.6321   3.7587   7.3850

          k =-0.3057-1.5285 0.0000 (   456 PWs)   bands (ev):

     0.2570   0.2570   6.1188   6.1188

          k = 0.9171-0.3057 1.5285 (   450 PWs)   bands (ev):

    -1.8569   2.7441   4.7751   6.7949

          k = 0.7643-0.1529 1.3757 (   454 PWs)   bands (ev):

    -0.4465   1.5006   4.4418   6.1917

          k =-0.6114-1.5285 0.0000 (   454 PWs)   bands (ev):

     0.7265   0.7265   4.9853   4.9853

     highest occupied level (ev):    13.4560

!    total energy              =     -22.73576944 Ry
     estimated scf accuracy    <          1.7E-09 Ry

     The total energy is the sum of the following terms:
     one-electron contribution =       8.10941737 Ry
     hartree contribution      =       1.92914070 Ry
     xc contribution           =      -7.10121510 Ry
     ewald contribution        =     -25.67311241 Ry

     convergence has been achieved in  16 iterations
     Writing meta-gga kinetic term


     Computing stress (Cartesian axis) and pressure

          total   stress  (Ry/bohr**3)                   (kbar)     P=     -143.07
  -0.00097257  -0.00000000   0.00000000         -143.07       -0.00        0.00
   0.00000000  -0.00097257  -0.00000000            0.00     -143.07       -0.00
   0.00000000   0.00000000  -0.00097257            0.00        0.00     -143.07


     Writing all to output data dir ./pwscf.save/
     Writing meta-gga kinetic term
 
     init_run     :      0.44s CPU      0.59s WALL (       2 calls)
     electrons    :    113.43s CPU    132.46s WALL (      11 calls)
     update_pot   :      0.52s CPU      0.56s WALL (       9 calls)
     stress       :      1.43s CPU      1.80s WALL (      11 calls)

     Called by init_run:
     wfcinit      :      0.38s CPU      0.47s WALL (       2 calls)
     potinit      :      0.03s CPU      0.03s WALL (       2 calls)
     hinit0       :      0.03s CPU      0.05s WALL (       2 calls)

     Called by electrons:
     c_bands      :     95.76s CPU    110.84s WALL (     214 calls)
     sum_band     :     15.32s CPU     18.31s WALL (     214 calls)
     v_of_rho     :      1.12s CPU      1.37s WALL (     224 calls)
     mix_rho      :      1.09s CPU      1.27s WALL (     214 calls)

     Called by c_bands:
     init_us_2    :      0.26s CPU      0.29s WALL (   20727 calls)
     init_us_2:cp :      0.21s CPU      0.23s WALL (   20727 calls)
     cegterg      :     94.99s CPU    109.85s WALL (   10058 calls)

     Called by *egterg:
     cdiaghg      :     10.48s CPU     11.92s WALL (   30882 calls)
     h_psi        :     78.37s CPU     90.85s WALL (   31446 calls)
     g_psi        :      0.09s CPU      0.10s WALL (   21294 calls)

     Called by h_psi:
     h_psi:calbec :      0.52s CPU      0.59s WALL (   31446 calls)
     vloc_psi     :     19.00s CPU     21.88s WALL (   31446 calls)
     add_vuspsi   :      0.23s CPU      0.25s WALL (   31446 calls)
     h_psi_meta   :     58.22s CPU     67.70s WALL (   31446 calls)

     General routines
     calbec       :      0.43s CPU      0.49s WALL (   31963 calls)
     fft          :      0.48s CPU      0.69s WALL (    2723 calls)
     ffts         :      0.59s CPU      0.73s WALL (    4100 calls)
     fftw         :     84.02s CPU     98.50s WALL ( 1097796 calls)
     interpolate  :      0.01s CPU      0.01s WALL (     224 calls)
 
     Parallel routines
 
     PWSCF        :   1m56.35s CPU   2m16.93s WALL

 
   This run was terminated on:  14:31:21  18Feb2023            

=------------------------------------------------------------------------------=
   JOB DONE.
=------------------------------------------------------------------------------=
