
     Program PWSCF v.7.0 starts on 21Feb2023 at 12:49:41 

     This program is part of the open-source Quantum ESPRESSO suite
     for quantum simulation of materials; please cite
         "P. Giannozzi et al., J. Phys.:Condens. Matter 21 395502 (2009);
         "P. Giannozzi et al., J. Phys.:Condens. Matter 29 465901 (2017);
         "P. Giannozzi et al., J. Chem. Phys. 152 154105 (2020);
          URL http://www.quantum-espresso.org", 
     in publications or presentations arising from this work. More details at
     http://www.quantum-espresso.org/quote

     Parallel version (MPI), running on     1 processors

     MPI processes distributed on     1 nodes
     2808 MiB available memory on the printing compute node when the environment starts
 
     Waiting for input...
     Reading input from standard input
Warning: card &CELL ignored
Warning: card / ignored

     Current dimensions of program PWSCF are:
     Max number of different atomic species (ntypx) = 10
     Max number of k-points (npk) =  40000
     Max angular momentum in pseudopotentials (lmaxx) =  4
     file Si.SCAN.UPF2: wavefunction(s)  0D renormalized

     WARNING: the MGGA functional with ID    5 has been 
     read together with other dft terms, but it should 
     stand alone in order to work properly. The other 
     terms will be ignored.

     Subspace diagonalization in iterative solution of the eigenvalue problem:
     a serial algorithm will be used

 
     G-vector sticks info
     --------------------
     sticks:   dense  smooth     PW     G-vecs:    dense   smooth      PW
     Sum         955     955    283                19579    19579    3143
 
     Using Slab Decomposition
 


     bravais-lattice index     =            2
     lattice parameter (alat)  =      11.7511  a.u.
     unit-cell volume          =     405.6725 (a.u.)^3
     number of atoms/cell      =            2
     number of atomic types    =            1
     number of electrons       =         8.00
     number of Kohn-Sham states=            4
     kinetic-energy cutoff     =      50.0000  Ry
     charge density cutoff     =     200.0000  Ry
     scf convergence threshold =      1.0E-06
     mixing beta               =       0.0100
     number of iterations used =            8  local-TF  mixing
     Exchange-correlation= SLA  PW   SCAN SCAN
                           (   0   0   0   0   0 263 267)

     celldm(1)=  11.751100  celldm(2)=   0.000000  celldm(3)=   0.000000
     celldm(4)=   0.000000  celldm(5)=   0.000000  celldm(6)=   0.000000

     crystal axes: (cart. coord. in units of alat)
               a(1) = (  -0.500000   0.000000   0.500000 )  
               a(2) = (   0.000000   0.500000   0.500000 )  
               a(3) = (  -0.500000   0.500000   0.000000 )  

     reciprocal axes: (cart. coord. in units 2 pi/alat)
               b(1) = ( -1.000000 -1.000000  1.000000 )  
               b(2) = (  1.000000  1.000000  1.000000 )  
               b(3) = ( -1.000000  1.000000 -1.000000 )  


     PseudoPot. # 1 for Si read from file:
     ~/Documents/TA/PWDFT.jl/pseudopotentials/scan_upf/Si.SCAN.UPF2
     MD5 check sum: Not computed, couldn't open file
     Pseudo is Norm-conserving, Zval =  4.0
     Generated by new atomic code, or converted to UPF format
     Using radial grid of 1475 points,  2 beta functions with: 
                l(1) =   0
                l(2) =   1

     atomic species   valence    mass     pseudopotential
        Si             4.00    28.08550     Si( 1.00)

     48 Sym. Ops., with inversion, found (24 have fractional translation)



   Cartesian axes

     site n.     atom                  positions (alat units)
         1           Si  tau(   1) = (   0.0000000   0.0000000   0.0000000  )
         2           Si  tau(   2) = (   0.2500000   0.2500000   0.2500000  )

     number of k points=    47
                       cart. coord. in units 2pi/alat
        k(    1) = (   0.0000000   0.0000000   0.0000000), wk =   0.0020000
        k(    2) = (  -0.1000000   0.1000000  -0.1000000), wk =   0.0160000
        k(    3) = (  -0.2000000   0.2000000  -0.2000000), wk =   0.0160000
        k(    4) = (  -0.3000000   0.3000000  -0.3000000), wk =   0.0160000
        k(    5) = (  -0.4000000   0.4000000  -0.4000000), wk =   0.0160000
        k(    6) = (   0.5000000  -0.5000000   0.5000000), wk =   0.0080000
        k(    7) = (   0.0000000   0.2000000   0.0000000), wk =   0.0120000
        k(    8) = (  -0.1000000   0.3000000  -0.1000000), wk =   0.0480000
        k(    9) = (  -0.2000000   0.4000000  -0.2000000), wk =   0.0480000
        k(   10) = (  -0.3000000   0.5000000  -0.3000000), wk =   0.0480000
        k(   11) = (   0.6000000  -0.4000000   0.6000000), wk =   0.0480000
        k(   12) = (   0.5000000  -0.3000000   0.5000000), wk =   0.0480000
        k(   13) = (   0.4000000  -0.2000000   0.4000000), wk =   0.0480000
        k(   14) = (   0.3000000  -0.1000000   0.3000000), wk =   0.0480000
        k(   15) = (   0.2000000   0.0000000   0.2000000), wk =   0.0240000
        k(   16) = (   0.0000000   0.4000000   0.0000000), wk =   0.0120000
        k(   17) = (  -0.1000000   0.5000000  -0.1000000), wk =   0.0480000
        k(   18) = (  -0.2000000   0.6000000  -0.2000000), wk =   0.0480000
        k(   19) = (   0.7000000  -0.3000000   0.7000000), wk =   0.0480000
        k(   20) = (   0.6000000  -0.2000000   0.6000000), wk =   0.0480000
        k(   21) = (   0.5000000  -0.1000000   0.5000000), wk =   0.0480000
        k(   22) = (   0.4000000   0.0000000   0.4000000), wk =   0.0240000
        k(   23) = (   0.0000000   0.6000000   0.0000000), wk =   0.0120000
        k(   24) = (  -0.1000000   0.7000000  -0.1000000), wk =   0.0480000
        k(   25) = (   0.8000000  -0.2000000   0.8000000), wk =   0.0480000
        k(   26) = (   0.7000000  -0.1000000   0.7000000), wk =   0.0480000
        k(   27) = (   0.6000000  -0.0000000   0.6000000), wk =   0.0240000
        k(   28) = (   0.0000000   0.8000000   0.0000000), wk =   0.0120000
        k(   29) = (   0.9000000  -0.1000000   0.9000000), wk =   0.0480000
        k(   30) = (   0.8000000   0.0000000   0.8000000), wk =   0.0240000
        k(   31) = (   0.0000000  -1.0000000   0.0000000), wk =   0.0060000
        k(   32) = (  -0.2000000   0.4000000   0.0000000), wk =   0.0480000
        k(   33) = (  -0.3000000   0.5000000  -0.1000000), wk =   0.0960000
        k(   34) = (   0.6000000  -0.4000000   0.8000000), wk =   0.0960000
        k(   35) = (   0.5000000  -0.3000000   0.7000000), wk =   0.0480000
        k(   36) = (  -0.2000000   0.6000000   0.0000000), wk =   0.0480000
        k(   37) = (   0.7000000  -0.3000000   0.9000000), wk =   0.0960000
        k(   38) = (   0.6000000  -0.2000000   0.8000000), wk =   0.0960000
        k(   39) = (   0.5000000  -0.1000000   0.7000000), wk =   0.0960000
        k(   40) = (   0.4000000   0.0000000   0.6000000), wk =   0.0480000
        k(   41) = (   0.8000000  -0.2000000   1.0000000), wk =   0.0480000
        k(   42) = (   0.7000000  -0.1000000   0.9000000), wk =   0.0960000
        k(   43) = (   0.6000000   0.0000000   0.8000000), wk =   0.0480000
        k(   44) = (  -0.2000000  -1.0000000   0.0000000), wk =   0.0240000
        k(   45) = (   0.6000000  -0.2000000   1.0000000), wk =   0.0480000
        k(   46) = (   0.5000000  -0.1000000   0.9000000), wk =   0.0480000
        k(   47) = (  -0.4000000  -1.0000000   0.0000000), wk =   0.0240000

     Dense  grid:    19579 G-vectors     FFT dimensions: (  40,  40,  40)

     Estimated max dynamical RAM per process >      37.00 MB

     WARNING: libxc functional with ID  263 depends
      on external parameters: check the user_guide of
      QE if you need to modify them or to check their
      default values.

     Initial potential from superposition of free atoms

     starting charge       7.9990, renormalised to       8.0000
     Starting wfcs are   18 randomized atomic wfcs

     total cpu time spent up to now is       11.0 secs

     Self-consistent Calculation

     iteration #  1     ecut=    50.00 Ry     beta= 0.01
     Davidson diagonalization with overlap
     ethr =  1.00E-02,  avg # of iterations =  1.3

     Threshold (ethr) on eigenvalues was too large:
     Diagonalizing with lowered threshold

     Davidson diagonalization with overlap
     ethr =  4.33E-04,  avg # of iterations =  2.0

     total cpu time spent up to now is       25.7 secs

     total energy              =     -15.59730129 Ry
     estimated scf accuracy    <       0.03683416 Ry

     iteration #  2     ecut=    50.00 Ry     beta= 0.01
     Davidson diagonalization with overlap
     ethr =  4.60E-04,  avg # of iterations =  1.0

     total cpu time spent up to now is       32.0 secs

     total energy              =     -15.58935701 Ry
     estimated scf accuracy    <       0.03690654 Ry

     iteration #  3     ecut=    50.00 Ry     beta= 0.01
     Davidson diagonalization with overlap
     ethr =  4.60E-04,  avg # of iterations =  1.0

     total cpu time spent up to now is       37.8 secs

     total energy              =     -15.63267656 Ry
     estimated scf accuracy    <       0.04617487 Ry

     iteration #  4     ecut=    50.00 Ry     beta= 0.01
     Davidson diagonalization with overlap
     ethr =  4.60E-04,  avg # of iterations =  1.0

     total cpu time spent up to now is       42.0 secs

     total energy              =     -15.63483178 Ry
     estimated scf accuracy    <       0.00635632 Ry

     iteration #  5     ecut=    50.00 Ry     beta= 0.01
     Davidson diagonalization with overlap
     ethr =  7.95E-05,  avg # of iterations =  2.0

     total cpu time spent up to now is       46.4 secs

     total energy              =     -15.63591585 Ry
     estimated scf accuracy    <       0.00308531 Ry

     iteration #  6     ecut=    50.00 Ry     beta= 0.01
     Davidson diagonalization with overlap
     ethr =  3.86E-05,  avg # of iterations =  1.0

     total cpu time spent up to now is       50.0 secs

     total energy              =     -15.63585434 Ry
     estimated scf accuracy    <       0.00380716 Ry

     iteration #  7     ecut=    50.00 Ry     beta= 0.01
     Davidson diagonalization with overlap
     ethr =  3.86E-05,  avg # of iterations =  1.3

     total cpu time spent up to now is       53.6 secs

     total energy              =     -15.63598000 Ry
     estimated scf accuracy    <       0.00060677 Ry

     iteration #  8     ecut=    50.00 Ry     beta= 0.01
     Davidson diagonalization with overlap
     ethr =  7.58E-06,  avg # of iterations =  2.1

     total cpu time spent up to now is       58.7 secs

     total energy              =     -15.63611368 Ry
     estimated scf accuracy    <       0.00003858 Ry

     iteration #  9     ecut=    50.00 Ry     beta= 0.01
     Davidson diagonalization with overlap
     ethr =  4.82E-07,  avg # of iterations =  1.9

     total cpu time spent up to now is       62.9 secs

     total energy              =     -15.63615350 Ry
     estimated scf accuracy    <       0.00003812 Ry

     iteration # 10     ecut=    50.00 Ry     beta= 0.01
     Davidson diagonalization with overlap
     ethr =  4.77E-07,  avg # of iterations =  1.2

     total cpu time spent up to now is       65.2 secs

     total energy              =     -15.63618192 Ry
     estimated scf accuracy    <       0.00001933 Ry

     iteration # 11     ecut=    50.00 Ry     beta= 0.01
     Davidson diagonalization with overlap
     ethr =  2.42E-07,  avg # of iterations =  2.1

     total cpu time spent up to now is       67.4 secs

     End of self-consistent calculation

          k = 0.0000 0.0000 0.0000 (  2421 PWs)   bands (ev):

    -7.4991   2.3761   2.5203   2.5203

          k =-0.1000 0.1000-0.1000 (  2430 PWs)   bands (ev):

    -7.4035   1.0264   2.3907   2.3907

          k =-0.2000 0.2000-0.2000 (  2430 PWs)   bands (ev):

    -7.1237  -0.4210   2.1190   2.1190

          k =-0.3000 0.3000-0.3000 (  2436 PWs)   bands (ev):

    -6.6892  -1.7408   1.8607   1.8607

          k =-0.4000 0.4000-0.4000 (  2428 PWs)   bands (ev):

    -6.1938  -2.7840   1.6891   1.6891

          k = 0.5000-0.5000 0.5000 (  2452 PWs)   bands (ev):

    -5.9277  -3.2352   1.6298   1.6298

          k = 0.0000 0.2000 0.0000 (  2429 PWs)   bands (ev):

    -7.3712   0.9246   2.1647   2.1647

          k =-0.1000 0.3000-0.1000 (  2427 PWs)   bands (ev):

    -7.1512  -0.1594   1.8599   1.8832

          k =-0.2000 0.4000-0.2000 (  2432 PWs)   bands (ev):

    -6.7629  -1.4134   1.5313   1.6128

          k =-0.3000 0.5000-0.3000 (  2429 PWs)   bands (ev):

    -6.2682  -2.5206   1.2139   1.4810

          k = 0.6000-0.4000 0.6000 (  2420 PWs)   bands (ev):

    -5.8738  -3.2029   1.0073   1.4813

          k = 0.5000-0.3000 0.5000 (  2426 PWs)   bands (ev):

    -5.9714  -3.0459   0.9432   1.6091

          k = 0.4000-0.2000 0.4000 (  2425 PWs)   bands (ev):

    -6.4398  -2.1772   1.0392   1.8424

          k = 0.3000-0.1000 0.3000 (  2435 PWs)   bands (ev):

    -6.9107  -1.0091   1.3126   2.1319

          k = 0.2000 0.0000 0.2000 (  2425 PWs)   bands (ev):

    -7.2459   0.1866   1.7978   2.3699

          k = 0.0000 0.4000 0.0000 (  2437 PWs)   bands (ev):

    -6.9909  -0.5543   1.5329   1.5329

          k =-0.1000 0.5000-0.1000 (  2423 PWs)   bands (ev):

    -6.6545  -1.4431   1.1402   1.2732

          k =-0.2000 0.6000-0.2000 (  2427 PWs)   bands (ev):

    -6.1814  -2.4213   0.6624   1.1406

          k = 0.7000-0.3000 0.7000 (  2416 PWs)   bands (ev):

    -5.7074  -3.1948   0.2858   1.1537

          k = 0.6000-0.2000 0.6000 (  2413 PWs)   bands (ev):

    -5.6225  -3.3163   0.0981   1.3082

          k = 0.5000-0.1000 0.5000 (  2414 PWs)   bands (ev):

    -6.0362  -2.6843   0.1549   1.5766

          k = 0.4000 0.0000 0.4000 (  2413 PWs)   bands (ev):

    -6.5297  -1.8029   0.5372   1.8950

          k = 0.0000 0.6000 0.0000 (  2421 PWs)   bands (ev):

    -6.3690  -1.9651   0.9900   0.9900

          k =-0.1000 0.7000-0.1000 (  2417 PWs)   bands (ev):

    -5.9300  -2.7096   0.5898   0.8328

          k = 0.8000-0.2000 0.8000 (  2414 PWs)   bands (ev):

    -5.4194  -3.4188   0.0608   0.8266

          k = 0.7000-0.1000 0.7000 (  2411 PWs)   bands (ev):

    -5.1769  -3.7096  -0.2918   0.9711

          k = 0.6000-0.0000 0.6000 (  2403 PWs)   bands (ev):

    -5.5377  -3.2802  -0.2994   1.2420

          k = 0.0000 0.8000 0.0000 (  2438 PWs)   bands (ev):

    -5.5244  -3.2857   0.6422   0.6422

          k = 0.9000-0.1000 0.9000 (  2423 PWs)   bands (ev):

    -5.0067  -3.9099   0.3054   0.6021

          k = 0.8000 0.0000 0.8000 (  2418 PWs)   bands (ev):

    -4.7326  -4.1820  -0.1493   0.7178

          k = 0.0000-1.0000 0.0000 (  2450 PWs)   bands (ev):

    -4.4848  -4.4848   0.5234   0.5234

          k =-0.2000 0.4000 0.0000 (  2437 PWs)   bands (ev):

    -6.8740  -0.9796   1.1613   1.8064

          k =-0.3000 0.5000-0.1000 (  2431 PWs)   bands (ev):

    -6.4413  -1.9887   0.6836   1.5625

          k = 0.6000-0.4000 0.8000 (  2418 PWs)   bands (ev):

    -5.9412  -2.9032   0.4334   1.3403

          k = 0.5000-0.3000 0.7000 (  2418 PWs)   bands (ev):

    -5.6653  -3.3268   0.3570   1.2550

          k =-0.2000 0.6000 0.0000 (  2425 PWs)   bands (ev):

    -6.2687  -2.1794   0.6397   1.0932

          k = 0.7000-0.3000 0.9000 (  2418 PWs)   bands (ev):

    -5.7699  -2.9703   0.1988   0.8939

          k = 0.6000-0.2000 0.8000 (  2421 PWs)   bands (ev):

    -5.3584  -3.5252  -0.0961   0.8578

          k = 0.5000-0.1000 0.7000 (  2423 PWs)   bands (ev):

    -5.4900  -3.3557  -0.1683   1.0101

          k = 0.4000 0.0000 0.6000 (  2416 PWs)   bands (ev):

    -5.9795  -2.6856   0.0693   1.2910

          k = 0.8000-0.2000 1.0000 (  2410 PWs)   bands (ev):

    -5.4542  -3.3574   0.3458   0.5727

          k = 0.7000-0.1000 0.9000 (  2411 PWs)   bands (ev):

    -4.9576  -3.9254  -0.0652   0.5127

          k = 0.6000 0.0000 0.8000 (  2419 PWs)   bands (ev):

    -5.0031  -3.8674  -0.3204   0.6914

          k =-0.2000-1.0000 0.0000 (  2422 PWs)   bands (ev):

    -4.4672  -4.4672   0.3191   0.3191

          k = 0.6000-0.2000 1.0000 (  2428 PWs)   bands (ev):

    -5.2628  -3.5668  -0.1131   0.5496

          k = 0.5000-0.1000 0.9000 (  2416 PWs)   bands (ev):

    -4.9248  -3.9380  -0.2054   0.3916

          k =-0.4000-1.0000 0.0000 (  2418 PWs)   bands (ev):

    -4.4378  -4.4378   0.0454   0.0454

     highest occupied level (ev):     2.5203

!    total energy              =     -15.63619024 Ry
     estimated scf accuracy    <       0.00000094 Ry

     The total energy is the sum of the following terms:
     one-electron contribution =       1.99413800 Ry
     hartree contribution      =       1.47155895 Ry
     xc contribution           =      -4.43283172 Ry
     ewald contribution        =     -14.66905547 Ry

     convergence has been achieved in  11 iterations
     Writing meta-gga kinetic term

     Writing all to output data dir ./input_pw/Si/13/pwscf.save/
     Writing meta-gga kinetic term
 
     init_run     :      5.44s CPU     10.94s WALL (       1 calls)
     electrons    :     38.94s CPU     56.41s WALL (       1 calls)

     Called by init_run:
     wfcinit      :      5.30s CPU     10.57s WALL (       1 calls)
     potinit      :      0.05s CPU      0.13s WALL (       1 calls)
     hinit0       :      0.07s CPU      0.17s WALL (       1 calls)

     Called by electrons:
     c_bands      :     31.03s CPU     45.01s WALL (      12 calls)
     sum_band     :      7.16s CPU     10.30s WALL (      12 calls)
     v_of_rho     :      0.47s CPU      0.74s WALL (      12 calls)
     mix_rho      :      0.31s CPU      0.46s WALL (      12 calls)

     Called by c_bands:
     init_us_2    :      0.32s CPU      0.45s WALL (    1175 calls)
     init_us_2:cp :      0.32s CPU      0.45s WALL (    1175 calls)
     cegterg      :     30.65s CPU     44.51s WALL (     564 calls)

     Called by *egterg:
     cdiaghg      :      0.08s CPU      0.11s WALL (    1363 calls)
     h_psi        :     35.34s CPU     54.09s WALL (    1457 calls)
     g_psi        :      0.02s CPU      0.03s WALL (     846 calls)

     Called by h_psi:
     h_psi:calbec :      0.12s CPU      0.19s WALL (    1457 calls)
     vloc_psi     :      8.73s CPU     13.28s WALL (    1457 calls)
     add_vuspsi   :      0.10s CPU      0.16s WALL (    1457 calls)
     h_psi_meta   :     26.34s CPU     40.38s WALL (    1457 calls)

     General routines
     calbec       :      0.11s CPU      0.19s WALL (    1457 calls)
     fft          :      0.09s CPU      0.17s WALL (     143 calls)
     ffts         :      0.13s CPU      0.17s WALL (     202 calls)
     fftw         :     36.04s CPU     54.78s WALL (   58096 calls)
     interpolate  :      0.00s CPU      0.00s WALL (      12 calls)
 
     Parallel routines
 
     PWSCF        :     44.42s CPU   1m 7.42s WALL

 
   This run was terminated on:  12:50:48  21Feb2023            

=------------------------------------------------------------------------------=
   JOB DONE.
=------------------------------------------------------------------------------=
