
     Program PWSCF v.7.0 starts on 29Mar2023 at 11:31: 6 

     This program is part of the open-source Quantum ESPRESSO suite
     for quantum simulation of materials; please cite
         "P. Giannozzi et al., J. Phys.:Condens. Matter 21 395502 (2009);
         "P. Giannozzi et al., J. Phys.:Condens. Matter 29 465901 (2017);
         "P. Giannozzi et al., J. Chem. Phys. 152 154105 (2020);
          URL http://www.quantum-espresso.org", 
     in publications or presentations arising from this work. More details at
     http://www.quantum-espresso.org/quote

     Parallel version (MPI), running on     1 processors

     MPI processes distributed on     1 nodes
     23495 MiB available memory on the printing compute node when the environment starts
 
     Waiting for input...
     Reading input from standard input
Warning: card &CELL ignored
Warning: card / ignored

     Current dimensions of program PWSCF are:
     Max number of different atomic species (ntypx) = 10
     Max number of k-points (npk) =  40000
     Max angular momentum in pseudopotentials (lmaxx) =  4
     file Si.SCAN.UPF2: wavefunction(s)  0D renormalized

     WARNING: the MGGA functional with ID    5 has been 
     read together with other dft terms, but it should 
     stand alone in order to work properly. The other 
     terms will be ignored.

     Subspace diagonalization in iterative solution of the eigenvalue problem:
     a serial algorithm will be used

 
     G-vector sticks info
     --------------------
     sticks:   dense  smooth     PW     G-vecs:    dense   smooth      PW
     Sum         955     955    295                19795    19795    3287
 
     Using Slab Decomposition
 


     bravais-lattice index     =            2
     lattice parameter (alat)  =      11.8507  a.u.
     unit-cell volume          =     416.0753 (a.u.)^3
     number of atoms/cell      =            2
     number of atomic types    =            1
     number of electrons       =         8.00
     number of Kohn-Sham states=            4
     kinetic-energy cutoff     =      50.0000  Ry
     charge density cutoff     =     200.0000  Ry
     scf convergence threshold =      1.0E-06
     mixing beta               =       0.0100
     number of iterations used =            8  local-TF  mixing
     Exchange-correlation= SLA  PW   SCAN SCAN
                           (   0   0   0   0   0 263 267)

     celldm(1)=  11.850699  celldm(2)=   0.000000  celldm(3)=   0.000000
     celldm(4)=   0.000000  celldm(5)=   0.000000  celldm(6)=   0.000000

     crystal axes: (cart. coord. in units of alat)
               a(1) = (  -0.500000   0.000000   0.500000 )  
               a(2) = (   0.000000   0.500000   0.500000 )  
               a(3) = (  -0.500000   0.500000   0.000000 )  

     reciprocal axes: (cart. coord. in units 2 pi/alat)
               b(1) = ( -1.000000 -1.000000  1.000000 )  
               b(2) = (  1.000000  1.000000  1.000000 )  
               b(3) = ( -1.000000  1.000000 -1.000000 )  


     PseudoPot. # 1 for Si read from file:
     ~/Documents/TA/PWDFT.jl/pseudopotentials/scan_upf/Si.SCAN.UPF2
     MD5 check sum: Not computed, couldn't open file
     Pseudo is Norm-conserving, Zval =  4.0
     Generated by new atomic code, or converted to UPF format
     Using radial grid of 1475 points,  2 beta functions with: 
                l(1) =   0
                l(2) =   1

     atomic species   valence    mass     pseudopotential
        Si             4.00    28.08550     Si( 1.00)

     48 Sym. Ops., with inversion, found (24 have fractional translation)



   Cartesian axes

     site n.     atom                  positions (alat units)
         1           Si  tau(   1) = (   0.0000000   0.0000000   0.0000000  )
         2           Si  tau(   2) = (   0.2500000   0.2500000   0.2500000  )

     number of k points=    47
                       cart. coord. in units 2pi/alat
        k(    1) = (   0.0000000   0.0000000   0.0000000), wk =   0.0020000
        k(    2) = (  -0.1000000   0.1000000  -0.1000000), wk =   0.0160000
        k(    3) = (  -0.2000000   0.2000000  -0.2000000), wk =   0.0160000
        k(    4) = (  -0.3000000   0.3000000  -0.3000000), wk =   0.0160000
        k(    5) = (  -0.4000000   0.4000000  -0.4000000), wk =   0.0160000
        k(    6) = (   0.5000000  -0.5000000   0.5000000), wk =   0.0080000
        k(    7) = (   0.0000000   0.2000000   0.0000000), wk =   0.0120000
        k(    8) = (  -0.1000000   0.3000000  -0.1000000), wk =   0.0480000
        k(    9) = (  -0.2000000   0.4000000  -0.2000000), wk =   0.0480000
        k(   10) = (  -0.3000000   0.5000000  -0.3000000), wk =   0.0480000
        k(   11) = (   0.6000000  -0.4000000   0.6000000), wk =   0.0480000
        k(   12) = (   0.5000000  -0.3000000   0.5000000), wk =   0.0480000
        k(   13) = (   0.4000000  -0.2000000   0.4000000), wk =   0.0480000
        k(   14) = (   0.3000000  -0.1000000   0.3000000), wk =   0.0480000
        k(   15) = (   0.2000000   0.0000000   0.2000000), wk =   0.0240000
        k(   16) = (   0.0000000   0.4000000   0.0000000), wk =   0.0120000
        k(   17) = (  -0.1000000   0.5000000  -0.1000000), wk =   0.0480000
        k(   18) = (  -0.2000000   0.6000000  -0.2000000), wk =   0.0480000
        k(   19) = (   0.7000000  -0.3000000   0.7000000), wk =   0.0480000
        k(   20) = (   0.6000000  -0.2000000   0.6000000), wk =   0.0480000
        k(   21) = (   0.5000000  -0.1000000   0.5000000), wk =   0.0480000
        k(   22) = (   0.4000000   0.0000000   0.4000000), wk =   0.0240000
        k(   23) = (   0.0000000   0.6000000   0.0000000), wk =   0.0120000
        k(   24) = (  -0.1000000   0.7000000  -0.1000000), wk =   0.0480000
        k(   25) = (   0.8000000  -0.2000000   0.8000000), wk =   0.0480000
        k(   26) = (   0.7000000  -0.1000000   0.7000000), wk =   0.0480000
        k(   27) = (   0.6000000  -0.0000000   0.6000000), wk =   0.0240000
        k(   28) = (   0.0000000   0.8000000   0.0000000), wk =   0.0120000
        k(   29) = (   0.9000000  -0.1000000   0.9000000), wk =   0.0480000
        k(   30) = (   0.8000000   0.0000000   0.8000000), wk =   0.0240000
        k(   31) = (   0.0000000  -1.0000000   0.0000000), wk =   0.0060000
        k(   32) = (  -0.2000000   0.4000000   0.0000000), wk =   0.0480000
        k(   33) = (  -0.3000000   0.5000000  -0.1000000), wk =   0.0960000
        k(   34) = (   0.6000000  -0.4000000   0.8000000), wk =   0.0960000
        k(   35) = (   0.5000000  -0.3000000   0.7000000), wk =   0.0480000
        k(   36) = (  -0.2000000   0.6000000   0.0000000), wk =   0.0480000
        k(   37) = (   0.7000000  -0.3000000   0.9000000), wk =   0.0960000
        k(   38) = (   0.6000000  -0.2000000   0.8000000), wk =   0.0960000
        k(   39) = (   0.5000000  -0.1000000   0.7000000), wk =   0.0960000
        k(   40) = (   0.4000000   0.0000000   0.6000000), wk =   0.0480000
        k(   41) = (   0.8000000  -0.2000000   1.0000000), wk =   0.0480000
        k(   42) = (   0.7000000  -0.1000000   0.9000000), wk =   0.0960000
        k(   43) = (   0.6000000   0.0000000   0.8000000), wk =   0.0480000
        k(   44) = (  -0.2000000  -1.0000000   0.0000000), wk =   0.0240000
        k(   45) = (   0.6000000  -0.2000000   1.0000000), wk =   0.0480000
        k(   46) = (   0.5000000  -0.1000000   0.9000000), wk =   0.0480000
        k(   47) = (  -0.4000000  -1.0000000   0.0000000), wk =   0.0240000

     Dense  grid:    19795 G-vectors     FFT dimensions: (  40,  40,  40)

     Estimated max dynamical RAM per process >      37.43 MB

     WARNING: libxc functional with ID  263 depends
      on external parameters: check the user_guide of
      QE if you need to modify them or to check their
      default values.

     Initial potential from superposition of free atoms

     starting charge       7.9990, renormalised to       8.0000
     Starting wfcs are   18 randomized atomic wfcs

     total cpu time spent up to now is       10.5 secs

     Self-consistent Calculation

     iteration #  1     ecut=    50.00 Ry     beta= 0.01
     Davidson diagonalization with overlap
     ethr =  1.00E-02,  avg # of iterations =  1.3

     Threshold (ethr) on eigenvalues was too large:
     Diagonalizing with lowered threshold

     Davidson diagonalization with overlap
     ethr =  4.20E-04,  avg # of iterations =  2.0

     total cpu time spent up to now is       24.9 secs

     total energy              =     -15.58901379 Ry
     estimated scf accuracy    <       0.03576354 Ry

     iteration #  2     ecut=    50.00 Ry     beta= 0.01
     Davidson diagonalization with overlap
     ethr =  4.47E-04,  avg # of iterations =  1.0

     total cpu time spent up to now is       31.6 secs

     total energy              =     -15.57635943 Ry
     estimated scf accuracy    <       0.03585235 Ry

     iteration #  3     ecut=    50.00 Ry     beta= 0.01
     Davidson diagonalization with overlap
     ethr =  4.47E-04,  avg # of iterations =  1.0

     total cpu time spent up to now is       38.2 secs

     total energy              =     -15.61947728 Ry
     estimated scf accuracy    <       0.04753430 Ry

     iteration #  4     ecut=    50.00 Ry     beta= 0.01
     Davidson diagonalization with overlap
     ethr =  4.47E-04,  avg # of iterations =  1.0

     total cpu time spent up to now is       42.8 secs

     total energy              =     -15.62334118 Ry
     estimated scf accuracy    <       0.00756887 Ry

     iteration #  5     ecut=    50.00 Ry     beta= 0.01
     Davidson diagonalization with overlap
     ethr =  9.46E-05,  avg # of iterations =  2.0

     total cpu time spent up to now is       47.7 secs

     total energy              =     -15.62468888 Ry
     estimated scf accuracy    <       0.00304804 Ry

     iteration #  6     ecut=    50.00 Ry     beta= 0.01
     Davidson diagonalization with overlap
     ethr =  3.81E-05,  avg # of iterations =  1.0

     total cpu time spent up to now is       51.6 secs

     total energy              =     -15.62462991 Ry
     estimated scf accuracy    <       0.00347329 Ry

     iteration #  7     ecut=    50.00 Ry     beta= 0.01
     Davidson diagonalization with overlap
     ethr =  3.81E-05,  avg # of iterations =  1.0

     total cpu time spent up to now is       55.0 secs

     total energy              =     -15.62459911 Ry
     estimated scf accuracy    <       0.00086211 Ry

     iteration #  8     ecut=    50.00 Ry     beta= 0.01
     Davidson diagonalization with overlap
     ethr =  1.08E-05,  avg # of iterations =  2.1

     total cpu time spent up to now is       60.2 secs

     total energy              =     -15.62477493 Ry
     estimated scf accuracy    <       0.00007411 Ry

     iteration #  9     ecut=    50.00 Ry     beta= 0.01
     Davidson diagonalization with overlap
     ethr =  9.26E-07,  avg # of iterations =  1.6

     total cpu time spent up to now is       64.7 secs

     total energy              =     -15.62481156 Ry
     estimated scf accuracy    <       0.00006822 Ry

     iteration # 10     ecut=    50.00 Ry     beta= 0.01
     Davidson diagonalization with overlap
     ethr =  8.53E-07,  avg # of iterations =  1.0

     total cpu time spent up to now is       68.3 secs

     total energy              =     -15.62484423 Ry
     estimated scf accuracy    <       0.00003599 Ry

     iteration # 11     ecut=    50.00 Ry     beta= 0.01
     Davidson diagonalization with overlap
     ethr =  4.50E-07,  avg # of iterations =  2.1

     total cpu time spent up to now is       72.3 secs

     total energy              =     -15.62485101 Ry
     estimated scf accuracy    <       0.00000201 Ry

     iteration # 12     ecut=    50.00 Ry     beta= 0.01
     Davidson diagonalization with overlap
     ethr =  2.51E-08,  avg # of iterations =  1.9

     total cpu time spent up to now is       74.4 secs

     total energy              =     -15.62485360 Ry
     estimated scf accuracy    <       0.00000212 Ry

     iteration # 13     ecut=    50.00 Ry     beta= 0.01
     Davidson diagonalization with overlap
     ethr =  2.51E-08,  avg # of iterations =  2.0

     total cpu time spent up to now is       76.3 secs

     End of self-consistent calculation

          k = 0.0000 0.0000 0.0000 (  2445 PWs)   bands (ev):

    -7.5646   1.9697   2.3457   2.3457

          k =-0.1000 0.1000-0.1000 (  2505 PWs)   bands (ev):

    -7.4712   0.7685   2.2191   2.2191

          k =-0.2000 0.2000-0.2000 (  2511 PWs)   bands (ev):

    -7.1983  -0.6327   1.9531   1.9531

          k =-0.3000 0.3000-0.3000 (  2475 PWs)   bands (ev):

    -6.7750  -1.9155   1.6998   1.6998

          k =-0.4000 0.4000-0.4000 (  2473 PWs)   bands (ev):

    -6.2943  -2.9292   1.5311   1.5311

          k = 0.5000-0.5000 0.5000 (  2488 PWs)   bands (ev):

    -6.0376  -3.3661   1.4728   1.4728

          k = 0.0000 0.2000 0.0000 (  2517 PWs)   bands (ev):

    -7.4397   0.6564   1.9996   1.9996

          k =-0.1000 0.3000-0.1000 (  2507 PWs)   bands (ev):

    -7.2250  -0.3898   1.7019   1.7192

          k =-0.2000 0.4000-0.2000 (  2504 PWs)   bands (ev):

    -6.8465  -1.6047   1.3708   1.4595

          k =-0.3000 0.5000-0.3000 (  2486 PWs)   bands (ev):

    -6.3656  -2.6794   1.0583   1.3296

          k = 0.6000-0.4000 0.6000 (  2482 PWs)   bands (ev):

    -5.9843  -3.3403   0.8562   1.3288

          k = 0.5000-0.3000 0.5000 (  2479 PWs)   bands (ev):

    -6.0784  -3.1885   0.7955   1.4530

          k = 0.4000-0.2000 0.4000 (  2479 PWs)   bands (ev):

    -6.5323  -2.3461   0.8931   1.6809

          k = 0.3000-0.1000 0.3000 (  2495 PWs)   bands (ev):

    -6.9905  -1.2121   1.1656   1.9641

          k = 0.2000 0.0000 0.2000 (  2507 PWs)   bands (ev):

    -7.3174  -0.0508   1.6427   2.1973

          k = 0.0000 0.4000 0.0000 (  2501 PWs)   bands (ev):

    -7.0685  -0.7860   1.3830   1.3830

          k =-0.1000 0.5000-0.1000 (  2492 PWs)   bands (ev):

    -6.7403  -1.6497   0.9976   1.1288

          k =-0.2000 0.6000-0.2000 (  2479 PWs)   bands (ev):

    -6.2797  -2.5988   0.5288   0.9983

          k = 0.7000-0.3000 0.7000 (  2477 PWs)   bands (ev):

    -5.8203  -3.3479   0.1601   1.0103

          k = 0.6000-0.2000 0.6000 (  2484 PWs)   bands (ev):

    -5.7387  -3.4649  -0.0216   1.1604

          k = 0.5000-0.1000 0.5000 (  2482 PWs)   bands (ev):

    -6.1393  -2.8527   0.0378   1.4221

          k = 0.4000 0.0000 0.4000 (  2499 PWs)   bands (ev):

    -6.6193  -1.9942   0.4136   1.7326

          k = 0.0000 0.6000 0.0000 (  2477 PWs)   bands (ev):

    -6.4615  -2.1639   0.8520   0.8520

          k =-0.1000 0.7000-0.1000 (  2476 PWs)   bands (ev):

    -6.0336  -2.8900   0.4628   0.6980

          k = 0.8000-0.2000 0.8000 (  2476 PWs)   bands (ev):

    -5.5372  -3.5802  -0.0509   0.6914

          k = 0.7000-0.1000 0.7000 (  2491 PWs)   bands (ev):

    -5.3035  -3.8612  -0.3926   0.8320

          k = 0.6000-0.0000 0.6000 (  2492 PWs)   bands (ev):

    -5.6543  -3.4416  -0.3997   1.0961

          k = 0.0000 0.8000 0.0000 (  2470 PWs)   bands (ev):

    -5.6374  -3.4532   0.5116   0.5116

          k = 0.9000-0.1000 0.9000 (  2480 PWs)   bands (ev):

    -5.1329  -4.0625   0.1860   0.4722

          k = 0.8000 0.0000 0.8000 (  2472 PWs)   bands (ev):

    -4.8689  -4.3261  -0.2531   0.5850

          k = 0.0000-1.0000 0.0000 (  2466 PWs)   bands (ev):

    -4.6232  -4.6232   0.3953   0.3953

          k =-0.2000 0.4000 0.0000 (  2506 PWs)   bands (ev):

    -6.9546  -1.1928   1.0216   1.6454

          k =-0.3000 0.5000-0.1000 (  2483 PWs)   bands (ev):

    -6.5330  -2.1742   0.5522   1.4080

          k = 0.6000-0.4000 0.8000 (  2473 PWs)   bands (ev):

    -6.0474  -3.0609   0.3030   1.1923

          k = 0.5000-0.3000 0.7000 (  2482 PWs)   bands (ev):

    -5.7810  -3.4704   0.2262   1.1096

          k =-0.2000 0.6000 0.0000 (  2482 PWs)   bands (ev):

    -6.3642  -2.3702   0.5122   0.9523

          k = 0.7000-0.3000 0.9000 (  2479 PWs)   bands (ev):

    -5.8788  -3.1406   0.0819   0.7592

          k = 0.6000-0.2000 0.8000 (  2486 PWs)   bands (ev):

    -5.4803  -3.6786  -0.2058   0.7241

          k = 0.5000-0.1000 0.7000 (  2478 PWs)   bands (ev):

    -5.6081  -3.5139  -0.2747   0.8719

          k = 0.4000 0.0000 0.6000 (  2475 PWs)   bands (ev):

    -6.0834  -2.8607  -0.0421   1.1447

          k = 0.8000-0.2000 1.0000 (  2481 PWs)   bands (ev):

    -5.5698  -3.5232   0.2253   0.4464

          k = 0.7000-0.1000 0.9000 (  2482 PWs)   bands (ev):

    -5.0872  -4.0774  -0.1718   0.3882

          k = 0.6000 0.0000 0.8000 (  2490 PWs)   bands (ev):

    -5.1336  -4.0188  -0.4188   0.5620

          k =-0.2000-1.0000 0.0000 (  2488 PWs)   bands (ev):

    -4.6070  -4.6070   0.1994   0.1994

          k = 0.6000-0.2000 1.0000 (  2478 PWs)   bands (ev):

    -5.3852  -3.7267  -0.2188   0.4260

          k = 0.5000-0.1000 0.9000 (  2478 PWs)   bands (ev):

    -5.0568  -4.0892  -0.3078   0.2727

          k =-0.4000-1.0000 0.0000 (  2482 PWs)   bands (ev):

    -4.5800  -4.5800  -0.0636  -0.0636

     highest occupied level (ev):     2.3457

!    total energy              =     -15.62485293 Ry
     estimated scf accuracy    <       0.00000086 Ry

     The total energy is the sum of the following terms:
     one-electron contribution =       1.83510659 Ry
     hartree contribution      =       1.49677833 Ry
     xc contribution           =      -4.41096856 Ry
     ewald contribution        =     -14.54576929 Ry

     convergence has been achieved in  13 iterations
     Writing meta-gga kinetic term

     Writing all to output data dir ./input_pw/Si/13/pwscf.save/
     Writing meta-gga kinetic term
 
     init_run     :      5.40s CPU     10.44s WALL (       1 calls)
     electrons    :     45.91s CPU     65.87s WALL (       1 calls)

     Called by init_run:
     wfcinit      :      5.26s CPU     10.11s WALL (       1 calls)
     potinit      :      0.04s CPU      0.19s WALL (       1 calls)
     hinit0       :      0.07s CPU      0.11s WALL (       1 calls)

     Called by electrons:
     c_bands      :     36.53s CPU     52.28s WALL (      14 calls)
     sum_band     :      8.45s CPU     12.33s WALL (      14 calls)
     v_of_rho     :      0.54s CPU      0.86s WALL (      14 calls)
     mix_rho      :      0.40s CPU      0.55s WALL (      14 calls)

     Called by c_bands:
     init_us_2    :      0.39s CPU      0.55s WALL (    1363 calls)
     init_us_2:cp :      0.38s CPU      0.54s WALL (    1363 calls)
     cegterg      :     36.07s CPU     51.68s WALL (     658 calls)

     Called by *egterg:
     cdiaghg      :      0.10s CPU      0.12s WALL (    1597 calls)
     h_psi        :     40.61s CPU     60.68s WALL (    1691 calls)
     g_psi        :      0.03s CPU      0.03s WALL (     986 calls)

     Called by h_psi:
     h_psi:calbec :      0.15s CPU      0.24s WALL (    1691 calls)
     vloc_psi     :     10.02s CPU     14.79s WALL (    1691 calls)
     add_vuspsi   :      0.12s CPU      0.17s WALL (    1691 calls)
     h_psi_meta   :     30.27s CPU     45.41s WALL (    1691 calls)

     General routines
     calbec       :      0.14s CPU      0.21s WALL (    1691 calls)
     fft          :      0.11s CPU      0.19s WALL (     167 calls)
     ffts         :      0.16s CPU      0.16s WALL (     244 calls)
     fftw         :     41.37s CPU     61.72s WALL (   66544 calls)
     interpolate  :      0.00s CPU      0.00s WALL (      14 calls)
 
     Parallel routines
 
     PWSCF        :     51.33s CPU   1m16.36s WALL

 
   This run was terminated on:  11:32:22  29Mar2023            

=------------------------------------------------------------------------------=
   JOB DONE.
=------------------------------------------------------------------------------=
