
     Program PWSCF v.7.0 starts on  4Apr2023 at  8:56:52 

     This program is part of the open-source Quantum ESPRESSO suite
     for quantum simulation of materials; please cite
         "P. Giannozzi et al., J. Phys.:Condens. Matter 21 395502 (2009);
         "P. Giannozzi et al., J. Phys.:Condens. Matter 29 465901 (2017);
         "P. Giannozzi et al., J. Chem. Phys. 152 154105 (2020);
          URL http://www.quantum-espresso.org", 
     in publications or presentations arising from this work. More details at
     http://www.quantum-espresso.org/quote

     Parallel version (MPI), running on     1 processors

     MPI processes distributed on     1 nodes
     19558 MiB available memory on the printing compute node when the environment starts
 
     Waiting for input...
     Reading input from standard input
Warning: card &CELL ignored
Warning: card / ignored

     Current dimensions of program PWSCF are:
     Max number of different atomic species (ntypx) = 10
     Max number of k-points (npk) =  40000
     Max angular momentum in pseudopotentials (lmaxx) =  4
     file Al.SCAN.UPF2: wavefunction(s)  0D renormalized

     WARNING: the MGGA functional with ID    5 has been 
     read together with other dft terms, but it should 
     stand alone in order to work properly. The other 
     terms will be ignored.

     Subspace diagonalization in iterative solution of the eigenvalue problem:
     a serial algorithm will be used

 
     G-vector sticks info
     --------------------
     sticks:   dense  smooth     PW     G-vecs:    dense   smooth      PW
     Sum         733     733    223                12939    12939    2229
 
     Using Slab Decomposition
 


     bravais-lattice index     =            2
     lattice parameter (alat)  =       9.3730  a.u.
     unit-cell volume          =     205.8646 (a.u.)^3
     number of atoms/cell      =            1
     number of atomic types    =            1
     number of electrons       =         3.00
     number of Kohn-Sham states=            6
     kinetic-energy cutoff     =      60.0000  Ry
     charge density cutoff     =     240.0000  Ry
     scf convergence threshold =      1.0E-06
     mixing beta               =       0.0100
     number of iterations used =            8  local-TF  mixing
     Exchange-correlation= SLA  PW   SCAN SCAN
                           (   0   0   0   0   0 263 267)

     celldm(1)=   9.373042  celldm(2)=   0.000000  celldm(3)=   0.000000
     celldm(4)=   0.000000  celldm(5)=   0.000000  celldm(6)=   0.000000

     crystal axes: (cart. coord. in units of alat)
               a(1) = (  -0.500000   0.000000   0.500000 )  
               a(2) = (   0.000000   0.500000   0.500000 )  
               a(3) = (  -0.500000   0.500000   0.000000 )  

     reciprocal axes: (cart. coord. in units 2 pi/alat)
               b(1) = ( -1.000000 -1.000000  1.000000 )  
               b(2) = (  1.000000  1.000000  1.000000 )  
               b(3) = ( -1.000000  1.000000 -1.000000 )  


     PseudoPot. # 1 for Al read from file:
     ~/Documents/TA/PWDFT.jl/pseudopotentials/scan_upf/Al.SCAN.UPF2
     MD5 check sum: Not computed, couldn't open file
     Pseudo is Norm-conserving, Zval =  3.0
     Generated by new atomic code, or converted to UPF format
     Using radial grid of 1467 points,  2 beta functions with: 
                l(1) =   0
                l(2) =   1

     atomic species   valence    mass     pseudopotential
        Al             3.00    26.98154     Al( 1.00)

     48 Sym. Ops., with inversion, found



   Cartesian axes

     site n.     atom                  positions (alat units)
         1           Al  tau(   1) = (   0.0000000   0.0000000   0.0000000  )

     number of k points=    47  Gaussian smearing, width (Ry)=  0.1000
                       cart. coord. in units 2pi/alat
        k(    1) = (   0.0000000   0.0000000   0.0000000), wk =   0.0020000
        k(    2) = (  -0.1000000   0.1000000  -0.1000000), wk =   0.0160000
        k(    3) = (  -0.2000000   0.2000000  -0.2000000), wk =   0.0160000
        k(    4) = (  -0.3000000   0.3000000  -0.3000000), wk =   0.0160000
        k(    5) = (  -0.4000000   0.4000000  -0.4000000), wk =   0.0160000
        k(    6) = (   0.5000000  -0.5000000   0.5000000), wk =   0.0080000
        k(    7) = (   0.0000000   0.2000000   0.0000000), wk =   0.0120000
        k(    8) = (  -0.1000000   0.3000000  -0.1000000), wk =   0.0480000
        k(    9) = (  -0.2000000   0.4000000  -0.2000000), wk =   0.0480000
        k(   10) = (  -0.3000000   0.5000000  -0.3000000), wk =   0.0480000
        k(   11) = (   0.6000000  -0.4000000   0.6000000), wk =   0.0480000
        k(   12) = (   0.5000000  -0.3000000   0.5000000), wk =   0.0480000
        k(   13) = (   0.4000000  -0.2000000   0.4000000), wk =   0.0480000
        k(   14) = (   0.3000000  -0.1000000   0.3000000), wk =   0.0480000
        k(   15) = (   0.2000000   0.0000000   0.2000000), wk =   0.0240000
        k(   16) = (   0.0000000   0.4000000   0.0000000), wk =   0.0120000
        k(   17) = (  -0.1000000   0.5000000  -0.1000000), wk =   0.0480000
        k(   18) = (  -0.2000000   0.6000000  -0.2000000), wk =   0.0480000
        k(   19) = (   0.7000000  -0.3000000   0.7000000), wk =   0.0480000
        k(   20) = (   0.6000000  -0.2000000   0.6000000), wk =   0.0480000
        k(   21) = (   0.5000000  -0.1000000   0.5000000), wk =   0.0480000
        k(   22) = (   0.4000000   0.0000000   0.4000000), wk =   0.0240000
        k(   23) = (   0.0000000   0.6000000   0.0000000), wk =   0.0120000
        k(   24) = (  -0.1000000   0.7000000  -0.1000000), wk =   0.0480000
        k(   25) = (   0.8000000  -0.2000000   0.8000000), wk =   0.0480000
        k(   26) = (   0.7000000  -0.1000000   0.7000000), wk =   0.0480000
        k(   27) = (   0.6000000  -0.0000000   0.6000000), wk =   0.0240000
        k(   28) = (   0.0000000   0.8000000   0.0000000), wk =   0.0120000
        k(   29) = (   0.9000000  -0.1000000   0.9000000), wk =   0.0480000
        k(   30) = (   0.8000000   0.0000000   0.8000000), wk =   0.0240000
        k(   31) = (   0.0000000  -1.0000000   0.0000000), wk =   0.0060000
        k(   32) = (  -0.2000000   0.4000000   0.0000000), wk =   0.0480000
        k(   33) = (  -0.3000000   0.5000000  -0.1000000), wk =   0.0960000
        k(   34) = (   0.6000000  -0.4000000   0.8000000), wk =   0.0960000
        k(   35) = (   0.5000000  -0.3000000   0.7000000), wk =   0.0480000
        k(   36) = (  -0.2000000   0.6000000   0.0000000), wk =   0.0480000
        k(   37) = (   0.7000000  -0.3000000   0.9000000), wk =   0.0960000
        k(   38) = (   0.6000000  -0.2000000   0.8000000), wk =   0.0960000
        k(   39) = (   0.5000000  -0.1000000   0.7000000), wk =   0.0960000
        k(   40) = (   0.4000000   0.0000000   0.6000000), wk =   0.0480000
        k(   41) = (   0.8000000  -0.2000000   1.0000000), wk =   0.0480000
        k(   42) = (   0.7000000  -0.1000000   0.9000000), wk =   0.0960000
        k(   43) = (   0.6000000   0.0000000   0.8000000), wk =   0.0480000
        k(   44) = (  -0.2000000  -1.0000000   0.0000000), wk =   0.0240000
        k(   45) = (   0.6000000  -0.2000000   1.0000000), wk =   0.0480000
        k(   46) = (   0.5000000  -0.1000000   0.9000000), wk =   0.0480000
        k(   47) = (  -0.4000000  -1.0000000   0.0000000), wk =   0.0240000

     Dense  grid:    12939 G-vectors     FFT dimensions: (  36,  36,  36)

     Estimated max dynamical RAM per process >      27.31 MB

     WARNING: libxc functional with ID  263 depends
      on external parameters: check the user_guide of
      QE if you need to modify them or to check their
      default values.

     Initial potential from superposition of free atoms

     starting charge       2.9979, renormalised to       3.0000
     Starting wfcs are    9 randomized atomic wfcs

     total cpu time spent up to now is        4.3 secs

     Self-consistent Calculation

     iteration #  1     ecut=    60.00 Ry     beta= 0.01
     Davidson diagonalization with overlap
     ethr =  1.00E-02,  avg # of iterations =  3.0

     Threshold (ethr) on eigenvalues was too large:
     Diagonalizing with lowered threshold

     Davidson diagonalization with overlap
     ethr =  1.57E-04,  avg # of iterations =  2.1

     total cpu time spent up to now is       22.7 secs

     total energy              =      -4.08681698 Ry
     estimated scf accuracy    <       0.00466066 Ry

     iteration #  2     ecut=    60.00 Ry     beta= 0.01
     Davidson diagonalization with overlap
     ethr =  1.55E-04,  avg # of iterations =  1.0

     total cpu time spent up to now is       28.5 secs

     total energy              =      -4.09271556 Ry
     estimated scf accuracy    <       0.00456764 Ry

     iteration #  3     ecut=    60.00 Ry     beta= 0.01
     Davidson diagonalization with overlap
     ethr =  1.52E-04,  avg # of iterations =  2.1

     total cpu time spent up to now is       39.0 secs

     total energy              =      -4.09418209 Ry
     estimated scf accuracy    <       0.00048289 Ry

     iteration #  4     ecut=    60.00 Ry     beta= 0.01
     Davidson diagonalization with overlap
     ethr =  1.61E-05,  avg # of iterations =  2.7

     total cpu time spent up to now is       47.8 secs

     total energy              =      -4.09431578 Ry
     estimated scf accuracy    <       0.00017587 Ry

     iteration #  5     ecut=    60.00 Ry     beta= 0.01
     Davidson diagonalization with overlap
     ethr =  5.86E-06,  avg # of iterations =  1.4

     total cpu time spent up to now is       55.5 secs

     total energy              =      -4.09489105 Ry
     estimated scf accuracy    <       0.00020581 Ry

     iteration #  6     ecut=    60.00 Ry     beta= 0.01
     Davidson diagonalization with overlap
     ethr =  5.86E-06,  avg # of iterations =  2.1

     total cpu time spent up to now is       65.4 secs

     total energy              =      -4.09522223 Ry
     estimated scf accuracy    <       0.00001522 Ry

     iteration #  7     ecut=    60.00 Ry     beta= 0.01
     Davidson diagonalization with overlap
     ethr =  5.07E-07,  avg # of iterations =  3.2

     total cpu time spent up to now is       73.6 secs

     total energy              =      -4.09546222 Ry
     estimated scf accuracy    <       0.00001031 Ry

     iteration #  8     ecut=    60.00 Ry     beta= 0.01
     Davidson diagonalization with overlap
     ethr =  3.44E-07,  avg # of iterations =  2.1

     total cpu time spent up to now is       81.3 secs

     total energy              =      -4.09542942 Ry
     estimated scf accuracy    <       0.00004199 Ry

     iteration #  9     ecut=    60.00 Ry     beta= 0.01
     Davidson diagonalization with overlap
     ethr =  3.44E-07,  avg # of iterations =  2.0

     total cpu time spent up to now is       87.4 secs

     total energy              =      -4.09514114 Ry
     estimated scf accuracy    <       0.00002301 Ry

     iteration # 10     ecut=    60.00 Ry     beta= 0.01
     Davidson diagonalization with overlap
     ethr =  3.44E-07,  avg # of iterations =  2.5

     total cpu time spent up to now is       95.0 secs

     End of self-consistent calculation

          k = 0.0000 0.0000 0.0000 (  1639 PWs)   bands (ev):

    -5.2466  11.2101  11.2101  11.2101  13.4075  13.4075

          k =-0.1000 0.1000-0.1000 (  1606 PWs)   bands (ev):

    -5.0553   9.4368  10.8565  10.8565  13.4421  13.9609

          k =-0.2000 0.2000-0.2000 (  1606 PWs)   bands (ev):

    -4.4836   6.6831  10.3253  10.3253  13.1257  14.4123

          k =-0.3000 0.3000-0.3000 (  1624 PWs)   bands (ev):

    -3.5404   4.0470   9.9612   9.9613  12.8529  13.6134

          k =-0.4000 0.4000-0.4000 (  1616 PWs)   bands (ev):

    -2.2582   1.7220   9.7908   9.7908  12.7363  12.8608

          k = 0.5000-0.5000 0.5000 (  1622 PWs)   bands (ev):

    -1.1029   0.2158   9.7496   9.7496  12.5794  12.7171

          k = 0.0000 0.2000 0.0000 (  1599 PWs)   bands (ev):

    -4.9915  10.0544  10.0544  10.4778  12.1317  14.8751

          k =-0.1000 0.3000-0.1000 (  1609 PWs)   bands (ev):

    -4.5464   7.7233   9.3782  10.1507  12.2729  14.1615

          k =-0.2000 0.4000-0.2000 (  1607 PWs)   bands (ev):

    -3.7262   5.0448   8.9758   9.5328  12.0710  14.1427

          k =-0.3000 0.5000-0.3000 (  1610 PWs)   bands (ev):

    -2.5505   2.6102   8.8766   8.9168  11.5884  14.1777

          k = 0.6000-0.4000 0.6000 (  1613 PWs)   bands (ev):

    -1.1674   0.6463   8.3712   9.0725  11.5974  13.5929

          k = 0.5000-0.3000 0.5000 (  1616 PWs)   bands (ev):

    -1.6153   1.2113   8.0095   9.5246  12.0878  13.2574

          k = 0.4000-0.2000 0.4000 (  1621 PWs)   bands (ev):

    -2.9797   3.3875   7.9166  10.1489  12.9646  13.3815

          k = 0.3000-0.1000 0.3000 (  1605 PWs)   bands (ev):

    -4.0409   5.9245   8.1311  10.8035  13.8537  13.9538

          k = 0.2000 0.0000 0.2000 (  1600 PWs)   bands (ev):

    -4.7371   8.5596   8.7451  11.2176  13.7532  13.9033

          k = 0.0000 0.4000 0.0000 (  1607 PWs)   bands (ev):

    -4.2287   8.5855   8.5855   8.7864  10.4720  12.3141

          k =-0.1000 0.5000-0.1000 (  1623 PWs)   bands (ev):

    -3.5343   6.2904   8.0827   8.1284  10.5175  11.9497

          k =-0.2000 0.6000-0.2000 (  1626 PWs)   bands (ev):

    -2.4761   3.8268   7.1236   7.9017  10.2299  13.6236

          k = 0.7000-0.3000 0.7000 (  1617 PWs)   bands (ev):

    -1.1160   1.6786   6.2665   8.0472  10.2871  15.4100

          k = 0.6000-0.2000 0.6000 (  1596 PWs)   bands (ev):

    -0.6765   1.1300   5.6828   8.5088  10.7649  15.0584

          k = 0.5000-0.1000 0.5000 (  1610 PWs)   bands (ev):

    -2.0546   3.0868   5.4215   9.2517  11.6264  14.8395

          k = 0.4000 0.0000 0.4000 (  1610 PWs)   bands (ev):

    -3.2247   5.4646   5.5384  10.1664  12.8143  14.8472

          k = 0.0000 0.6000 0.0000 (  1620 PWs)   bands (ev):

    -2.9665   6.3531   7.4727   7.4727   9.2183  10.1780

          k =-0.1000 0.7000-0.1000 (  1625 PWs)   bands (ev):

    -2.0317   4.8095   5.8981   7.1869   9.2694  10.8292

          k = 0.8000-0.2000 0.8000 (  1627 PWs)   bands (ev):

    -0.7629   2.9658   4.4534   7.2352   9.3092  13.0134

          k = 0.7000-0.1000 0.7000 (  1621 PWs)   bands (ev):

     0.3532   1.6203   3.5979   7.6147   9.7141  15.4937

          k = 0.6000-0.0000 0.6000 (  1618 PWs)   bands (ev):

    -0.8002   3.1214   3.1834   8.3076  10.4967  16.5703

          k = 0.0000 0.8000 0.0000 (  1628 PWs)   bands (ev):

    -1.2221   3.5797   6.7922   6.7922   8.4543   9.1467

          k = 0.9000-0.1000 0.9000 (  1623 PWs)   bands (ev):

    -0.0699   2.3396   5.1531   6.7329   8.6963  10.3163

          k = 0.8000 0.0000 0.8000 (  1622 PWs)   bands (ev):

     1.0605   1.6503   3.2989   7.0104   9.0245  12.7978

          k = 0.0000-1.0000 0.0000 (  1604 PWs)   bands (ev):

     0.8136   1.1576   6.5637   6.5637   8.1984   8.8367

          k =-0.2000 0.4000 0.0000 (  1613 PWs)   bands (ev):

    -3.9767   7.0017   7.1671   9.9419  12.3277  13.1279

          k =-0.3000 0.5000-0.1000 (  1609 PWs)   bands (ev):

    -3.0369   4.4994   6.7541   9.0406  12.2641  13.8448

          k = 0.6000-0.4000 0.8000 (  1618 PWs)   bands (ev):

    -1.7593   2.1964   6.7079   8.1942  12.1383  13.4640

          k = 0.5000-0.3000 0.7000 (  1608 PWs)   bands (ev):

    -0.6065   0.6972   6.7774   7.8127  12.1848  13.1011

          k =-0.2000 0.6000 0.0000 (  1617 PWs)   bands (ev):

    -2.7197   5.6306   5.9886   7.4092  11.1613  11.5445

          k = 0.7000-0.3000 0.9000 (  1621 PWs)   bands (ev):

    -1.5527   3.4900   5.4406   6.5480  11.2422  13.3468

          k = 0.6000-0.2000 0.8000 (  1613 PWs)   bands (ev):

    -0.1817   1.5840   4.8890   6.4956  11.4889  14.7433

          k = 0.5000-0.1000 0.7000 (  1613 PWs)   bands (ev):

    -0.6364   2.1631   4.4459   7.0320  12.0559  14.4718

          k = 0.4000 0.0000 0.6000 (  1619 PWs)   bands (ev):

    -1.9863   4.2704   4.3353   7.9423  12.8146  14.1670

          k = 0.8000-0.2000 1.0000 (  1625 PWs)   bands (ev):

    -0.9866   3.6651   5.2713   5.7546  10.4430  10.7431

          k = 0.7000-0.1000 0.9000 (  1625 PWs)   bands (ev):

     0.3468   2.5021   3.6234   5.6666  10.7522  12.9510

          k = 0.6000 0.0000 0.8000 (  1614 PWs)   bands (ev):

     0.6605   2.3870   2.6827   6.1635  11.2606  15.4361

          k =-0.2000-1.0000 0.0000 (  1624 PWs)   bands (ev):

     0.9896   1.4041   5.0310   5.3821  10.2014  10.4880

          k = 0.6000-0.2000 1.0000 (  1616 PWs)   bands (ev):

    -0.3030   3.3496   3.6061   5.2877  13.1712  13.4951

          k = 0.5000-0.1000 0.9000 (  1618 PWs)   bands (ev):

     0.8133   2.0745   3.5691   4.7975  13.3144  14.4166

          k =-0.4000-1.0000 0.0000 (  1626 PWs)   bands (ev):

     1.3731   2.1415   3.3622   4.1555  13.1132  13.2666

     the Fermi energy is     2.7833 ev

!    total energy              =      -4.09523301 Ry
     estimated scf accuracy    <       0.00000080 Ry
     smearing contrib. (-TS)   =      -0.03883625 Ry
     internal energy E=F+TS    =      -4.05639676 Ry

     The total energy is F=E-TS. E is the sum of the following terms:
     one-electron contribution =       1.65681098 Ry
     hartree contribution      =       0.03705084 Ry
     xc contribution           =      -1.34787134 Ry
     ewald contribution        =      -4.40238724 Ry

     convergence has been achieved in  10 iterations
     Writing meta-gga kinetic term

     Writing all to output data dir ./input_pw/Al/1/pwscf.save/
     Writing meta-gga kinetic term
 
     init_run     :      2.21s CPU      4.20s WALL (       1 calls)
     electrons    :     51.77s CPU     90.72s WALL (       1 calls)

     Called by init_run:
     wfcinit      :      2.09s CPU      3.91s WALL (       1 calls)
     potinit      :      0.03s CPU      0.11s WALL (       1 calls)
     hinit0       :      0.07s CPU      0.13s WALL (       1 calls)

     Called by electrons:
     c_bands      :     42.65s CPU     74.98s WALL (      11 calls)
     sum_band     :      8.57s CPU     14.72s WALL (      11 calls)
     v_of_rho     :      0.37s CPU      0.71s WALL (      11 calls)
     mix_rho      :      0.20s CPU      0.39s WALL (      11 calls)

     Called by c_bands:
     init_us_2    :      0.21s CPU      0.43s WALL (    1081 calls)
     init_us_2:cp :      0.21s CPU      0.40s WALL (    1081 calls)
     cegterg      :     42.42s CPU     74.49s WALL (     517 calls)

     Called by *egterg:
     cdiaghg      :      0.17s CPU      0.22s WALL (    1611 calls)
     h_psi        :     43.62s CPU     76.89s WALL (    1705 calls)
     g_psi        :      0.03s CPU      0.07s WALL (    1141 calls)

     Called by h_psi:
     h_psi:calbec :      0.13s CPU      0.23s WALL (    1705 calls)
     vloc_psi     :     10.89s CPU     18.82s WALL (    1705 calls)
     add_vuspsi   :      0.09s CPU      0.16s WALL (    1705 calls)
     h_psi_meta   :     32.44s CPU     57.54s WALL (    1705 calls)

     General routines
     calbec       :      0.13s CPU      0.21s WALL (    1705 calls)
     fft          :      0.08s CPU      0.15s WALL (     131 calls)
     ffts         :      0.08s CPU      0.17s WALL (     139 calls)
     fftw         :     43.34s CPU     76.94s WALL (   83536 calls)
     interpolate  :      0.00s CPU      0.00s WALL (      11 calls)
 
     Parallel routines
 
     PWSCF        :     54.02s CPU   1m35.02s WALL

 
   This run was terminated on:   8:58:27   4Apr2023            

=------------------------------------------------------------------------------=
   JOB DONE.
=------------------------------------------------------------------------------=
