
     Program PWSCF v.7.0 starts on  4Apr2023 at  9:49: 0 

     This program is part of the open-source Quantum ESPRESSO suite
     for quantum simulation of materials; please cite
         "P. Giannozzi et al., J. Phys.:Condens. Matter 21 395502 (2009);
         "P. Giannozzi et al., J. Phys.:Condens. Matter 29 465901 (2017);
         "P. Giannozzi et al., J. Chem. Phys. 152 154105 (2020);
          URL http://www.quantum-espresso.org", 
     in publications or presentations arising from this work. More details at
     http://www.quantum-espresso.org/quote

     Parallel version (MPI), running on     1 processors

     MPI processes distributed on     1 nodes
     19847 MiB available memory on the printing compute node when the environment starts
 
     Waiting for input...
     Reading input from standard input
Warning: card &CELL ignored
Warning: card / ignored

     Current dimensions of program PWSCF are:
     Max number of different atomic species (ntypx) = 10
     Max number of k-points (npk) =  40000
     Max angular momentum in pseudopotentials (lmaxx) =  4
     file Al.SCAN.UPF2: wavefunction(s)  0D renormalized

     WARNING: the MGGA functional with ID    5 has been 
     read together with other dft terms, but it should 
     stand alone in order to work properly. The other 
     terms will be ignored.

     Subspace diagonalization in iterative solution of the eigenvalue problem:
     a serial algorithm will be used

 
     G-vector sticks info
     --------------------
     sticks:   dense  smooth     PW     G-vecs:    dense   smooth      PW
     Sum         361     361    121                 4477     4477     893
 
     Using Slab Decomposition
 


     bravais-lattice index     =            2
     lattice parameter (alat)  =       6.5611  a.u.
     unit-cell volume          =      70.6116 (a.u.)^3
     number of atoms/cell      =            1
     number of atomic types    =            1
     number of electrons       =         3.00
     number of Kohn-Sham states=            6
     kinetic-energy cutoff     =      60.0000  Ry
     charge density cutoff     =     240.0000  Ry
     scf convergence threshold =      1.0E-06
     mixing beta               =       0.0100
     number of iterations used =            8  local-TF  mixing
     Exchange-correlation= SLA  PW   SCAN SCAN
                           (   0   0   0   0   0 263 267)

     celldm(1)=   6.561129  celldm(2)=   0.000000  celldm(3)=   0.000000
     celldm(4)=   0.000000  celldm(5)=   0.000000  celldm(6)=   0.000000

     crystal axes: (cart. coord. in units of alat)
               a(1) = (  -0.500000   0.000000   0.500000 )  
               a(2) = (   0.000000   0.500000   0.500000 )  
               a(3) = (  -0.500000   0.500000   0.000000 )  

     reciprocal axes: (cart. coord. in units 2 pi/alat)
               b(1) = ( -1.000000 -1.000000  1.000000 )  
               b(2) = (  1.000000  1.000000  1.000000 )  
               b(3) = ( -1.000000  1.000000 -1.000000 )  


     PseudoPot. # 1 for Al read from file:
     ~/Documents/TA/PWDFT.jl/pseudopotentials/scan_upf/Al.SCAN.UPF2
     MD5 check sum: Not computed, couldn't open file
     Pseudo is Norm-conserving, Zval =  3.0
     Generated by new atomic code, or converted to UPF format
     Using radial grid of 1467 points,  2 beta functions with: 
                l(1) =   0
                l(2) =   1

     atomic species   valence    mass     pseudopotential
        Al             3.00    26.98154     Al( 1.00)

     Starting magnetic structure 
     atomic species   magnetization
        Al           1.000

     48 Sym. Ops., with inversion, found



   Cartesian axes

     site n.     atom                  positions (alat units)
         1           Al  tau(   1) = (   0.0000000   0.0000000   0.0000000  )

     number of k points=    47  Gaussian smearing, width (Ry)=  0.1000
                       cart. coord. in units 2pi/alat
        k(    1) = (   0.0000000   0.0000000   0.0000000), wk =   0.0010000
        k(    2) = (  -0.1000000   0.1000000  -0.1000000), wk =   0.0080000
        k(    3) = (  -0.2000000   0.2000000  -0.2000000), wk =   0.0080000
        k(    4) = (  -0.3000000   0.3000000  -0.3000000), wk =   0.0080000
        k(    5) = (  -0.4000000   0.4000000  -0.4000000), wk =   0.0080000
        k(    6) = (   0.5000000  -0.5000000   0.5000000), wk =   0.0040000
        k(    7) = (   0.0000000   0.2000000   0.0000000), wk =   0.0060000
        k(    8) = (  -0.1000000   0.3000000  -0.1000000), wk =   0.0240000
        k(    9) = (  -0.2000000   0.4000000  -0.2000000), wk =   0.0240000
        k(   10) = (  -0.3000000   0.5000000  -0.3000000), wk =   0.0240000
        k(   11) = (   0.6000000  -0.4000000   0.6000000), wk =   0.0240000
        k(   12) = (   0.5000000  -0.3000000   0.5000000), wk =   0.0240000
        k(   13) = (   0.4000000  -0.2000000   0.4000000), wk =   0.0240000
        k(   14) = (   0.3000000  -0.1000000   0.3000000), wk =   0.0240000
        k(   15) = (   0.2000000   0.0000000   0.2000000), wk =   0.0120000
        k(   16) = (   0.0000000   0.4000000   0.0000000), wk =   0.0060000
        k(   17) = (  -0.1000000   0.5000000  -0.1000000), wk =   0.0240000
        k(   18) = (  -0.2000000   0.6000000  -0.2000000), wk =   0.0240000
        k(   19) = (   0.7000000  -0.3000000   0.7000000), wk =   0.0240000
        k(   20) = (   0.6000000  -0.2000000   0.6000000), wk =   0.0240000
        k(   21) = (   0.5000000  -0.1000000   0.5000000), wk =   0.0240000
        k(   22) = (   0.4000000   0.0000000   0.4000000), wk =   0.0120000
        k(   23) = (   0.0000000   0.6000000   0.0000000), wk =   0.0060000
        k(   24) = (  -0.1000000   0.7000000  -0.1000000), wk =   0.0240000
        k(   25) = (   0.8000000  -0.2000000   0.8000000), wk =   0.0240000
        k(   26) = (   0.7000000  -0.1000000   0.7000000), wk =   0.0240000
        k(   27) = (   0.6000000  -0.0000000   0.6000000), wk =   0.0120000
        k(   28) = (   0.0000000   0.8000000   0.0000000), wk =   0.0060000
        k(   29) = (   0.9000000  -0.1000000   0.9000000), wk =   0.0240000
        k(   30) = (   0.8000000   0.0000000   0.8000000), wk =   0.0120000
        k(   31) = (   0.0000000  -1.0000000   0.0000000), wk =   0.0030000
        k(   32) = (  -0.2000000   0.4000000   0.0000000), wk =   0.0240000
        k(   33) = (  -0.3000000   0.5000000  -0.1000000), wk =   0.0480000
        k(   34) = (   0.6000000  -0.4000000   0.8000000), wk =   0.0480000
        k(   35) = (   0.5000000  -0.3000000   0.7000000), wk =   0.0240000
        k(   36) = (  -0.2000000   0.6000000   0.0000000), wk =   0.0240000
        k(   37) = (   0.7000000  -0.3000000   0.9000000), wk =   0.0480000
        k(   38) = (   0.6000000  -0.2000000   0.8000000), wk =   0.0480000
        k(   39) = (   0.5000000  -0.1000000   0.7000000), wk =   0.0480000
        k(   40) = (   0.4000000   0.0000000   0.6000000), wk =   0.0240000
        k(   41) = (   0.8000000  -0.2000000   1.0000000), wk =   0.0240000
        k(   42) = (   0.7000000  -0.1000000   0.9000000), wk =   0.0480000
        k(   43) = (   0.6000000   0.0000000   0.8000000), wk =   0.0240000
        k(   44) = (  -0.2000000  -1.0000000   0.0000000), wk =   0.0120000
        k(   45) = (   0.6000000  -0.2000000   1.0000000), wk =   0.0240000
        k(   46) = (   0.5000000  -0.1000000   0.9000000), wk =   0.0240000
        k(   47) = (  -0.4000000  -1.0000000   0.0000000), wk =   0.0120000

     Dense  grid:     4477 G-vectors     FFT dimensions: (  24,  24,  24)

     Estimated max dynamical RAM per process >      15.40 MB

     WARNING: libxc functional with ID  263 depends
      on external parameters: check the user_guide of
      QE if you need to modify them or to check their
      default values.
     Generating pointlists ...
     new r_m :   0.2917 (alat units)  1.9138 (a.u.) for type    1

     Initial potential from superposition of free atoms

     starting charge       2.9979, renormalised to       3.0000
     Starting wfcs are    9 randomized atomic wfcs

     total cpu time spent up to now is        2.7 secs

     Self-consistent Calculation

     iteration #  1     ecut=    60.00 Ry     beta= 0.01
     Davidson diagonalization with overlap
     c_bands:  5 eigenvalues not converged
     c_bands:  5 eigenvalues not converged
     c_bands:  5 eigenvalues not converged
     c_bands:  5 eigenvalues not converged
     c_bands:  5 eigenvalues not converged
     c_bands:  5 eigenvalues not converged
     c_bands:  5 eigenvalues not converged
     c_bands:  5 eigenvalues not converged
     c_bands:  5 eigenvalues not converged
     c_bands:  5 eigenvalues not converged
     c_bands:  5 eigenvalues not converged
     c_bands:  5 eigenvalues not converged
     c_bands:  5 eigenvalues not converged
     c_bands:  5 eigenvalues not converged
     c_bands:  5 eigenvalues not converged
     c_bands:  5 eigenvalues not converged
     c_bands:  5 eigenvalues not converged
     c_bands:  5 eigenvalues not converged
     c_bands:  5 eigenvalues not converged
     c_bands:  5 eigenvalues not converged
     c_bands:  5 eigenvalues not converged
     c_bands:  5 eigenvalues not converged
     c_bands:  5 eigenvalues not converged
     c_bands:  5 eigenvalues not converged
     c_bands:  5 eigenvalues not converged
     c_bands:  5 eigenvalues not converged
     c_bands:  5 eigenvalues not converged
     c_bands:  5 eigenvalues not converged
     c_bands:  5 eigenvalues not converged
     c_bands:  5 eigenvalues not converged
     c_bands:  5 eigenvalues not converged
     c_bands:  5 eigenvalues not converged
     c_bands:  5 eigenvalues not converged
     c_bands:  5 eigenvalues not converged
     c_bands:  5 eigenvalues not converged
     c_bands:  5 eigenvalues not converged
     c_bands:  5 eigenvalues not converged
     c_bands:  5 eigenvalues not converged
     c_bands:  5 eigenvalues not converged
     c_bands:  5 eigenvalues not converged
     c_bands:  5 eigenvalues not converged
     c_bands:  5 eigenvalues not converged
     c_bands:  5 eigenvalues not converged
     c_bands:  5 eigenvalues not converged
     c_bands:  5 eigenvalues not converged
     c_bands:  5 eigenvalues not converged
     c_bands:  5 eigenvalues not converged
     ethr =  1.00E-02,  avg # of iterations = 13.1

     negative rho (up,down):  0.000E+00 4.929E-06

     total cpu time spent up to now is       21.4 secs

     total energy              =    -563.02403392 Ry
     estimated scf accuracy    <   96904.76672468 Ry

     total magnetization       =    -3.00 Bohr mag/cell
     absolute magnetization    =     3.00 Bohr mag/cell

     iteration #  2     ecut=    60.00 Ry     beta= 0.01
     Davidson diagonalization with overlap
     ethr =  1.00E-02,  avg # of iterations =  3.7

     total cpu time spent up to now is       28.7 secs

     total energy              =      -3.78295761 Ry
     estimated scf accuracy    <     139.44640689 Ry

     total magnetization       =     0.97 Bohr mag/cell
     absolute magnetization    =     0.97 Bohr mag/cell

     iteration #  3     ecut=    60.00 Ry     beta= 0.01
     Davidson diagonalization with overlap
     ethr =  1.00E-02,  avg # of iterations =  1.0

     negative rho (up,down):  0.000E+00 4.239E-01

     total cpu time spent up to now is       32.5 secs

     total energy              =      -3.27978450 Ry
     estimated scf accuracy    <     134.92190526 Ry

     total magnetization       =     0.92 Bohr mag/cell
     absolute magnetization    =     0.92 Bohr mag/cell

     iteration #  4     ecut=    60.00 Ry     beta= 0.01
     Davidson diagonalization with overlap
     ethr =  1.00E-02,  avg # of iterations =  1.5

     total cpu time spent up to now is       37.1 secs

     total energy              =      -3.60107673 Ry
     estimated scf accuracy    <     308.95761078 Ry

     total magnetization       =     1.64 Bohr mag/cell
     absolute magnetization    =     1.64 Bohr mag/cell

     iteration #  5     ecut=    60.00 Ry     beta= 0.01
     Davidson diagonalization with overlap
     ethr =  1.00E-02,  avg # of iterations =  1.6

     total cpu time spent up to now is       41.8 secs

     total energy              =      -4.02162978 Ry
     estimated scf accuracy    <      67.34576353 Ry

     total magnetization       =     0.70 Bohr mag/cell
     absolute magnetization    =     0.70 Bohr mag/cell

     iteration #  6     ecut=    60.00 Ry     beta= 0.01
     Davidson diagonalization with overlap
     ethr =  1.00E-02,  avg # of iterations =  1.0

     total cpu time spent up to now is       45.7 secs

     total energy              =      -4.07749753 Ry
     estimated scf accuracy    <       2.47153736 Ry

     total magnetization       =     0.25 Bohr mag/cell
     absolute magnetization    =     0.25 Bohr mag/cell

     iteration #  7     ecut=    60.00 Ry     beta= 0.01
     Davidson diagonalization with overlap
     ethr =  1.00E-02,  avg # of iterations =  1.0

     total cpu time spent up to now is       49.6 secs

     total energy              =      -4.06093823 Ry
     estimated scf accuracy    <       6.88173281 Ry

     total magnetization       =     0.18 Bohr mag/cell
     absolute magnetization    =     0.18 Bohr mag/cell

     iteration #  8     ecut=    60.00 Ry     beta= 0.01
     Davidson diagonalization with overlap
     ethr =  1.00E-02,  avg # of iterations =  1.0

     total cpu time spent up to now is       53.5 secs

     total energy              =      -4.04467899 Ry
     estimated scf accuracy    <       4.05806852 Ry

     total magnetization       =     0.22 Bohr mag/cell
     absolute magnetization    =     0.23 Bohr mag/cell

     iteration #  9     ecut=    60.00 Ry     beta= 0.01
     Davidson diagonalization with overlap
     ethr =  1.00E-02,  avg # of iterations =  1.0

     total cpu time spent up to now is       57.4 secs

     total energy              =      -4.08007951 Ry
     estimated scf accuracy    <       1.94751606 Ry

     total magnetization       =     0.26 Bohr mag/cell
     absolute magnetization    =     0.26 Bohr mag/cell

     iteration # 10     ecut=    60.00 Ry     beta= 0.01
     Davidson diagonalization with overlap
     ethr =  1.00E-02,  avg # of iterations =  1.0

     total cpu time spent up to now is       61.3 secs

     total energy              =      -4.06401236 Ry
     estimated scf accuracy    <       6.50003803 Ry

     total magnetization       =     0.10 Bohr mag/cell
     absolute magnetization    =     0.12 Bohr mag/cell

     iteration # 11     ecut=    60.00 Ry     beta= 0.01
     Davidson diagonalization with overlap
     ethr =  1.00E-02,  avg # of iterations =  1.0

     total cpu time spent up to now is       65.3 secs

     total energy              =      -4.07158663 Ry
     estimated scf accuracy    <       0.00180977 Ry

     total magnetization       =    -0.02 Bohr mag/cell
     absolute magnetization    =     0.03 Bohr mag/cell

     iteration # 12     ecut=    60.00 Ry     beta= 0.01
     Davidson diagonalization with overlap
     ethr =  6.03E-05,  avg # of iterations =  1.8

     total cpu time spent up to now is       69.5 secs

     total energy              =      -4.07163148 Ry
     estimated scf accuracy    <       0.00308819 Ry

     total magnetization       =    -0.02 Bohr mag/cell
     absolute magnetization    =     0.02 Bohr mag/cell

     iteration # 13     ecut=    60.00 Ry     beta= 0.01
     Davidson diagonalization with overlap
     ethr =  6.03E-05,  avg # of iterations =  1.0

     total cpu time spent up to now is       73.4 secs

     total energy              =      -4.07103469 Ry
     estimated scf accuracy    <       0.00160363 Ry

     total magnetization       =    -0.02 Bohr mag/cell
     absolute magnetization    =     0.03 Bohr mag/cell

     iteration # 14     ecut=    60.00 Ry     beta= 0.01
     Davidson diagonalization with overlap
     ethr =  5.35E-05,  avg # of iterations =  1.1

     total cpu time spent up to now is       77.3 secs

     total energy              =      -4.07064175 Ry
     estimated scf accuracy    <       0.00052055 Ry

     total magnetization       =     0.00 Bohr mag/cell
     absolute magnetization    =     0.01 Bohr mag/cell

     iteration # 15     ecut=    60.00 Ry     beta= 0.01
     Davidson diagonalization with overlap
     ethr =  1.74E-05,  avg # of iterations =  2.3

     total cpu time spent up to now is       82.8 secs

     total energy              =      -4.07119949 Ry
     estimated scf accuracy    <       0.01560535 Ry

     total magnetization       =    -0.01 Bohr mag/cell
     absolute magnetization    =     0.01 Bohr mag/cell

     iteration # 16     ecut=    60.00 Ry     beta= 0.01
     Davidson diagonalization with overlap
     ethr =  1.74E-05,  avg # of iterations =  1.9

     total cpu time spent up to now is       87.8 secs

     total energy              =      -4.07151028 Ry
     estimated scf accuracy    <       0.00255298 Ry

     total magnetization       =    -0.02 Bohr mag/cell
     absolute magnetization    =     0.02 Bohr mag/cell

     iteration # 17     ecut=    60.00 Ry     beta= 0.01
     Davidson diagonalization with overlap
     ethr =  1.74E-05,  avg # of iterations =  1.3

     total cpu time spent up to now is       91.9 secs

     total energy              =      -4.07110980 Ry
     estimated scf accuracy    <       0.00082445 Ry

     total magnetization       =    -0.00 Bohr mag/cell
     absolute magnetization    =     0.02 Bohr mag/cell

     iteration # 18     ecut=    60.00 Ry     beta= 0.01
     Davidson diagonalization with overlap
     ethr =  1.74E-05,  avg # of iterations =  2.1

     total cpu time spent up to now is       97.4 secs

     total energy              =      -4.07095136 Ry
     estimated scf accuracy    <       0.00102928 Ry

     total magnetization       =    -0.01 Bohr mag/cell
     absolute magnetization    =     0.01 Bohr mag/cell

     iteration # 19     ecut=    60.00 Ry     beta= 0.01
     Davidson diagonalization with overlap
     ethr =  1.74E-05,  avg # of iterations =  1.9

     total cpu time spent up to now is      101.8 secs

     total energy              =      -4.06993242 Ry
     estimated scf accuracy    <       0.00130405 Ry

     total magnetization       =    -0.00 Bohr mag/cell
     absolute magnetization    =     0.01 Bohr mag/cell

     iteration # 20     ecut=    60.00 Ry     beta= 0.01
     Davidson diagonalization with overlap
     ethr =  1.74E-05,  avg # of iterations =  2.1

     total cpu time spent up to now is      106.5 secs

     total energy              =      -4.06809049 Ry
     estimated scf accuracy    <       0.00065461 Ry

     total magnetization       =     0.00 Bohr mag/cell
     absolute magnetization    =     0.02 Bohr mag/cell

     iteration # 21     ecut=    60.00 Ry     beta= 0.01
     Davidson diagonalization with overlap
     ethr =  1.74E-05,  avg # of iterations =  2.1

     total cpu time spent up to now is      111.7 secs

     total energy              =      -4.07012406 Ry
     estimated scf accuracy    <       0.00032209 Ry

     total magnetization       =     0.00 Bohr mag/cell
     absolute magnetization    =     0.04 Bohr mag/cell

     iteration # 22     ecut=    60.00 Ry     beta= 0.01
     Davidson diagonalization with overlap
     ethr =  1.07E-05,  avg # of iterations =  2.0

     total cpu time spent up to now is      117.3 secs

     total energy              =      -4.07096134 Ry
     estimated scf accuracy    <       0.00027360 Ry

     total magnetization       =    -0.00 Bohr mag/cell
     absolute magnetization    =     0.01 Bohr mag/cell

     iteration # 23     ecut=    60.00 Ry     beta= 0.01
     Davidson diagonalization with overlap
     ethr =  9.12E-06,  avg # of iterations =  1.7

     total cpu time spent up to now is      121.5 secs

     total energy              =      -4.07111231 Ry
     estimated scf accuracy    <       0.00022707 Ry

     total magnetization       =    -0.00 Bohr mag/cell
     absolute magnetization    =     0.01 Bohr mag/cell

     iteration # 24     ecut=    60.00 Ry     beta= 0.01
     Davidson diagonalization with overlap
     ethr =  7.57E-06,  avg # of iterations =  1.7

     total cpu time spent up to now is      125.0 secs

     total energy              =      -4.07103203 Ry
     estimated scf accuracy    <       0.00015822 Ry

     total magnetization       =    -0.00 Bohr mag/cell
     absolute magnetization    =     0.00 Bohr mag/cell

     iteration # 25     ecut=    60.00 Ry     beta= 0.01
     Davidson diagonalization with overlap
     ethr =  5.27E-06,  avg # of iterations =  2.1

     total cpu time spent up to now is      130.2 secs

     total energy              =      -4.07083269 Ry
     estimated scf accuracy    <       0.00004837 Ry

     total magnetization       =    -0.00 Bohr mag/cell
     absolute magnetization    =     0.00 Bohr mag/cell

     iteration # 26     ecut=    60.00 Ry     beta= 0.01
     Davidson diagonalization with overlap
     ethr =  1.61E-06,  avg # of iterations =  3.2

     total cpu time spent up to now is      136.2 secs

     total energy              =      -4.07091691 Ry
     estimated scf accuracy    <       0.00007409 Ry

     total magnetization       =    -0.00 Bohr mag/cell
     absolute magnetization    =     0.00 Bohr mag/cell

     iteration # 27     ecut=    60.00 Ry     beta= 0.01
     Davidson diagonalization with overlap
     ethr =  1.61E-06,  avg # of iterations =  2.2

     total cpu time spent up to now is      140.4 secs

     total energy              =      -4.07098943 Ry
     estimated scf accuracy    <       0.00001889 Ry

     total magnetization       =    -0.00 Bohr mag/cell
     absolute magnetization    =     0.00 Bohr mag/cell

     iteration # 28     ecut=    60.00 Ry     beta= 0.01
     Davidson diagonalization with overlap
     ethr =  6.30E-07,  avg # of iterations =  1.1

     total cpu time spent up to now is      143.7 secs

     total energy              =      -4.07100610 Ry
     estimated scf accuracy    <       0.00001695 Ry

     total magnetization       =     0.00 Bohr mag/cell
     absolute magnetization    =     0.00 Bohr mag/cell

     iteration # 29     ecut=    60.00 Ry     beta= 0.01
     Davidson diagonalization with overlap
     ethr =  5.65E-07,  avg # of iterations =  2.0

     total cpu time spent up to now is      148.8 secs

     total energy              =      -4.07115230 Ry
     estimated scf accuracy    <       0.00001164 Ry

     total magnetization       =    -0.00 Bohr mag/cell
     absolute magnetization    =     0.00 Bohr mag/cell

     iteration # 30     ecut=    60.00 Ry     beta= 0.01
     Davidson diagonalization with overlap
     ethr =  3.88E-07,  avg # of iterations =  2.0

     total cpu time spent up to now is      154.0 secs

     total energy              =      -4.07118388 Ry
     estimated scf accuracy    <       0.00005999 Ry

     total magnetization       =     0.00 Bohr mag/cell
     absolute magnetization    =     0.00 Bohr mag/cell

     iteration # 31     ecut=    60.00 Ry     beta= 0.01
     Davidson diagonalization with overlap
     ethr =  3.88E-07,  avg # of iterations =  1.5

     total cpu time spent up to now is      157.8 secs

     total energy              =      -4.07092848 Ry
     estimated scf accuracy    <       0.00007635 Ry

     total magnetization       =    -0.00 Bohr mag/cell
     absolute magnetization    =     0.00 Bohr mag/cell

     iteration # 32     ecut=    60.00 Ry     beta= 0.01
     Davidson diagonalization with overlap
     ethr =  3.88E-07,  avg # of iterations =  2.0

     total cpu time spent up to now is      162.4 secs

     total energy              =      -4.07110896 Ry
     estimated scf accuracy    <       0.00002363 Ry

     total magnetization       =     0.00 Bohr mag/cell
     absolute magnetization    =     0.00 Bohr mag/cell

     iteration # 33     ecut=    60.00 Ry     beta= 0.01
     Davidson diagonalization with overlap
     ethr =  3.88E-07,  avg # of iterations =  2.0

     total cpu time spent up to now is      166.5 secs

     total energy              =      -4.07116333 Ry
     estimated scf accuracy    <       0.00004656 Ry

     total magnetization       =    -0.00 Bohr mag/cell
     absolute magnetization    =     0.00 Bohr mag/cell

     iteration # 34     ecut=    60.00 Ry     beta= 0.01
     Davidson diagonalization with overlap
     ethr =  3.88E-07,  avg # of iterations =  2.0

     total cpu time spent up to now is      171.6 secs

     total energy              =      -4.07090487 Ry
     estimated scf accuracy    <       0.00008938 Ry

     total magnetization       =    -0.00 Bohr mag/cell
     absolute magnetization    =     0.00 Bohr mag/cell

     iteration # 35     ecut=    60.00 Ry     beta= 0.01
     Davidson diagonalization with overlap
     ethr =  3.88E-07,  avg # of iterations =  2.2

     total cpu time spent up to now is      175.9 secs

     total energy              =      -4.07098597 Ry
     estimated scf accuracy    <       0.00000602 Ry

     total magnetization       =    -0.00 Bohr mag/cell
     absolute magnetization    =     0.00 Bohr mag/cell

     iteration # 36     ecut=    60.00 Ry     beta= 0.01
     Davidson diagonalization with overlap
     ethr =  2.01E-07,  avg # of iterations =  1.4

     total cpu time spent up to now is      179.0 secs

     total energy              =      -4.07096345 Ry
     estimated scf accuracy    <       0.00000457 Ry

     total magnetization       =    -0.00 Bohr mag/cell
     absolute magnetization    =     0.00 Bohr mag/cell

     iteration # 37     ecut=    60.00 Ry     beta= 0.01
     Davidson diagonalization with overlap
     ethr =  1.52E-07,  avg # of iterations =  2.1
 
     Magnetic moment per site  (integrated on atomic sphere of radius R)
     atom   1 (R=0.292)  charge=  1.5526  magn= -0.0001

     total cpu time spent up to now is      182.8 secs

     End of self-consistent calculation

 ------ SPIN UP ------------


          k = 0.0000 0.0000 0.0000 (   537 PWs)   bands (ev):

    -1.7703  29.3393  29.3393  29.3393  34.5299  35.3875

          k =-0.1000 0.1000-0.1000 (   540 PWs)   bands (ev):

    -1.3868  25.6383  29.0575  29.0576  34.4773  36.0894

          k =-0.2000 0.2000-0.2000 (   552 PWs)   bands (ev):

    -0.2470  20.4895  28.5231  28.5231  33.4702  35.0840

          k =-0.3000 0.3000-0.3000 (   561 PWs)   bands (ev):

     1.6173  15.6615  28.0877  28.0877  32.8055  33.1339

          k =-0.4000 0.4000-0.4000 (   559 PWs)   bands (ev):

     4.1418  11.3529  27.8514  27.8514  31.8516  31.8516

          k = 0.5000-0.5000 0.5000 (   568 PWs)   bands (ev):

     6.6289   8.2720  27.7847  27.7847  31.4041  31.4041

          k = 0.0000 0.2000 0.0000 (   544 PWs)   bands (ev):

    -1.2594  26.5867  27.7223  27.7223  33.0656  35.8798

          k =-0.1000 0.3000-0.1000 (   555 PWs)   bands (ev):

    -0.3727  22.2689  26.7121  27.7498  31.3161  34.9982

          k =-0.2000 0.4000-0.2000 (   553 PWs)   bands (ev):

     1.2484  17.4337  26.1336  26.8754  30.1064  36.3418

          k =-0.3000 0.5000-0.3000 (   555 PWs)   bands (ev):

     3.5539  12.9892  25.6325  26.0289  29.5724  34.7280

          k = 0.6000-0.4000 0.6000 (   558 PWs)   bands (ev):

     6.3562   9.2096  24.5752  26.4326  29.8229  33.3954

          k = 0.5000-0.3000 0.5000 (   563 PWs)   bands (ev):

     5.4097  10.3483  23.9429  27.3770  30.7721  32.5300

          k = 0.4000-0.2000 0.4000 (   564 PWs)   bands (ev):

     2.7140  14.3961  23.8411  28.8597  32.0678  32.3140

          k = 0.3000-0.1000 0.3000 (   560 PWs)   bands (ev):

     0.6287  18.9249  24.3567  30.5155  32.1189  34.2731

          k = 0.2000 0.0000 0.2000 (   553 PWs)   bands (ev):

    -0.7516  23.2611  25.9362  30.3514  34.0188  35.8456

          k = 0.0000 0.4000 0.0000 (   564 PWs)   bands (ev):

     0.2550  23.1820  25.4025  25.4025  27.1461  32.8977

          k =-0.1000 0.5000-0.1000 (   556 PWs)   bands (ev):

     1.6186  19.5281  23.8880  24.6159  26.4557  32.8694

          k =-0.2000 0.6000-0.2000 (   549 PWs)   bands (ev):

     3.6768  15.1480  21.8843  24.3574  26.8746  35.2269

          k = 0.7000-0.3000 0.7000 (   552 PWs)   bands (ev):

     6.3314  11.1846  20.3771  24.6397  27.3721  37.0829

          k = 0.6000-0.2000 0.6000 (   557 PWs)   bands (ev):

     7.2664  10.0373  19.4491  25.4855  28.3847  35.9066

          k = 0.5000-0.1000 0.5000 (   554 PWs)   bands (ev):

     4.5042  13.5996  19.2615  26.9200  29.9809  34.9039

          k = 0.4000 0.0000 0.4000 (   550 PWs)   bands (ev):

     2.2294  17.0311  20.5123  28.9406  32.0737  33.3727

          k = 0.0000 0.6000 0.0000 (   564 PWs)   bands (ev):

     2.7171  20.6406  20.9992  23.6341  23.6341  30.7801

          k =-0.1000 0.7000-0.1000 (   559 PWs)   bands (ev):

     4.5085  17.4070  18.6534  23.1933  24.3604  31.2593

          k = 0.8000-0.2000 0.8000 (   552 PWs)   bands (ev):

     6.9154  13.5891  16.8041  23.2954  25.2407  34.1168

          k = 0.7000-0.1000 0.7000 (   551 PWs)   bands (ev):

     9.3225  10.5829  15.6740  23.9491  26.3053  38.2353

          k = 0.6000-0.0000 0.6000 (   546 PWs)   bands (ev):

     6.9213  12.5999  16.0476  25.1641  27.8870  38.3376

          k = 0.0000 0.8000 0.0000 (   556 PWs)   bands (ev):

     6.0131  15.4819  19.0975  22.5685  22.5685  29.4074

          k = 0.9000-0.1000 0.9000 (   556 PWs)   bands (ev):

     8.0751  13.2238  16.9094  22.4846  23.4254  30.4033

          k = 0.8000 0.0000 0.8000 (   552 PWs)   bands (ev):

     9.9717  11.8039  14.3715  22.9437  24.7099  33.7317

          k = 0.0000-1.0000 0.0000 (   556 PWs)   bands (ev):

     9.1018  11.6585  18.5813  22.2146  22.2146  28.9293

          k =-0.2000 0.4000 0.0000 (   559 PWs)   bands (ev):

     0.7533  20.1202  23.2523  28.4892  29.2117  34.6501

          k =-0.3000 0.5000-0.1000 (   554 PWs)   bands (ev):

     2.5941  16.2424  21.7043  26.2733  30.3647  35.1896

          k = 0.6000-0.4000 0.8000 (   560 PWs)   bands (ev):

     5.0839  12.1512  21.3088  24.7164  31.0174  33.3750

          k = 0.5000-0.3000 0.7000 (   554 PWs)   bands (ev):

     7.5282   9.1506  21.2700  24.1219  31.5955  32.3369

          k =-0.2000 0.6000 0.0000 (   557 PWs)   bands (ev):

     3.1990  17.8294  20.2278  23.3764  27.3491  32.8150

          k = 0.7000-0.3000 0.9000 (   555 PWs)   bands (ev):

     5.4407  14.3841  18.5522  22.0548  28.7905  34.9543

          k = 0.6000-0.2000 0.8000 (   549 PWs)   bands (ev):

     8.1556  10.8442  17.6410  21.8447  29.8551  36.0331

          k = 0.5000-0.1000 0.7000 (   551 PWs)   bands (ev):

     7.2430  11.8240  17.2071  22.6471  31.1952  34.7437

          k = 0.4000 0.0000 0.6000 (   552 PWs)   bands (ev):

     4.6242  14.7983  18.1137  24.2183  32.9983  33.0056

          k = 0.8000-0.2000 1.0000 (   551 PWs)   bands (ev):

     6.4695  15.6674  16.4426  21.2100  26.1564  31.6124

          k = 0.7000-0.1000 0.9000 (   553 PWs)   bands (ev):

     8.9377  12.9600  14.7395  20.5492  27.9609  34.2049

          k = 0.6000 0.0000 0.8000 (   548 PWs)   bands (ev):

     9.8990  11.2796  14.5088  21.1750  29.4433  38.5648

          k =-0.2000-1.0000 0.0000 (   552 PWs)   bands (ev):

     9.5361  11.9913  15.9787  20.6670  25.7555  31.1964

          k = 0.6000-0.2000 1.0000 (   557 PWs)   bands (ev):

     7.8108  13.4561  15.5790  20.0357  31.9134  35.7180

          k = 0.5000-0.1000 0.9000 (   544 PWs)   bands (ev):

    10.2152  11.2492  14.8955  19.3106  33.9429  34.1221

          k =-0.4000-1.0000 0.0000 (   550 PWs)   bands (ev):

    10.8398  12.6799  13.0087  18.7058  31.5181  35.6052

 ------ SPIN DOWN ----------


          k = 0.0000 0.0000 0.0000 (   537 PWs)   bands (ev):

    -1.7723  29.3105  29.3105  29.3105  34.5390  35.4062

          k =-0.1000 0.1000-0.1000 (   540 PWs)   bands (ev):

    -1.3889  25.6268  29.0344  29.0344  34.4826  36.1049

          k =-0.2000 0.2000-0.2000 (   552 PWs)   bands (ev):

    -0.2492  20.4853  28.5098  28.5098  33.4603  35.0712

          k =-0.3000 0.3000-0.3000 (   561 PWs)   bands (ev):

     1.6149  15.6602  28.0836  28.0836  32.7843  33.1182

          k =-0.4000 0.4000-0.4000 (   559 PWs)   bands (ev):

     4.1386  11.3534  27.8549  27.8549  31.8325  31.8325

          k = 0.5000-0.5000 0.5000 (   568 PWs)   bands (ev):

     6.6193   8.2791  27.7915  27.7915  31.3830  31.3830

          k = 0.0000 0.2000 0.0000 (   544 PWs)   bands (ev):

    -1.2614  26.5722  27.7066  27.7066  33.0710  35.8563

          k =-0.1000 0.3000-0.1000 (   555 PWs)   bands (ev):

    -0.3749  22.2635  26.7023  27.7357  31.3098  34.9790

          k =-0.2000 0.4000-0.2000 (   553 PWs)   bands (ev):

     1.2461  17.4320  26.1286  26.8667  30.0924  36.3068

          k =-0.3000 0.5000-0.3000 (   555 PWs)   bands (ev):

     3.5512  12.9891  25.6272  26.0278  29.5555  34.7127

          k = 0.6000-0.4000 0.6000 (   558 PWs)   bands (ev):

     6.3502   9.2131  24.5708  26.4346  29.8047  33.3789

          k = 0.5000-0.3000 0.5000 (   563 PWs)   bands (ev):

     5.4057  10.3498  23.9379  27.3810  30.7529  32.5103

          k = 0.4000-0.2000 0.4000 (   564 PWs)   bands (ev):

     2.7115  14.3958  23.8349  28.8641  32.0434  32.2925

          k = 0.3000-0.1000 0.3000 (   560 PWs)   bands (ev):

     0.6264  18.9228  24.3487  30.5068  32.1018  34.2476

          k = 0.2000 0.0000 0.2000 (   553 PWs)   bands (ev):

    -0.7537  23.2547  25.9255  30.3221  34.0269  35.8586

          k = 0.0000 0.4000 0.0000 (   564 PWs)   bands (ev):

     0.2529  23.1748  25.3960  25.3960  27.1395  32.8792

          k =-0.1000 0.5000-0.1000 (   556 PWs)   bands (ev):

     1.6164  19.5259  23.8790  24.6123  26.4473  32.8515

          k =-0.2000 0.6000-0.2000 (   549 PWs)   bands (ev):

     3.6744  15.1476  21.8763  24.3562  26.8617  35.2101

          k = 0.7000-0.3000 0.7000 (   552 PWs)   bands (ev):

     6.3278  11.1859  20.3697  24.6402  27.3566  37.0672

          k = 0.6000-0.2000 0.6000 (   557 PWs)   bands (ev):

     7.2606  10.0414  19.4415  25.4872  28.3675  35.8880

          k = 0.5000-0.1000 0.5000 (   554 PWs)   bands (ev):

     4.5014  13.6018  19.2526  26.9220  29.9620  34.8782

          k = 0.4000 0.0000 0.4000 (   550 PWs)   bands (ev):

     2.2269  17.0331  20.5024  28.9425  32.0526  33.3417

          k = 0.0000 0.6000 0.0000 (   564 PWs)   bands (ev):

     2.7149  20.6371  20.9897  23.6321  23.6321  30.7596

          k =-0.1000 0.7000-0.1000 (   559 PWs)   bands (ev):

     4.5065  17.4028  18.6475  23.1927  24.3540  31.2405

          k = 0.8000-0.2000 0.8000 (   552 PWs)   bands (ev):

     6.9137  13.5872  16.7973  23.2960  25.2287  34.1009

          k = 0.7000-0.1000 0.7000 (   551 PWs)   bands (ev):

     9.3153  10.5894  15.6648  23.9505  26.2901  38.2173

          k = 0.6000-0.0000 0.6000 (   546 PWs)   bands (ev):

     6.9177  12.6066  16.0349  25.1658  27.8700  38.3045

          k = 0.0000 0.8000 0.0000 (   556 PWs)   bands (ev):

     6.0122  15.4703  19.0961  22.5686  22.5686  29.3851

          k = 0.9000-0.1000 0.9000 (   556 PWs)   bands (ev):

     8.0770  13.2088  16.9112  22.4853  23.4199  30.3840

          k = 0.8000 0.0000 0.8000 (   552 PWs)   bands (ev):

     9.9809  11.7841  14.3718  22.9448  24.6980  33.7159

          k = 0.0000-1.0000 0.0000 (   556 PWs)   bands (ev):

     9.1118  11.6357  18.5805  22.2154  22.2154  28.9064

          k =-0.2000 0.4000 0.0000 (   559 PWs)   bands (ev):

     0.7511  20.1185  23.2439  28.4844  29.1959  34.6344

          k =-0.3000 0.5000-0.1000 (   554 PWs)   bands (ev):

     2.5917  16.2426  21.6963  26.2695  30.3491  35.1729

          k = 0.6000-0.4000 0.8000 (   560 PWs)   bands (ev):

     5.0808  12.1522  21.3014  24.7137  31.0045  33.3580

          k = 0.5000-0.3000 0.7000 (   554 PWs)   bands (ev):

     7.5192   9.1574  21.2627  24.1195  31.5899  32.3135

          k =-0.2000 0.6000 0.0000 (   557 PWs)   bands (ev):

     3.1967  17.8305  20.2173  23.3730  27.3409  32.7981

          k = 0.7000-0.3000 0.9000 (   555 PWs)   bands (ev):

     5.4383  14.3851  18.5426  22.0519  28.7802  34.9392

          k = 0.6000-0.2000 0.8000 (   549 PWs)   bands (ev):

     8.1511  10.8473  17.6321  21.8418  29.8437  36.0173

          k = 0.5000-0.1000 0.7000 (   551 PWs)   bands (ev):

     7.2392  11.8277  17.1971  22.6440  31.1832  34.7267

          k = 0.4000 0.0000 0.6000 (   552 PWs)   bands (ev):

     4.6215  14.8028  18.1019  24.2149  32.9808  32.9923

          k = 0.8000-0.2000 1.0000 (   551 PWs)   bands (ev):

     6.4683  15.6549  16.4453  21.2073  26.1514  31.5946

          k = 0.7000-0.1000 0.9000 (   553 PWs)   bands (ev):

     8.9383  12.9529  14.7357  20.5460  27.9525  34.1893

          k = 0.6000 0.0000 0.8000 (   548 PWs)   bands (ev):

     9.8929  11.2876  14.4968  21.1718  29.4325  38.3195

          k =-0.2000-1.0000 0.0000 (   552 PWs)   bands (ev):

     9.5457  11.9680  15.9819  20.6642  25.7513  31.1782

          k = 0.6000-0.2000 1.0000 (   557 PWs)   bands (ev):

     7.8085  13.4620  15.5646  20.0327  31.9017  35.7077

          k = 0.5000-0.1000 0.9000 (   544 PWs)   bands (ev):

    10.2093  11.2563  14.8836  19.3077  33.9345  34.1041

          k =-0.4000-1.0000 0.0000 (   550 PWs)   bands (ev):

    10.8482  12.6550  13.0150  18.7023  31.5079  35.5896

     the Fermi energy is    13.3262 ev

!    total energy              =      -4.07095962 Ry
     estimated scf accuracy    <       0.00000046 Ry
     smearing contrib. (-TS)   =      -0.01945595 Ry
     internal energy E=F+TS    =      -4.05150368 Ry

     The total energy is F=E-TS. E is the sum of the following terms:
     one-electron contribution =       4.06162214 Ry
     hartree contribution      =       0.02158968 Ry
     xc contribution           =      -1.84559086 Ry
     ewald contribution        =      -6.28912463 Ry

     total magnetization       =    -0.00 Bohr mag/cell
     absolute magnetization    =     0.00 Bohr mag/cell

     convergence has been achieved in  37 iterations
     Writing meta-gga kinetic term

     Writing all to output data dir ./input_pw/Al/1/pwscf.save/
     Writing meta-gga kinetic term
 
     init_run     :      1.20s CPU      2.64s WALL (       1 calls)
     electrons    :     93.13s CPU    180.07s WALL (       1 calls)

     Called by init_run:
     wfcinit      :      1.11s CPU      2.49s WALL (       1 calls)
     potinit      :      0.02s CPU      0.04s WALL (       1 calls)
     hinit0       :      0.07s CPU      0.11s WALL (       1 calls)

     Called by electrons:
     c_bands      :     77.49s CPU    149.99s WALL (      37 calls)
     sum_band     :     14.70s CPU     28.23s WALL (      37 calls)
     v_of_rho     :      0.66s CPU      1.34s WALL (      38 calls)
     mix_rho      :      0.29s CPU      0.52s WALL (      37 calls)

     Called by c_bands:
     init_us_2    :      0.47s CPU      1.05s WALL (    7050 calls)
     init_us_2:cp :      0.45s CPU      1.01s WALL (    7050 calls)
     cegterg      :     76.97s CPU    148.85s WALL (    3478 calls)

     Called by *egterg:
     cdiaghg      :      0.69s CPU      1.29s WALL (   10617 calls)
     h_psi        :     76.03s CPU    147.42s WALL (   10711 calls)
     g_psi        :      0.07s CPU      0.16s WALL (    7139 calls)

     Called by h_psi:
     h_psi:calbec :      0.19s CPU      0.34s WALL (   10711 calls)
     vloc_psi     :     18.76s CPU     36.71s WALL (   10711 calls)
     add_vuspsi   :      0.19s CPU      0.34s WALL (   10711 calls)
     h_psi_meta   :     56.73s CPU    109.74s WALL (   10711 calls)

     General routines
     calbec       :      0.16s CPU      0.27s WALL (   10711 calls)
     fft          :      0.13s CPU      0.31s WALL (     867 calls)
     ffts         :      0.10s CPU      0.13s WALL (     662 calls)
     fftw         :     80.87s CPU    156.12s WALL (  551288 calls)
     interpolate  :      0.00s CPU      0.00s WALL (      76 calls)
 
     Parallel routines
 
     PWSCF        :   1m34.37s CPU   3m 2.83s WALL

 
   This run was terminated on:   9:52: 3   4Apr2023            

=------------------------------------------------------------------------------=
   JOB DONE.
=------------------------------------------------------------------------------=
