
     Program PWSCF v.7.0 starts on 21Mar2023 at 13:11:35 

     This program is part of the open-source Quantum ESPRESSO suite
     for quantum simulation of materials; please cite
         "P. Giannozzi et al., J. Phys.:Condens. Matter 21 395502 (2009);
         "P. Giannozzi et al., J. Phys.:Condens. Matter 29 465901 (2017);
         "P. Giannozzi et al., J. Chem. Phys. 152 154105 (2020);
          URL http://www.quantum-espresso.org", 
     in publications or presentations arising from this work. More details at
     http://www.quantum-espresso.org/quote

     Parallel version (MPI), running on     1 processors

     MPI processes distributed on     1 nodes
     24408 MiB available memory on the printing compute node when the environment starts
 
     Waiting for input...
     Reading input from standard input
Warning: card &CELL ignored
Warning: card / ignored

     Current dimensions of program PWSCF are:
     Max number of different atomic species (ntypx) = 10
     Max number of k-points (npk) =  40000
     Max angular momentum in pseudopotentials (lmaxx) =  4
     file Al.SCAN.UPF2: wavefunction(s)  0D renormalized

     WARNING: the MGGA functional with ID    5 has been 
     read together with other dft terms, but it should 
     stand alone in order to work properly. The other 
     terms will be ignored.

     Subspace diagonalization in iterative solution of the eigenvalue problem:
     a serial algorithm will be used

 
     G-vector sticks info
     --------------------
     sticks:   dense  smooth     PW     G-vecs:    dense   smooth      PW
     Sum        1177    1177    349                26717    26717    4285
 
     Using Slab Decomposition
 


     bravais-lattice index     =            2
     lattice parameter (alat)  =      11.9468  a.u.
     unit-cell volume          =     426.2850 (a.u.)^3
     number of atoms/cell      =            1
     number of atomic types    =            1
     number of electrons       =         3.00
     number of Kohn-Sham states=            6
     kinetic-energy cutoff     =      60.0000  Ry
     charge density cutoff     =     240.0000  Ry
     scf convergence threshold =      1.0E-06
     mixing beta               =       0.0100
     number of iterations used =            8  local-TF  mixing
     Exchange-correlation= SLA  PW   SCAN SCAN
                           (   0   0   0   0   0 263 267)

     celldm(1)=  11.946849  celldm(2)=   0.000000  celldm(3)=   0.000000
     celldm(4)=   0.000000  celldm(5)=   0.000000  celldm(6)=   0.000000

     crystal axes: (cart. coord. in units of alat)
               a(1) = (  -0.500000   0.000000   0.500000 )  
               a(2) = (   0.000000   0.500000   0.500000 )  
               a(3) = (  -0.500000   0.500000   0.000000 )  

     reciprocal axes: (cart. coord. in units 2 pi/alat)
               b(1) = ( -1.000000 -1.000000  1.000000 )  
               b(2) = (  1.000000  1.000000  1.000000 )  
               b(3) = ( -1.000000  1.000000 -1.000000 )  


     PseudoPot. # 1 for Al read from file:
     ~/Documents/TA/PWDFT.jl/pseudopotentials/scan_upf/Al.SCAN.UPF2
     MD5 check sum: Not computed, couldn't open file
     Pseudo is Norm-conserving, Zval =  3.0
     Generated by new atomic code, or converted to UPF format
     Using radial grid of 1467 points,  2 beta functions with: 
                l(1) =   0
                l(2) =   1

     atomic species   valence    mass     pseudopotential
        Al             3.00    26.98154     Al( 1.00)

     48 Sym. Ops., with inversion, found



   Cartesian axes

     site n.     atom                  positions (alat units)
         1           Al  tau(   1) = (   0.0000000   0.0000000   0.0000000  )

     number of k points=    47  Gaussian smearing, width (Ry)=  0.1000
                       cart. coord. in units 2pi/alat
        k(    1) = (   0.0000000   0.0000000   0.0000000), wk =   0.0020000
        k(    2) = (  -0.1000000   0.1000000  -0.1000000), wk =   0.0160000
        k(    3) = (  -0.2000000   0.2000000  -0.2000000), wk =   0.0160000
        k(    4) = (  -0.3000000   0.3000000  -0.3000000), wk =   0.0160000
        k(    5) = (  -0.4000000   0.4000000  -0.4000000), wk =   0.0160000
        k(    6) = (   0.5000000  -0.5000000   0.5000000), wk =   0.0080000
        k(    7) = (   0.0000000   0.2000000   0.0000000), wk =   0.0120000
        k(    8) = (  -0.1000000   0.3000000  -0.1000000), wk =   0.0480000
        k(    9) = (  -0.2000000   0.4000000  -0.2000000), wk =   0.0480000
        k(   10) = (  -0.3000000   0.5000000  -0.3000000), wk =   0.0480000
        k(   11) = (   0.6000000  -0.4000000   0.6000000), wk =   0.0480000
        k(   12) = (   0.5000000  -0.3000000   0.5000000), wk =   0.0480000
        k(   13) = (   0.4000000  -0.2000000   0.4000000), wk =   0.0480000
        k(   14) = (   0.3000000  -0.1000000   0.3000000), wk =   0.0480000
        k(   15) = (   0.2000000   0.0000000   0.2000000), wk =   0.0240000
        k(   16) = (   0.0000000   0.4000000   0.0000000), wk =   0.0120000
        k(   17) = (  -0.1000000   0.5000000  -0.1000000), wk =   0.0480000
        k(   18) = (  -0.2000000   0.6000000  -0.2000000), wk =   0.0480000
        k(   19) = (   0.7000000  -0.3000000   0.7000000), wk =   0.0480000
        k(   20) = (   0.6000000  -0.2000000   0.6000000), wk =   0.0480000
        k(   21) = (   0.5000000  -0.1000000   0.5000000), wk =   0.0480000
        k(   22) = (   0.4000000   0.0000000   0.4000000), wk =   0.0240000
        k(   23) = (   0.0000000   0.6000000   0.0000000), wk =   0.0120000
        k(   24) = (  -0.1000000   0.7000000  -0.1000000), wk =   0.0480000
        k(   25) = (   0.8000000  -0.2000000   0.8000000), wk =   0.0480000
        k(   26) = (   0.7000000  -0.1000000   0.7000000), wk =   0.0480000
        k(   27) = (   0.6000000  -0.0000000   0.6000000), wk =   0.0240000
        k(   28) = (   0.0000000   0.8000000   0.0000000), wk =   0.0120000
        k(   29) = (   0.9000000  -0.1000000   0.9000000), wk =   0.0480000
        k(   30) = (   0.8000000   0.0000000   0.8000000), wk =   0.0240000
        k(   31) = (   0.0000000  -1.0000000   0.0000000), wk =   0.0060000
        k(   32) = (  -0.2000000   0.4000000   0.0000000), wk =   0.0480000
        k(   33) = (  -0.3000000   0.5000000  -0.1000000), wk =   0.0960000
        k(   34) = (   0.6000000  -0.4000000   0.8000000), wk =   0.0960000
        k(   35) = (   0.5000000  -0.3000000   0.7000000), wk =   0.0480000
        k(   36) = (  -0.2000000   0.6000000   0.0000000), wk =   0.0480000
        k(   37) = (   0.7000000  -0.3000000   0.9000000), wk =   0.0960000
        k(   38) = (   0.6000000  -0.2000000   0.8000000), wk =   0.0960000
        k(   39) = (   0.5000000  -0.1000000   0.7000000), wk =   0.0960000
        k(   40) = (   0.4000000   0.0000000   0.6000000), wk =   0.0480000
        k(   41) = (   0.8000000  -0.2000000   1.0000000), wk =   0.0480000
        k(   42) = (   0.7000000  -0.1000000   0.9000000), wk =   0.0960000
        k(   43) = (   0.6000000   0.0000000   0.8000000), wk =   0.0480000
        k(   44) = (  -0.2000000  -1.0000000   0.0000000), wk =   0.0240000
        k(   45) = (   0.6000000  -0.2000000   1.0000000), wk =   0.0480000
        k(   46) = (   0.5000000  -0.1000000   0.9000000), wk =   0.0480000
        k(   47) = (  -0.4000000  -1.0000000   0.0000000), wk =   0.0240000

     Dense  grid:    26717 G-vectors     FFT dimensions: (  45,  45,  45)

     Estimated max dynamical RAM per process >      55.71 MB

     WARNING: libxc functional with ID  263 depends
      on external parameters: check the user_guide of
      QE if you need to modify them or to check their
      default values.

     Initial potential from superposition of free atoms

     starting charge       2.9979, renormalised to       3.0000
     Starting wfcs are    9 randomized atomic wfcs

     total cpu time spent up to now is       13.3 secs

     Self-consistent Calculation

     iteration #  1     ecut=    60.00 Ry     beta= 0.01
     Davidson diagonalization with overlap
     ethr =  1.00E-02,  avg # of iterations =  2.9

     Threshold (ethr) on eigenvalues was too large:
     Diagonalizing with lowered threshold

     Davidson diagonalization with overlap
     ethr =  1.26E-04,  avg # of iterations =  2.4

     total cpu time spent up to now is       68.8 secs

     total energy              =      -4.00336655 Ry
     estimated scf accuracy    <       0.00359652 Ry

     iteration #  2     ecut=    60.00 Ry     beta= 0.01
     Davidson diagonalization with overlap
     ethr =  1.20E-04,  avg # of iterations =  1.0

     total cpu time spent up to now is       93.2 secs

     total energy              =      -4.00862868 Ry
     estimated scf accuracy    <       0.00351778 Ry

     iteration #  3     ecut=    60.00 Ry     beta= 0.01
     Davidson diagonalization with overlap
     ethr =  1.17E-04,  avg # of iterations =  2.0

     total cpu time spent up to now is      124.2 secs

     total energy              =      -4.00983207 Ry
     estimated scf accuracy    <       0.00017543 Ry

     iteration #  4     ecut=    60.00 Ry     beta= 0.01
     Davidson diagonalization with overlap
     ethr =  5.85E-06,  avg # of iterations =  2.7

     total cpu time spent up to now is      158.9 secs

     total energy              =      -4.00990309 Ry
     estimated scf accuracy    <       0.00004800 Ry

     iteration #  5     ecut=    60.00 Ry     beta= 0.01
     Davidson diagonalization with overlap
     ethr =  1.60E-06,  avg # of iterations =  1.3

     total cpu time spent up to now is      183.1 secs

     total energy              =      -4.00985304 Ry
     estimated scf accuracy    <       0.00004675 Ry

     iteration #  6     ecut=    60.00 Ry     beta= 0.01
     Davidson diagonalization with overlap
     ethr =  1.56E-06,  avg # of iterations =  2.0

     total cpu time spent up to now is      216.4 secs

     total energy              =      -4.00986456 Ry
     estimated scf accuracy    <       0.00006657 Ry

     iteration #  7     ecut=    60.00 Ry     beta= 0.01
     Davidson diagonalization with overlap
     ethr =  1.56E-06,  avg # of iterations =  2.0

     total cpu time spent up to now is      244.5 secs

     total energy              =      -4.00988504 Ry
     estimated scf accuracy    <       0.00000603 Ry

     iteration #  8     ecut=    60.00 Ry     beta= 0.01
     Davidson diagonalization with overlap
     ethr =  2.01E-07,  avg # of iterations =  1.2

     total cpu time spent up to now is      268.5 secs

     total energy              =      -4.00988517 Ry
     estimated scf accuracy    <       0.00000417 Ry

     iteration #  9     ecut=    60.00 Ry     beta= 0.01
     Davidson diagonalization with overlap
     ethr =  1.39E-07,  avg # of iterations =  1.0

     total cpu time spent up to now is      289.5 secs

     total energy              =      -4.00988353 Ry
     estimated scf accuracy    <       0.00000354 Ry

     iteration # 10     ecut=    60.00 Ry     beta= 0.01
     Davidson diagonalization with overlap
     ethr =  1.18E-07,  avg # of iterations =  2.1

     total cpu time spent up to now is      312.0 secs

     End of self-consistent calculation

          k = 0.0000 0.0000 0.0000 (  3383 PWs)   bands (ev):

    -5.8760   3.4395   3.4395   3.4395   6.6842   7.4924

          k =-0.1000 0.1000-0.1000 (  3374 PWs)   bands (ev):

    -5.7809   2.7781   3.3640   3.3640   6.8558   7.5449

          k =-0.2000 0.2000-0.2000 (  3347 PWs)   bands (ev):

    -5.5040   1.5036   3.1928   3.1928   6.4157   7.8429

          k =-0.3000 0.3000-0.3000 (  3359 PWs)   bands (ev):

    -5.0794   0.2205   3.0193   3.0193   6.0229   7.5365

          k =-0.4000 0.4000-0.4000 (  3347 PWs)   bands (ev):

    -4.6099  -0.8001   2.9009   2.9009   5.7916   7.1998

          k = 0.5000-0.5000 0.5000 (  3354 PWs)   bands (ev):

    -4.3694  -1.2290   2.8598   2.8598   5.7165   7.0741

          k = 0.0000 0.2000 0.0000 (  3371 PWs)   bands (ev):

    -5.7491   2.8954   3.1659   3.1659   6.8730   7.9368

          k =-0.1000 0.3000-0.1000 (  3352 PWs)   bands (ev):

    -5.5324   1.9078   2.9220   3.0486   6.5669   7.4702

          k =-0.2000 0.4000-0.2000 (  3359 PWs)   bands (ev):

    -5.1543   0.6630   2.7341   2.8167   6.3112   7.2920

          k =-0.3000 0.5000-0.3000 (  3346 PWs)   bands (ev):

    -4.6867  -0.4377   2.5520   2.6524   6.1070   6.9129

          k = 0.6000-0.4000 0.6000 (  3349 PWs)   bands (ev):

    -4.3350  -1.0904   2.3438   2.6888   6.0617   6.7413

          k = 0.5000-0.3000 0.5000 (  3344 PWs)   bands (ev):

    -4.4188  -0.9444   2.2391   2.8304   6.1796   6.7990

          k = 0.4000-0.2000 0.4000 (  3359 PWs)   bands (ev):

    -4.8454  -0.0996   2.2668   3.0422   6.4045   7.1233

          k = 0.3000-0.1000 0.3000 (  3356 PWs)   bands (ev):

    -5.2965   1.0664   2.4484   3.2634   6.7231   7.5823

          k = 0.2000 0.0000 0.2000 (  3363 PWs)   bands (ev):

    -5.6249   2.1827   2.8453   3.4011   7.0974   7.2544

          k = 0.0000 0.4000 0.0000 (  3347 PWs)   bands (ev):

    -5.3786   1.8407   2.6122   2.6122   5.9560   6.6325

          k =-0.1000 0.5000-0.1000 (  3354 PWs)   bands (ev):

    -5.0590   0.9952   2.2974   2.3795   5.7730   6.2396

          k =-0.2000 0.6000-0.2000 (  3361 PWs)   bands (ev):

    -4.6267   0.0130   1.8477   2.2774   5.5197   6.8362

          k = 0.7000-0.3000 0.7000 (  3335 PWs)   bands (ev):

    -4.2299  -0.7191   1.4451   2.3219   5.4672   7.4332

          k = 0.6000-0.2000 0.6000 (  3333 PWs)   bands (ev):

    -4.1611  -0.8246   1.1932   2.5035   5.6795   7.5763

          k = 0.5000-0.1000 0.5000 (  3355 PWs)   bands (ev):

    -4.4917  -0.2393   1.1583   2.7851   6.1402   7.6145

          k = 0.4000 0.0000 0.4000 (  3365 PWs)   bands (ev):

    -4.9347   0.5531   1.5228   3.0853   6.7963   7.4980

          k = 0.0000 0.6000 0.0000 (  3355 PWs)   bands (ev):

    -4.8044   0.7089   2.0974   2.0974   5.2361   5.2658

          k =-0.1000 0.7000-0.1000 (  3364 PWs)   bands (ev):

    -4.4338   0.1006   1.6110   1.9517   4.8988   5.4738

          k = 0.8000-0.2000 0.8000 (  3346 PWs)   bands (ev):

    -4.0620  -0.3871   0.8820   1.9648   4.8322   6.4853

          k = 0.7000-0.1000 0.7000 (  3324 PWs)   bands (ev):

    -3.9128  -0.4751   0.3220   2.1341   5.0305   7.7307

          k = 0.6000-0.0000 0.6000 (  3336 PWs)   bands (ev):

    -4.1149  -0.2426   0.2858   2.4318   5.4788   8.6695

          k = 0.0000 0.8000 0.0000 (  3362 PWs)   bands (ev):

    -4.1499  -0.3103   1.7569   1.7569   4.3927   4.7922

          k = 0.9000-0.1000 0.9000 (  3339 PWs)   bands (ev):

    -3.8808  -0.6089   1.2384   1.7233   4.3877   5.1625

          k = 0.8000 0.0000 0.8000 (  3320 PWs)   bands (ev):

    -3.7849  -0.5193   0.4470   1.8553   4.6000   6.3598

          k = 0.0000-1.0000 0.0000 (  3306 PWs)   bands (ev):

    -3.7953  -0.7948   1.6392   1.6392   4.1024   4.6429

          k =-0.2000 0.4000 0.0000 (  3356 PWs)   bands (ev):

    -5.2637   1.2902   2.2247   2.9827   6.5407   7.0340

          k =-0.3000 0.5000-0.1000 (  3357 PWs)   bands (ev):

    -4.8547   0.3274   1.7956   2.7529   6.4474   6.9840

          k = 0.6000-0.4000 0.8000 (  3349 PWs)   bands (ev):

    -4.4095  -0.5745   1.6360   2.5039   6.2765   6.7547

          k = 0.5000-0.3000 0.7000 (  3344 PWs)   bands (ev):

    -4.1863  -0.9632   1.5995   2.3988   6.2441   6.6077

          k =-0.2000 0.6000 0.0000 (  3345 PWs)   bands (ev):

    -4.7100   0.4554   1.6660   2.2061   5.7598   5.9158

          k = 0.7000-0.3000 0.9000 (  3344 PWs)   bands (ev):

    -4.2950  -0.1830   1.1580   1.9411   5.6305   6.7046

          k = 0.6000-0.2000 0.8000 (  3335 PWs)   bands (ev):

    -4.0056  -0.6026   0.8018   1.8988   5.7017   7.3917

          k = 0.5000-0.1000 0.7000 (  3340 PWs)   bands (ev):

    -4.0841  -0.4623   0.6467   2.0937   5.9739   7.4245

          k = 0.4000 0.0000 0.6000 (  3353 PWs)   bands (ev):

    -4.4518   0.0055   0.9170   2.4344   6.3753   7.3664

          k = 0.8000-0.2000 1.0000 (  3353 PWs)   bands (ev):

    -4.0948  -0.2893   1.3022   1.5567   5.0068   5.5122

          k = 0.7000-0.1000 0.9000 (  3340 PWs)   bands (ev):

    -3.8400  -0.4248   0.5831   1.4895   5.2158   6.4832

          k = 0.6000 0.0000 0.8000 (  3321 PWs)   bands (ev):

    -3.8408  -0.1138  -0.0646   1.7092   5.5150   7.7138

          k =-0.2000-1.0000 0.0000 (  3340 PWs)   bands (ev):

    -3.7751  -0.6568   1.1773   1.3202   4.7659   5.3746

          k = 0.6000-0.2000 1.0000 (  3337 PWs)   bands (ev):

    -3.9636  -0.2450   0.5298   1.4552   6.1424   7.0651

          k = 0.5000-0.1000 0.9000 (  3326 PWs)   bands (ev):

    -3.8137  -0.2356   0.2552   1.2491   6.2455   7.5455

          k =-0.4000-1.0000 0.0000 (  3342 PWs)   bands (ev):

    -3.7412  -0.2495   0.3977   0.9447   6.0329   6.9522

     the Fermi energy is    -0.3658 ev

!    total energy              =      -4.00988562 Ry
     estimated scf accuracy    <       0.00000011 Ry
     smearing contrib. (-TS)   =      -0.06448366 Ry
     internal energy E=F+TS    =      -3.94540196 Ry

     The total energy is F=E-TS. E is the sum of the following terms:
     one-electron contribution =       0.49043847 Ry
     hartree contribution      =       0.22380349 Ry
     xc contribution           =      -1.20569884 Ry
     ewald contribution        =      -3.45394507 Ry

     convergence has been achieved in  10 iterations
     Writing meta-gga kinetic term

     Writing all to output data dir ./input_pw/Al/1/pwscf.save/
     Writing meta-gga kinetic term
 
     init_run     :      7.05s CPU     13.19s WALL (       1 calls)
     electrons    :    163.59s CPU    298.69s WALL (       1 calls)

     Called by init_run:
     wfcinit      :      6.86s CPU     12.71s WALL (       1 calls)
     potinit      :      0.08s CPU      0.24s WALL (       1 calls)
     hinit0       :      0.07s CPU      0.17s WALL (       1 calls)

     Called by electrons:
     c_bands      :    131.14s CPU    239.78s WALL (      11 calls)
     sum_band     :     30.74s CPU     55.64s WALL (      11 calls)
     v_of_rho     :      0.87s CPU      1.78s WALL (      11 calls)
     mix_rho      :      0.86s CPU      1.62s WALL (      11 calls)

     Called by c_bands:
     init_us_2    :      0.49s CPU      0.91s WALL (    1081 calls)
     init_us_2:cp :      0.48s CPU      0.90s WALL (    1081 calls)
     cegterg      :    130.57s CPU    238.72s WALL (     517 calls)

     Called by *egterg:
     cdiaghg      :      0.20s CPU      0.34s WALL (    1437 calls)
     h_psi        :    135.51s CPU    248.12s WALL (    1531 calls)
     g_psi        :      0.07s CPU      0.12s WALL (     967 calls)

     Called by h_psi:
     h_psi:calbec :      0.38s CPU      0.78s WALL (    1531 calls)
     vloc_psi     :     33.48s CPU     61.13s WALL (    1531 calls)
     add_vuspsi   :      0.22s CPU      0.38s WALL (    1531 calls)
     h_psi_meta   :    101.30s CPU    185.59s WALL (    1531 calls)

     General routines
     calbec       :      0.37s CPU      0.77s WALL (    1531 calls)
     fft          :      0.22s CPU      0.51s WALL (     131 calls)
     ffts         :      0.30s CPU      0.49s WALL (     175 calls)
     fftw         :    127.12s CPU    233.48s WALL (   77104 calls)
     interpolate  :      0.00s CPU      0.02s WALL (      11 calls)
 
     Parallel routines
 
     PWSCF        :   2m50.71s CPU   5m12.08s WALL

 
   This run was terminated on:  13:16:47  21Mar2023            

=------------------------------------------------------------------------------=
   JOB DONE.
=------------------------------------------------------------------------------=
