
     Program PWSCF v.7.0 starts on 21Mar2023 at 11:18: 2 

     This program is part of the open-source Quantum ESPRESSO suite
     for quantum simulation of materials; please cite
         "P. Giannozzi et al., J. Phys.:Condens. Matter 21 395502 (2009);
         "P. Giannozzi et al., J. Phys.:Condens. Matter 29 465901 (2017);
         "P. Giannozzi et al., J. Chem. Phys. 152 154105 (2020);
          URL http://www.quantum-espresso.org", 
     in publications or presentations arising from this work. More details at
     http://www.quantum-espresso.org/quote

     Parallel version (MPI), running on     1 processors

     MPI processes distributed on     1 nodes
     24864 MiB available memory on the printing compute node when the environment starts
 
     Waiting for input...
     Reading input from standard input
Warning: card &CELL ignored
Warning: card / ignored

     Current dimensions of program PWSCF are:
     Max number of different atomic species (ntypx) = 10
     Max number of k-points (npk) =  40000
     Max angular momentum in pseudopotentials (lmaxx) =  4
     file Al.SCAN.UPF2: wavefunction(s)  0D renormalized

     WARNING: the MGGA functional with ID    5 has been 
     read together with other dft terms, but it should 
     stand alone in order to work properly. The other 
     terms will be ignored.

     Subspace diagonalization in iterative solution of the eigenvalue problem:
     a serial algorithm will be used

 
     G-vector sticks info
     --------------------
     sticks:   dense  smooth     PW     G-vecs:    dense   smooth      PW
     Sum         337     337    121                 4015     4015     821
 
     Using Slab Decomposition
 


     bravais-lattice index     =            2
     lattice parameter (alat)  =       6.3419  a.u.
     unit-cell volume          =      63.7680 (a.u.)^3
     number of atoms/cell      =            1
     number of atomic types    =            1
     number of electrons       =         3.00
     number of Kohn-Sham states=            6
     kinetic-energy cutoff     =      60.0000  Ry
     charge density cutoff     =     240.0000  Ry
     scf convergence threshold =      1.0E-06
     mixing beta               =       0.0100
     number of iterations used =            8  local-TF  mixing
     Exchange-correlation= SLA  PW   SCAN SCAN
                           (   0   0   0   0   0 263 267)

     celldm(1)=   6.341921  celldm(2)=   0.000000  celldm(3)=   0.000000
     celldm(4)=   0.000000  celldm(5)=   0.000000  celldm(6)=   0.000000

     crystal axes: (cart. coord. in units of alat)
               a(1) = (  -0.500000   0.000000   0.500000 )  
               a(2) = (   0.000000   0.500000   0.500000 )  
               a(3) = (  -0.500000   0.500000   0.000000 )  

     reciprocal axes: (cart. coord. in units 2 pi/alat)
               b(1) = ( -1.000000 -1.000000  1.000000 )  
               b(2) = (  1.000000  1.000000  1.000000 )  
               b(3) = ( -1.000000  1.000000 -1.000000 )  


     PseudoPot. # 1 for Al read from file:
     ~/Documents/TA/PWDFT.jl/pseudopotentials/scan_upf/Al.SCAN.UPF2
     MD5 check sum: Not computed, couldn't open file
     Pseudo is Norm-conserving, Zval =  3.0
     Generated by new atomic code, or converted to UPF format
     Using radial grid of 1467 points,  2 beta functions with: 
                l(1) =   0
                l(2) =   1

     atomic species   valence    mass     pseudopotential
        Al             3.00    26.98154     Al( 1.00)

     48 Sym. Ops., with inversion, found



   Cartesian axes

     site n.     atom                  positions (alat units)
         1           Al  tau(   1) = (   0.0000000   0.0000000   0.0000000  )

     number of k points=    47  Gaussian smearing, width (Ry)=  0.1000
                       cart. coord. in units 2pi/alat
        k(    1) = (   0.0000000   0.0000000   0.0000000), wk =   0.0020000
        k(    2) = (  -0.1000000   0.1000000  -0.1000000), wk =   0.0160000
        k(    3) = (  -0.2000000   0.2000000  -0.2000000), wk =   0.0160000
        k(    4) = (  -0.3000000   0.3000000  -0.3000000), wk =   0.0160000
        k(    5) = (  -0.4000000   0.4000000  -0.4000000), wk =   0.0160000
        k(    6) = (   0.5000000  -0.5000000   0.5000000), wk =   0.0080000
        k(    7) = (   0.0000000   0.2000000   0.0000000), wk =   0.0120000
        k(    8) = (  -0.1000000   0.3000000  -0.1000000), wk =   0.0480000
        k(    9) = (  -0.2000000   0.4000000  -0.2000000), wk =   0.0480000
        k(   10) = (  -0.3000000   0.5000000  -0.3000000), wk =   0.0480000
        k(   11) = (   0.6000000  -0.4000000   0.6000000), wk =   0.0480000
        k(   12) = (   0.5000000  -0.3000000   0.5000000), wk =   0.0480000
        k(   13) = (   0.4000000  -0.2000000   0.4000000), wk =   0.0480000
        k(   14) = (   0.3000000  -0.1000000   0.3000000), wk =   0.0480000
        k(   15) = (   0.2000000   0.0000000   0.2000000), wk =   0.0240000
        k(   16) = (   0.0000000   0.4000000   0.0000000), wk =   0.0120000
        k(   17) = (  -0.1000000   0.5000000  -0.1000000), wk =   0.0480000
        k(   18) = (  -0.2000000   0.6000000  -0.2000000), wk =   0.0480000
        k(   19) = (   0.7000000  -0.3000000   0.7000000), wk =   0.0480000
        k(   20) = (   0.6000000  -0.2000000   0.6000000), wk =   0.0480000
        k(   21) = (   0.5000000  -0.1000000   0.5000000), wk =   0.0480000
        k(   22) = (   0.4000000   0.0000000   0.4000000), wk =   0.0240000
        k(   23) = (   0.0000000   0.6000000   0.0000000), wk =   0.0120000
        k(   24) = (  -0.1000000   0.7000000  -0.1000000), wk =   0.0480000
        k(   25) = (   0.8000000  -0.2000000   0.8000000), wk =   0.0480000
        k(   26) = (   0.7000000  -0.1000000   0.7000000), wk =   0.0480000
        k(   27) = (   0.6000000  -0.0000000   0.6000000), wk =   0.0240000
        k(   28) = (   0.0000000   0.8000000   0.0000000), wk =   0.0120000
        k(   29) = (   0.9000000  -0.1000000   0.9000000), wk =   0.0480000
        k(   30) = (   0.8000000   0.0000000   0.8000000), wk =   0.0240000
        k(   31) = (   0.0000000  -1.0000000   0.0000000), wk =   0.0060000
        k(   32) = (  -0.2000000   0.4000000   0.0000000), wk =   0.0480000
        k(   33) = (  -0.3000000   0.5000000  -0.1000000), wk =   0.0960000
        k(   34) = (   0.6000000  -0.4000000   0.8000000), wk =   0.0960000
        k(   35) = (   0.5000000  -0.3000000   0.7000000), wk =   0.0480000
        k(   36) = (  -0.2000000   0.6000000   0.0000000), wk =   0.0480000
        k(   37) = (   0.7000000  -0.3000000   0.9000000), wk =   0.0960000
        k(   38) = (   0.6000000  -0.2000000   0.8000000), wk =   0.0960000
        k(   39) = (   0.5000000  -0.1000000   0.7000000), wk =   0.0960000
        k(   40) = (   0.4000000   0.0000000   0.6000000), wk =   0.0480000
        k(   41) = (   0.8000000  -0.2000000   1.0000000), wk =   0.0480000
        k(   42) = (   0.7000000  -0.1000000   0.9000000), wk =   0.0960000
        k(   43) = (   0.6000000   0.0000000   0.8000000), wk =   0.0480000
        k(   44) = (  -0.2000000  -1.0000000   0.0000000), wk =   0.0240000
        k(   45) = (   0.6000000  -0.2000000   1.0000000), wk =   0.0480000
        k(   46) = (   0.5000000  -0.1000000   0.9000000), wk =   0.0480000
        k(   47) = (  -0.4000000  -1.0000000   0.0000000), wk =   0.0240000

     Dense  grid:     4015 G-vectors     FFT dimensions: (  24,  24,  24)

     Estimated max dynamical RAM per process >       8.47 MB

     WARNING: libxc functional with ID  263 depends
      on external parameters: check the user_guide of
      QE if you need to modify them or to check their
      default values.

     Initial potential from superposition of free atoms

     starting charge       2.9979, renormalised to       3.0000
     Starting wfcs are    9 randomized atomic wfcs

     total cpu time spent up to now is        2.4 secs

     Self-consistent Calculation

     iteration #  1     ecut=    60.00 Ry     beta= 0.01
     Davidson diagonalization with overlap
     ethr =  1.00E-02,  avg # of iterations =  5.7

     Threshold (ethr) on eigenvalues was too large:
     Diagonalizing with lowered threshold

     Davidson diagonalization with overlap
     ethr =  3.82E-04,  avg # of iterations =  1.7

     total cpu time spent up to now is       11.5 secs

     total energy              =      -4.01822813 Ry
     estimated scf accuracy    <       0.01149568 Ry

     iteration #  2     ecut=    60.00 Ry     beta= 0.01
     Davidson diagonalization with overlap
     ethr =  3.83E-04,  avg # of iterations =  1.0

     total cpu time spent up to now is       14.6 secs

     total energy              =      -4.01653479 Ry
     estimated scf accuracy    <       0.01134809 Ry

     iteration #  3     ecut=    60.00 Ry     beta= 0.01
     Davidson diagonalization with overlap
     ethr =  3.78E-04,  avg # of iterations =  1.0

     total cpu time spent up to now is       17.1 secs

     total energy              =      -4.01812615 Ry
     estimated scf accuracy    <       0.00059970 Ry

     iteration #  4     ecut=    60.00 Ry     beta= 0.01
     Davidson diagonalization with overlap
     ethr =  2.00E-05,  avg # of iterations =  1.6

     total cpu time spent up to now is       20.0 secs

     total energy              =      -4.01817169 Ry
     estimated scf accuracy    <       0.00056080 Ry

     iteration #  5     ecut=    60.00 Ry     beta= 0.01
     Davidson diagonalization with overlap
     ethr =  1.87E-05,  avg # of iterations =  1.0

     total cpu time spent up to now is       22.6 secs

     total energy              =      -4.01849016 Ry
     estimated scf accuracy    <       0.00060963 Ry

     iteration #  6     ecut=    60.00 Ry     beta= 0.01
     Davidson diagonalization with overlap
     ethr =  1.87E-05,  avg # of iterations =  1.4

     total cpu time spent up to now is       25.2 secs

     total energy              =      -4.01853917 Ry
     estimated scf accuracy    <       0.00001972 Ry

     iteration #  7     ecut=    60.00 Ry     beta= 0.01
     Davidson diagonalization with overlap
     ethr =  6.57E-07,  avg # of iterations =  1.9

     total cpu time spent up to now is       28.1 secs

     total energy              =      -4.01853924 Ry
     estimated scf accuracy    <       0.00000880 Ry

     iteration #  8     ecut=    60.00 Ry     beta= 0.01
     Davidson diagonalization with overlap
     ethr =  2.93E-07,  avg # of iterations =  1.0

     total cpu time spent up to now is       30.8 secs

     total energy              =      -4.01854639 Ry
     estimated scf accuracy    <       0.00001075 Ry

     iteration #  9     ecut=    60.00 Ry     beta= 0.01
     Davidson diagonalization with overlap
     ethr =  2.93E-07,  avg # of iterations =  1.9

     total cpu time spent up to now is       33.5 secs

     End of self-consistent calculation

          k = 0.0000 0.0000 0.0000 (   531 PWs)   bands (ev):

    -1.1503  31.5334  31.5334  31.5334  37.0023  38.6867

          k =-0.1000 0.1000-0.1000 (   522 PWs)   bands (ev):

    -0.7413  27.6916  31.3019  31.3019  37.3444  39.1001

          k =-0.2000 0.2000-0.2000 (   516 PWs)   bands (ev):

     0.4727  22.3066  30.8058  30.8058  36.1941  37.8498

          k =-0.3000 0.3000-0.3000 (   510 PWs)   bands (ev):

     2.4519  17.2533  30.3138  30.3138  35.4002  36.0482

          k =-0.4000 0.4000-0.4000 (   498 PWs)   bands (ev):

     5.1170  12.7451  29.9645  29.9645  34.9113  34.9113

          k = 0.5000-0.5000 0.5000 (   502 PWs)   bands (ev):

     7.6829   9.5672  29.8369  29.8369  34.5331  34.5331

          k = 0.0000 0.2000 0.0000 (   524 PWs)   bands (ev):

    -0.6053  28.5657  29.9906  29.9906  35.6670  39.2627

          k =-0.1000 0.3000-0.1000 (   511 PWs)   bands (ev):

     0.3390  24.1362  28.9935  29.9490  33.7057  38.3775

          k =-0.2000 0.4000-0.2000 (   507 PWs)   bands (ev):

     2.0610  19.0954  28.4038  28.9178  32.7994  39.1918

          k =-0.3000 0.5000-0.3000 (   502 PWs)   bands (ev):

     4.4989  14.4512  27.5842  28.2685  32.4299  37.7539

          k = 0.6000-0.4000 0.6000 (   502 PWs)   bands (ev):

     7.4251  10.5192  26.5323  28.6380  32.7106  36.4189

          k = 0.5000-0.3000 0.5000 (   500 PWs)   bands (ev):

     6.4462  11.6956  25.9450  29.5638  33.6601  35.5155

          k = 0.4000-0.2000 0.4000 (   503 PWs)   bands (ev):

     3.6123  15.9207  25.9065  31.0585  34.9355  35.1947

          k = 0.3000-0.1000 0.3000 (   501 PWs)   bands (ev):

     1.4034  20.6452  26.5023  32.7793  34.7378  37.1066

          k = 0.2000 0.0000 0.2000 (   515 PWs)   bands (ev):

    -0.0643  25.1592  28.1818  32.6198  36.5315  38.8243

          k = 0.0000 0.4000 0.0000 (   504 PWs)   bands (ev):

     1.0068  24.9158  27.6816  27.6816  29.2165  36.3055

          k =-0.1000 0.5000-0.1000 (   507 PWs)   bands (ev):

     2.4541  21.2216  25.7596  26.8898  28.8128  36.1519

          k =-0.2000 0.6000-0.2000 (   499 PWs)   bands (ev):

     4.6302  16.6812  23.6732  26.6230  29.4385  38.4006

          k = 0.7000-0.3000 0.7000 (   502 PWs)   bands (ev):

     7.4153  12.5579  22.1532  26.8996  30.0335  40.1939

          k = 0.6000-0.2000 0.6000 (   500 PWs)   bands (ev):

     8.3768  11.3788  21.2425  27.7537  31.1067  38.9081

          k = 0.5000-0.1000 0.5000 (   502 PWs)   bands (ev):

     5.4998  15.0630  21.1122  29.2218  32.7656  37.6743

          k = 0.4000 0.0000 0.4000 (   509 PWs)   bands (ev):

     3.1000  18.6159  22.4961  31.3006  34.9190  35.8641

          k = 0.0000 0.6000 0.0000 (   496 PWs)   bands (ev):

     3.6179  22.1945  22.7631  25.9068  25.9068  34.0618

          k =-0.1000 0.7000-0.1000 (   493 PWs)   bands (ev):

     5.5098  18.9603  20.3021  25.4639  26.6546  34.4345

          k = 0.8000-0.2000 0.8000 (   491 PWs)   bands (ev):

     8.0379  15.0073  18.4413  25.5652  27.6809  37.2352

          k = 0.7000-0.1000 0.7000 (   503 PWs)   bands (ev):

    10.5030  11.9370  17.3130  26.2240  28.8624  41.4837

          k = 0.6000-0.0000 0.6000 (   498 PWs)   bands (ev):

     8.0331  13.9870  17.7588  27.4536  30.5560  41.2039

          k = 0.0000 0.8000 0.0000 (   488 PWs)   bands (ev):

     7.0969  16.9970  20.5429  24.8404  24.8404  32.5959

          k = 0.9000-0.1000 0.9000 (   490 PWs)   bands (ev):

     9.2647  14.6202  18.4398  24.7567  25.6879  33.5198

          k = 0.8000 0.0000 0.8000 (   494 PWs)   bands (ev):

    11.2554  13.0664  15.9723  25.2166  27.1086  36.8303

          k = 0.0000-1.0000 0.0000 (   492 PWs)   bands (ev):

    10.3539  12.9886  19.9903  24.4873  24.4873  32.0832

          k =-0.2000 0.4000 0.0000 (   500 PWs)   bands (ev):

     1.5359  21.8430  25.3680  30.8072  31.5382  38.0094

          k =-0.3000 0.5000-0.1000 (   505 PWs)   bands (ev):

     3.4861  17.8232  23.6541  28.5897  32.9013  38.1301

          k = 0.6000-0.4000 0.8000 (   499 PWs)   bands (ev):

     6.1088  13.5669  23.1409  27.0628  33.6965  36.2874

          k = 0.5000-0.3000 0.7000 (   500 PWs)   bands (ev):

     8.6227  10.4841  23.0451  26.4990  34.2497  35.2999

          k =-0.2000 0.6000 0.0000 (   501 PWs)   bands (ev):

     4.1266  19.4164  21.9926  25.7256  29.6524  36.0433

          k = 0.7000-0.3000 0.9000 (   498 PWs)   bands (ev):

     6.4879  15.8591  20.1780  24.4364  31.2623  38.1234

          k = 0.6000-0.2000 0.8000 (   500 PWs)   bands (ev):

     9.3121  12.2026  19.2540  24.2011  32.4729  39.0202

          k = 0.5000-0.1000 0.7000 (   498 PWs)   bands (ev):

     8.3681  13.2079  18.8732  24.9810  33.9143  37.5735

          k = 0.4000 0.0000 0.6000 (   499 PWs)   bands (ev):

     5.6272  16.2761  19.9001  26.5590  35.5893  35.8274

          k = 0.8000-0.2000 1.0000 (   495 PWs)   bands (ev):

     7.5738  17.1603  17.9456  23.5659  28.4394  34.7621

          k = 0.7000-0.1000 0.9000 (   493 PWs)   bands (ev):

    10.1565  14.3066  16.2669  22.8779  30.4019  37.3406

          k = 0.6000 0.0000 0.8000 (   499 PWs)   bands (ev):

    11.1225  12.6122  16.0770  23.4843  32.0420  41.5541

          k =-0.2000-1.0000 0.0000 (   494 PWs)   bands (ev):

    10.8037  13.3170  17.4532  23.0014  28.0322  34.3196

          k = 0.6000-0.2000 1.0000 (   499 PWs)   bands (ev):

     8.9706  14.8692  17.0624  22.4154  34.4906  38.5868

          k = 0.5000-0.1000 0.9000 (   504 PWs)   bands (ev):

    11.4406  12.6165  16.3262  21.6862  36.6544  36.9829

          k =-0.4000-1.0000 0.0000 (   498 PWs)   bands (ev):

    12.1544  13.9721  14.4002  21.0837  34.0854  38.8252

     the Fermi energy is    14.7549 ev

!    total energy              =      -4.01854776 Ry
     estimated scf accuracy    <       0.00000048 Ry
     smearing contrib. (-TS)   =      -0.01837930 Ry
     internal energy E=F+TS    =      -4.00016846 Ry

     The total energy is F=E-TS. E is the sum of the following terms:
     one-electron contribution =       4.38607608 Ry
     hartree contribution      =       0.02611174 Ry
     xc contribution           =      -1.90584831 Ry
     ewald contribution        =      -6.50650796 Ry

     convergence has been achieved in   9 iterations
     Writing meta-gga kinetic term

     Writing all to output data dir ./input_pw/Al/1/pwscf.save/
     Writing meta-gga kinetic term
 
     init_run     :      0.64s CPU      2.33s WALL (       1 calls)
     electrons    :     11.18s CPU     31.10s WALL (       1 calls)

     Called by init_run:
     wfcinit      :      0.56s CPU      1.98s WALL (       1 calls)
     potinit      :      0.01s CPU      0.03s WALL (       1 calls)
     hinit0       :      0.07s CPU      0.29s WALL (       1 calls)

     Called by electrons:
     c_bands      :      9.04s CPU     25.24s WALL (      10 calls)
     sum_band     :      2.02s CPU      5.59s WALL (      10 calls)
     v_of_rho     :      0.09s CPU      0.21s WALL (      10 calls)
     mix_rho      :      0.04s CPU      0.08s WALL (      10 calls)

     Called by c_bands:
     init_us_2    :      0.06s CPU      0.25s WALL (     987 calls)
     init_us_2:cp :      0.06s CPU      0.25s WALL (     987 calls)
     cegterg      :      8.98s CPU     25.11s WALL (     470 calls)

     Called by *egterg:
     cdiaghg      :      0.09s CPU      0.16s WALL (    1277 calls)
     h_psi        :      9.28s CPU     26.39s WALL (    1371 calls)
     g_psi        :      0.01s CPU      0.03s WALL (     854 calls)

     Called by h_psi:
     h_psi:calbec :      0.03s CPU      0.09s WALL (    1371 calls)
     vloc_psi     :      2.29s CPU      6.64s WALL (    1371 calls)
     add_vuspsi   :      0.02s CPU      0.09s WALL (    1371 calls)
     h_psi_meta   :      6.92s CPU     19.50s WALL (    1371 calls)

     General routines
     calbec       :      0.02s CPU      0.06s WALL (    1371 calls)
     fft          :      0.02s CPU      0.13s WALL (     119 calls)
     ffts         :      0.02s CPU      0.03s WALL (     136 calls)
     fftw         :     10.05s CPU     28.27s WALL (   67280 calls)
     interpolate  :      0.00s CPU      0.00s WALL (      10 calls)
 
     Parallel routines
 
     PWSCF        :     11.86s CPU     33.57s WALL

 
   This run was terminated on:  11:18:36  21Mar2023            

=------------------------------------------------------------------------------=
   JOB DONE.
=------------------------------------------------------------------------------=
