
     Program PWSCF v.7.0 starts on 29Mar2023 at 11:31: 6 

     This program is part of the open-source Quantum ESPRESSO suite
     for quantum simulation of materials; please cite
         "P. Giannozzi et al., J. Phys.:Condens. Matter 21 395502 (2009);
         "P. Giannozzi et al., J. Phys.:Condens. Matter 29 465901 (2017);
         "P. Giannozzi et al., J. Chem. Phys. 152 154105 (2020);
          URL http://www.quantum-espresso.org", 
     in publications or presentations arising from this work. More details at
     http://www.quantum-espresso.org/quote

     Parallel version (MPI), running on     1 processors

     MPI processes distributed on     1 nodes
     23270 MiB available memory on the printing compute node when the environment starts
 
     Waiting for input...
     Reading input from standard input
Warning: card &CELL ignored
Warning: card / ignored

     Current dimensions of program PWSCF are:
     Max number of different atomic species (ntypx) = 10
     Max number of k-points (npk) =  40000
     Max angular momentum in pseudopotentials (lmaxx) =  4
     file Si.SCAN.UPF2: wavefunction(s)  0D renormalized

     WARNING: the MGGA functional with ID    5 has been 
     read together with other dft terms, but it should 
     stand alone in order to work properly. The other 
     terms will be ignored.

     Subspace diagonalization in iterative solution of the eigenvalue problem:
     a serial algorithm will be used

 
     G-vector sticks info
     --------------------
     sticks:   dense  smooth     PW     G-vecs:    dense   smooth      PW
     Sum         673     673    211                11575    11575    2085
 
     Using Slab Decomposition
 


     bravais-lattice index     =            2
     lattice parameter (alat)  =       9.9215  a.u.
     unit-cell volume          =     244.1598 (a.u.)^3
     number of atoms/cell      =            2
     number of atomic types    =            1
     number of electrons       =         8.00
     number of Kohn-Sham states=            4
     kinetic-energy cutoff     =      50.0000  Ry
     charge density cutoff     =     200.0000  Ry
     scf convergence threshold =      1.0E-06
     mixing beta               =       0.0100
     number of iterations used =            8  local-TF  mixing
     Exchange-correlation= SLA  PW   SCAN SCAN
                           (   0   0   0   0   0 263 267)

     celldm(1)=   9.921516  celldm(2)=   0.000000  celldm(3)=   0.000000
     celldm(4)=   0.000000  celldm(5)=   0.000000  celldm(6)=   0.000000

     crystal axes: (cart. coord. in units of alat)
               a(1) = (  -0.500000   0.000000   0.500000 )  
               a(2) = (   0.000000   0.500000   0.500000 )  
               a(3) = (  -0.500000   0.500000   0.000000 )  

     reciprocal axes: (cart. coord. in units 2 pi/alat)
               b(1) = ( -1.000000 -1.000000  1.000000 )  
               b(2) = (  1.000000  1.000000  1.000000 )  
               b(3) = ( -1.000000  1.000000 -1.000000 )  


     PseudoPot. # 1 for Si read from file:
     ~/Documents/TA/PWDFT.jl/pseudopotentials/scan_upf/Si.SCAN.UPF2
     MD5 check sum: Not computed, couldn't open file
     Pseudo is Norm-conserving, Zval =  4.0
     Generated by new atomic code, or converted to UPF format
     Using radial grid of 1475 points,  2 beta functions with: 
                l(1) =   0
                l(2) =   1

     atomic species   valence    mass     pseudopotential
        Si             4.00    28.08550     Si( 1.00)

     48 Sym. Ops., with inversion, found (24 have fractional translation)



   Cartesian axes

     site n.     atom                  positions (alat units)
         1           Si  tau(   1) = (   0.0000000   0.0000000   0.0000000  )
         2           Si  tau(   2) = (   0.2500000   0.2500000   0.2500000  )

     number of k points=    47
                       cart. coord. in units 2pi/alat
        k(    1) = (   0.0000000   0.0000000   0.0000000), wk =   0.0020000
        k(    2) = (  -0.1000000   0.1000000  -0.1000000), wk =   0.0160000
        k(    3) = (  -0.2000000   0.2000000  -0.2000000), wk =   0.0160000
        k(    4) = (  -0.3000000   0.3000000  -0.3000000), wk =   0.0160000
        k(    5) = (  -0.4000000   0.4000000  -0.4000000), wk =   0.0160000
        k(    6) = (   0.5000000  -0.5000000   0.5000000), wk =   0.0080000
        k(    7) = (   0.0000000   0.2000000   0.0000000), wk =   0.0120000
        k(    8) = (  -0.1000000   0.3000000  -0.1000000), wk =   0.0480000
        k(    9) = (  -0.2000000   0.4000000  -0.2000000), wk =   0.0480000
        k(   10) = (  -0.3000000   0.5000000  -0.3000000), wk =   0.0480000
        k(   11) = (   0.6000000  -0.4000000   0.6000000), wk =   0.0480000
        k(   12) = (   0.5000000  -0.3000000   0.5000000), wk =   0.0480000
        k(   13) = (   0.4000000  -0.2000000   0.4000000), wk =   0.0480000
        k(   14) = (   0.3000000  -0.1000000   0.3000000), wk =   0.0480000
        k(   15) = (   0.2000000   0.0000000   0.2000000), wk =   0.0240000
        k(   16) = (   0.0000000   0.4000000   0.0000000), wk =   0.0120000
        k(   17) = (  -0.1000000   0.5000000  -0.1000000), wk =   0.0480000
        k(   18) = (  -0.2000000   0.6000000  -0.2000000), wk =   0.0480000
        k(   19) = (   0.7000000  -0.3000000   0.7000000), wk =   0.0480000
        k(   20) = (   0.6000000  -0.2000000   0.6000000), wk =   0.0480000
        k(   21) = (   0.5000000  -0.1000000   0.5000000), wk =   0.0480000
        k(   22) = (   0.4000000   0.0000000   0.4000000), wk =   0.0240000
        k(   23) = (   0.0000000   0.6000000   0.0000000), wk =   0.0120000
        k(   24) = (  -0.1000000   0.7000000  -0.1000000), wk =   0.0480000
        k(   25) = (   0.8000000  -0.2000000   0.8000000), wk =   0.0480000
        k(   26) = (   0.7000000  -0.1000000   0.7000000), wk =   0.0480000
        k(   27) = (   0.6000000  -0.0000000   0.6000000), wk =   0.0240000
        k(   28) = (   0.0000000   0.8000000   0.0000000), wk =   0.0120000
        k(   29) = (   0.9000000  -0.1000000   0.9000000), wk =   0.0480000
        k(   30) = (   0.8000000   0.0000000   0.8000000), wk =   0.0240000
        k(   31) = (   0.0000000  -1.0000000   0.0000000), wk =   0.0060000
        k(   32) = (  -0.2000000   0.4000000   0.0000000), wk =   0.0480000
        k(   33) = (  -0.3000000   0.5000000  -0.1000000), wk =   0.0960000
        k(   34) = (   0.6000000  -0.4000000   0.8000000), wk =   0.0960000
        k(   35) = (   0.5000000  -0.3000000   0.7000000), wk =   0.0480000
        k(   36) = (  -0.2000000   0.6000000   0.0000000), wk =   0.0480000
        k(   37) = (   0.7000000  -0.3000000   0.9000000), wk =   0.0960000
        k(   38) = (   0.6000000  -0.2000000   0.8000000), wk =   0.0960000
        k(   39) = (   0.5000000  -0.1000000   0.7000000), wk =   0.0960000
        k(   40) = (   0.4000000   0.0000000   0.6000000), wk =   0.0480000
        k(   41) = (   0.8000000  -0.2000000   1.0000000), wk =   0.0480000
        k(   42) = (   0.7000000  -0.1000000   0.9000000), wk =   0.0960000
        k(   43) = (   0.6000000   0.0000000   0.8000000), wk =   0.0480000
        k(   44) = (  -0.2000000  -1.0000000   0.0000000), wk =   0.0240000
        k(   45) = (   0.6000000  -0.2000000   1.0000000), wk =   0.0480000
        k(   46) = (   0.5000000  -0.1000000   0.9000000), wk =   0.0480000
        k(   47) = (  -0.4000000  -1.0000000   0.0000000), wk =   0.0240000

     Dense  grid:    11575 G-vectors     FFT dimensions: (  32,  32,  32)

     Estimated max dynamical RAM per process >      21.41 MB

     WARNING: libxc functional with ID  263 depends
      on external parameters: check the user_guide of
      QE if you need to modify them or to check their
      default values.

     Initial potential from superposition of free atoms

     starting charge       7.9990, renormalised to       8.0000
     Starting wfcs are   18 randomized atomic wfcs

     total cpu time spent up to now is        3.9 secs

     Self-consistent Calculation

     iteration #  1     ecut=    50.00 Ry     beta= 0.01
     Davidson diagonalization with overlap
     ethr =  1.00E-02,  avg # of iterations =  2.0

     Threshold (ethr) on eigenvalues was too large:
     Diagonalizing with lowered threshold

     Davidson diagonalization with overlap
     ethr =  8.69E-04,  avg # of iterations =  1.3

     total cpu time spent up to now is        9.0 secs

     total energy              =     -15.62580585 Ry
     estimated scf accuracy    <       0.07363067 Ry

     iteration #  2     ecut=    50.00 Ry     beta= 0.01
     Davidson diagonalization with overlap
     ethr =  9.20E-04,  avg # of iterations =  1.0

     total cpu time spent up to now is       11.2 secs

     total energy              =     -15.73206756 Ry
     estimated scf accuracy    <       0.07300099 Ry

     iteration #  3     ecut=    50.00 Ry     beta= 0.01
     Davidson diagonalization with overlap
     ethr =  9.13E-04,  avg # of iterations =  1.9

     total cpu time spent up to now is       13.4 secs

     total energy              =     -15.73484368 Ry
     estimated scf accuracy    <       0.04121887 Ry

     iteration #  4     ecut=    50.00 Ry     beta= 0.01
     Davidson diagonalization with overlap
     ethr =  5.15E-04,  avg # of iterations =  1.5

     total cpu time spent up to now is       15.7 secs

     total energy              =     -15.74260855 Ry
     estimated scf accuracy    <       0.00696456 Ry

     iteration #  5     ecut=    50.00 Ry     beta= 0.01
     Davidson diagonalization with overlap
     ethr =  8.71E-05,  avg # of iterations =  1.7

     total cpu time spent up to now is       18.4 secs

     total energy              =     -15.74336376 Ry
     estimated scf accuracy    <       0.00917617 Ry

     iteration #  6     ecut=    50.00 Ry     beta= 0.01
     Davidson diagonalization with overlap
     ethr =  8.71E-05,  avg # of iterations =  1.0

     total cpu time spent up to now is       20.6 secs

     total energy              =     -15.74071924 Ry
     estimated scf accuracy    <       0.01022976 Ry

     iteration #  7     ecut=    50.00 Ry     beta= 0.01
     Davidson diagonalization with overlap
     ethr =  8.71E-05,  avg # of iterations =  1.0

     total cpu time spent up to now is       22.6 secs

     total energy              =     -15.73976237 Ry
     estimated scf accuracy    <       0.00337352 Ry

     iteration #  8     ecut=    50.00 Ry     beta= 0.01
     Davidson diagonalization with overlap
     ethr =  4.22E-05,  avg # of iterations =  1.9

     total cpu time spent up to now is       25.2 secs

     total energy              =     -15.74011606 Ry
     estimated scf accuracy    <       0.00010188 Ry

     iteration #  9     ecut=    50.00 Ry     beta= 0.01
     Davidson diagonalization with overlap
     ethr =  1.27E-06,  avg # of iterations =  2.4

     total cpu time spent up to now is       28.1 secs

     total energy              =     -15.74013180 Ry
     estimated scf accuracy    <       0.00010745 Ry

     iteration # 10     ecut=    50.00 Ry     beta= 0.01
     Davidson diagonalization with overlap
     ethr =  1.27E-06,  avg # of iterations =  1.0

     total cpu time spent up to now is       30.4 secs

     total energy              =     -15.74007122 Ry
     estimated scf accuracy    <       0.00012410 Ry

     iteration # 11     ecut=    50.00 Ry     beta= 0.01
     Davidson diagonalization with overlap
     ethr =  1.27E-06,  avg # of iterations =  2.0

     total cpu time spent up to now is       33.4 secs

     total energy              =     -15.74010281 Ry
     estimated scf accuracy    <       0.00000360 Ry

     iteration # 12     ecut=    50.00 Ry     beta= 0.01
     Davidson diagonalization with overlap
     ethr =  4.50E-08,  avg # of iterations =  2.3

     total cpu time spent up to now is       36.3 secs

     total energy              =     -15.74010275 Ry
     estimated scf accuracy    <       0.00000363 Ry

     iteration # 13     ecut=    50.00 Ry     beta= 0.01
     Davidson diagonalization with overlap
     ethr =  4.50E-08,  avg # of iterations =  1.0

     total cpu time spent up to now is       38.5 secs

     total energy              =     -15.74009867 Ry
     estimated scf accuracy    <       0.00000303 Ry

     iteration # 14     ecut=    50.00 Ry     beta= 0.01
     Davidson diagonalization with overlap
     ethr =  3.79E-08,  avg # of iterations =  1.3

     total cpu time spent up to now is       40.7 secs

     total energy              =     -15.74008893 Ry
     estimated scf accuracy    <       0.00000492 Ry

     iteration # 15     ecut=    50.00 Ry     beta= 0.01
     Davidson diagonalization with overlap
     ethr =  3.79E-08,  avg # of iterations =  2.7

     total cpu time spent up to now is       43.1 secs

     total energy              =     -15.74009085 Ry
     estimated scf accuracy    <       0.00000188 Ry

     iteration # 16     ecut=    50.00 Ry     beta= 0.01
     Davidson diagonalization with overlap
     ethr =  2.34E-08,  avg # of iterations =  1.0

     total cpu time spent up to now is       44.4 secs

     total energy              =     -15.74009104 Ry
     estimated scf accuracy    <       0.00000148 Ry

     iteration # 17     ecut=    50.00 Ry     beta= 0.01
     Davidson diagonalization with overlap
     ethr =  1.86E-08,  avg # of iterations =  2.0

     total cpu time spent up to now is       46.2 secs

     End of self-consistent calculation

          k = 0.0000 0.0000 0.0000 (  1459 PWs)   bands (ev):

    -5.9190   7.1167   7.1167   7.1167

          k =-0.1000 0.1000-0.1000 (  1441 PWs)   bands (ev):

    -5.7698   5.9827   6.9011   6.9011

          k =-0.2000 0.2000-0.2000 (  1435 PWs)   bands (ev):

    -5.3284   3.9835   6.4846   6.4846

          k =-0.3000 0.3000-0.3000 (  1447 PWs)   bands (ev):

    -4.6211   2.0007   6.1172   6.1172

          k =-0.4000 0.4000-0.4000 (  1471 PWs)   bands (ev):

    -3.7468   0.3232   5.8844   5.8844

          k = 0.5000-0.5000 0.5000 (  1458 PWs)   bands (ev):

    -3.1951  -0.5010   5.8060   5.8060

          k = 0.0000 0.2000 0.0000 (  1443 PWs)   bands (ev):

    -5.7198   6.3071   6.4770   6.4770

          k =-0.1000 0.3000-0.1000 (  1440 PWs)   bands (ev):

    -5.3747   4.6369   5.9923   6.2659

          k =-0.2000 0.4000-0.2000 (  1451 PWs)   bands (ev):

    -4.7518   2.6801   5.6392   5.8060

          k =-0.3000 0.5000-0.3000 (  1452 PWs)   bands (ev):

    -3.9118   0.8999   5.3518   5.4792

          k = 0.6000-0.4000 0.6000 (  1455 PWs)   bands (ev):

    -3.1414  -0.3113   5.0213   5.5217

          k = 0.5000-0.3000 0.5000 (  1465 PWs)   bands (ev):

    -3.3469  -0.0152   4.8645   5.7501

          k = 0.4000-0.2000 0.4000 (  1451 PWs)   bands (ev):

    -4.2098   1.4626   4.9128   6.1268

          k = 0.3000-0.1000 0.3000 (  1460 PWs)   bands (ev):

    -4.9896   3.3209   5.1930   6.5782

          k = 0.2000 0.0000 0.2000 (  1438 PWs)   bands (ev):

    -5.5227   5.0982   5.8345   6.9347

          k = 0.0000 0.4000 0.0000 (  1463 PWs)   bands (ev):

    -5.1264   4.6113   5.4554   5.4554

          k =-0.1000 0.5000-0.1000 (  1455 PWs)   bands (ev):

    -4.5940   3.1869   4.9502   5.0651

          k =-0.2000 0.6000-0.2000 (  1454 PWs)   bands (ev):

    -3.8157   1.5313   4.2836   4.8885

          k = 0.7000-0.3000 0.7000 (  1461 PWs)   bands (ev):

    -2.9520   0.1471   3.7185   4.9420

          k = 0.6000-0.2000 0.6000 (  1467 PWs)   bands (ev):

    -2.7617  -0.1075   3.3703   5.2145

          k = 0.5000-0.1000 0.5000 (  1459 PWs)   bands (ev):

    -3.5431   1.0591   3.3120   5.6659

          k = 0.4000 0.0000 0.4000 (  1444 PWs)   bands (ev):

    -4.3754   2.4799   3.7777   6.1976

          k = 0.0000 0.6000 0.0000 (  1455 PWs)   bands (ev):

    -4.1524   2.6609   4.6216   4.6216

          k =-0.1000 0.7000-0.1000 (  1455 PWs)   bands (ev):

    -3.4501   1.5255   3.9237   4.3918

          k = 0.8000-0.2000 0.8000 (  1467 PWs)   bands (ev):

    -2.5768   0.3655   2.9903   4.4014

          k = 0.7000-0.1000 0.7000 (  1464 PWs)   bands (ev):

    -2.0614  -0.2132   2.3573   4.6473

          k = 0.6000-0.0000 0.6000 (  1468 PWs)   bands (ev):

    -2.6974   0.4690   2.3208   5.0980

          k = 0.0000 0.8000 0.0000 (  1463 PWs)   bands (ev):

    -2.8245   0.6780   4.0981   4.0981

          k = 0.9000-0.1000 0.9000 (  1463 PWs)   bands (ev):

    -1.9862  -0.2729   3.4290   4.0440

          k = 0.8000 0.0000 0.8000 (  1476 PWs)   bands (ev):

    -1.4015  -0.7709   2.5202   4.2343

          k = 0.0000-1.0000 0.0000 (  1428 PWs)   bands (ev):

    -1.1888  -1.1888   3.9207   3.9207

          k =-0.2000 0.4000 0.0000 (  1455 PWs)   bands (ev):

    -4.9366   3.6972   4.8061   6.0837

          k =-0.3000 0.5000-0.1000 (  1450 PWs)   bands (ev):

    -4.2339   2.1022   4.1958   5.6502

          k = 0.6000-0.4000 0.8000 (  1459 PWs)   bands (ev):

    -3.3614   0.5284   3.9814   5.2382

          k = 0.5000-0.3000 0.7000 (  1464 PWs)   bands (ev):

    -2.8029  -0.2780   3.9323   5.0723

          k =-0.2000 0.6000 0.0000 (  1455 PWs)   bands (ev):

    -3.9781   2.2282   3.9853   4.7989

          k = 0.7000-0.3000 0.9000 (  1465 PWs)   bands (ev):

    -3.1446   0.9664   3.3183   4.4104

          k = 0.6000-0.2000 0.8000 (  1459 PWs)   bands (ev):

    -2.3679  -0.0631   2.8753   4.3459

          k = 0.5000-0.1000 0.7000 (  1460 PWs)   bands (ev):

    -2.6080   0.2468   2.6844   4.6268

          k = 0.4000 0.0000 0.6000 (  1469 PWs)   bands (ev):

    -3.4722   1.3494   2.9964   5.1357

          k = 0.8000-0.2000 1.0000 (  1453 PWs)   bands (ev):

    -2.6822   0.5882   3.5128   3.8606

          k = 0.7000-0.1000 0.9000 (  1463 PWs)   bands (ev):

    -1.8174  -0.2928   2.6939   3.7647

          k = 0.6000 0.0000 0.8000 (  1465 PWs)   bands (ev):

    -1.7996  -0.2846   2.2124   4.0755

          k =-0.2000-1.0000 0.0000 (  1450 PWs)   bands (ev):

    -1.1165  -1.1165   3.4505   3.4505

          k = 0.6000-0.2000 1.0000 (  1464 PWs)   bands (ev):

    -2.2946   0.2451   2.6412   3.7450

          k = 0.5000-0.1000 0.9000 (  1464 PWs)   bands (ev):

    -1.6886  -0.3406   2.4556   3.4552

          k =-0.4000-1.0000 0.0000 (  1452 PWs)   bands (ev):

    -0.9859  -0.9859   2.8491   2.8491

     highest occupied level (ev):     7.1167

!    total energy              =     -15.74009077 Ry
     estimated scf accuracy    <       0.00000013 Ry

     The total energy is the sum of the following terms:
     one-electron contribution =       5.55804705 Ry
     hartree contribution      =       1.02828528 Ry
     xc contribution           =      -4.95230981 Ry
     ewald contribution        =     -17.37411331 Ry

     convergence has been achieved in  17 iterations
     Writing meta-gga kinetic term

     Writing all to output data dir ./input_pw/Si/6/pwscf.save/
     Writing meta-gga kinetic term
 
     init_run     :      1.88s CPU      3.90s WALL (       1 calls)
     electrons    :     21.58s CPU     42.25s WALL (       1 calls)

     Called by init_run:
     wfcinit      :      1.77s CPU      3.64s WALL (       1 calls)
     potinit      :      0.02s CPU      0.09s WALL (       1 calls)
     hinit0       :      0.07s CPU      0.15s WALL (       1 calls)

     Called by electrons:
     c_bands      :     17.10s CPU     32.92s WALL (      18 calls)
     sum_band     :      3.91s CPU      8.09s WALL (      18 calls)
     v_of_rho     :      0.36s CPU      0.83s WALL (      18 calls)
     mix_rho      :      0.22s CPU      0.48s WALL (      18 calls)

     Called by c_bands:
     init_us_2    :      0.31s CPU      0.68s WALL (    1739 calls)
     init_us_2:cp :      0.31s CPU      0.67s WALL (    1739 calls)
     cegterg      :     16.72s CPU     32.06s WALL (     846 calls)

     Called by *egterg:
     cdiaghg      :      0.14s CPU      0.23s WALL (    2154 calls)
     h_psi        :     17.84s CPU     34.56s WALL (    2248 calls)
     g_psi        :      0.02s CPU      0.03s WALL (    1355 calls)

     Called by h_psi:
     h_psi:calbec :      0.12s CPU      0.30s WALL (    2248 calls)
     vloc_psi     :      4.34s CPU      8.11s WALL (    2248 calls)
     add_vuspsi   :      0.10s CPU      0.22s WALL (    2248 calls)
     h_psi_meta   :     13.23s CPU     25.81s WALL (    2248 calls)

     General routines
     calbec       :      0.12s CPU      0.28s WALL (    2248 calls)
     fft          :      0.05s CPU      0.13s WALL (     215 calls)
     ffts         :      0.06s CPU      0.11s WALL (     296 calls)
     fftw         :     17.39s CPU     34.27s WALL (   84888 calls)
     interpolate  :      0.00s CPU      0.00s WALL (      18 calls)
 
     Parallel routines
 
     PWSCF        :     23.51s CPU     46.21s WALL

 
   This run was terminated on:  11:31:52  29Mar2023            

=------------------------------------------------------------------------------=
   JOB DONE.
=------------------------------------------------------------------------------=
