
     Program PWSCF v.7.0 starts on 21Feb2023 at 12:49:41 

     This program is part of the open-source Quantum ESPRESSO suite
     for quantum simulation of materials; please cite
         "P. Giannozzi et al., J. Phys.:Condens. Matter 21 395502 (2009);
         "P. Giannozzi et al., J. Phys.:Condens. Matter 29 465901 (2017);
         "P. Giannozzi et al., J. Chem. Phys. 152 154105 (2020);
          URL http://www.quantum-espresso.org", 
     in publications or presentations arising from this work. More details at
     http://www.quantum-espresso.org/quote

     Parallel version (MPI), running on     1 processors

     MPI processes distributed on     1 nodes
     3126 MiB available memory on the printing compute node when the environment starts
 
     Waiting for input...
     Reading input from standard input
Warning: card &CELL ignored
Warning: card / ignored

     Current dimensions of program PWSCF are:
     Max number of different atomic species (ntypx) = 10
     Max number of k-points (npk) =  40000
     Max angular momentum in pseudopotentials (lmaxx) =  4
     file Si.SCAN.UPF2: wavefunction(s)  0D renormalized

     WARNING: the MGGA functional with ID    5 has been 
     read together with other dft terms, but it should 
     stand alone in order to work properly. The other 
     terms will be ignored.

     Subspace diagonalization in iterative solution of the eigenvalue problem:
     a serial algorithm will be used

 
     G-vector sticks info
     --------------------
     sticks:   dense  smooth     PW     G-vecs:    dense   smooth      PW
     Sum         673     673    211                11311    11311    1989
 
     Using Slab Decomposition
 


     bravais-lattice index     =            2
     lattice parameter (alat)  =       9.8382  a.u.
     unit-cell volume          =     238.0603 (a.u.)^3
     number of atoms/cell      =            2
     number of atomic types    =            1
     number of electrons       =         8.00
     number of Kohn-Sham states=            4
     kinetic-energy cutoff     =      50.0000  Ry
     charge density cutoff     =     200.0000  Ry
     scf convergence threshold =      1.0E-06
     mixing beta               =       0.0100
     number of iterations used =            8  local-TF  mixing
     Exchange-correlation= SLA  PW   SCAN SCAN
                           (   0   0   0   0   0 263 267)

     celldm(1)=   9.838200  celldm(2)=   0.000000  celldm(3)=   0.000000
     celldm(4)=   0.000000  celldm(5)=   0.000000  celldm(6)=   0.000000

     crystal axes: (cart. coord. in units of alat)
               a(1) = (  -0.500000   0.000000   0.500000 )  
               a(2) = (   0.000000   0.500000   0.500000 )  
               a(3) = (  -0.500000   0.500000   0.000000 )  

     reciprocal axes: (cart. coord. in units 2 pi/alat)
               b(1) = ( -1.000000 -1.000000  1.000000 )  
               b(2) = (  1.000000  1.000000  1.000000 )  
               b(3) = ( -1.000000  1.000000 -1.000000 )  


     PseudoPot. # 1 for Si read from file:
     ~/Documents/TA/PWDFT.jl/pseudopotentials/scan_upf/Si.SCAN.UPF2
     MD5 check sum: Not computed, couldn't open file
     Pseudo is Norm-conserving, Zval =  4.0
     Generated by new atomic code, or converted to UPF format
     Using radial grid of 1475 points,  2 beta functions with: 
                l(1) =   0
                l(2) =   1

     atomic species   valence    mass     pseudopotential
        Si             4.00    28.08550     Si( 1.00)

     48 Sym. Ops., with inversion, found (24 have fractional translation)



   Cartesian axes

     site n.     atom                  positions (alat units)
         1           Si  tau(   1) = (   0.0000000   0.0000000   0.0000000  )
         2           Si  tau(   2) = (   0.2500000   0.2500000   0.2500000  )

     number of k points=    47
                       cart. coord. in units 2pi/alat
        k(    1) = (   0.0000000   0.0000000   0.0000000), wk =   0.0020000
        k(    2) = (  -0.1000000   0.1000000  -0.1000000), wk =   0.0160000
        k(    3) = (  -0.2000000   0.2000000  -0.2000000), wk =   0.0160000
        k(    4) = (  -0.3000000   0.3000000  -0.3000000), wk =   0.0160000
        k(    5) = (  -0.4000000   0.4000000  -0.4000000), wk =   0.0160000
        k(    6) = (   0.5000000  -0.5000000   0.5000000), wk =   0.0080000
        k(    7) = (   0.0000000   0.2000000   0.0000000), wk =   0.0120000
        k(    8) = (  -0.1000000   0.3000000  -0.1000000), wk =   0.0480000
        k(    9) = (  -0.2000000   0.4000000  -0.2000000), wk =   0.0480000
        k(   10) = (  -0.3000000   0.5000000  -0.3000000), wk =   0.0480000
        k(   11) = (   0.6000000  -0.4000000   0.6000000), wk =   0.0480000
        k(   12) = (   0.5000000  -0.3000000   0.5000000), wk =   0.0480000
        k(   13) = (   0.4000000  -0.2000000   0.4000000), wk =   0.0480000
        k(   14) = (   0.3000000  -0.1000000   0.3000000), wk =   0.0480000
        k(   15) = (   0.2000000   0.0000000   0.2000000), wk =   0.0240000
        k(   16) = (   0.0000000   0.4000000   0.0000000), wk =   0.0120000
        k(   17) = (  -0.1000000   0.5000000  -0.1000000), wk =   0.0480000
        k(   18) = (  -0.2000000   0.6000000  -0.2000000), wk =   0.0480000
        k(   19) = (   0.7000000  -0.3000000   0.7000000), wk =   0.0480000
        k(   20) = (   0.6000000  -0.2000000   0.6000000), wk =   0.0480000
        k(   21) = (   0.5000000  -0.1000000   0.5000000), wk =   0.0480000
        k(   22) = (   0.4000000   0.0000000   0.4000000), wk =   0.0240000
        k(   23) = (   0.0000000   0.6000000   0.0000000), wk =   0.0120000
        k(   24) = (  -0.1000000   0.7000000  -0.1000000), wk =   0.0480000
        k(   25) = (   0.8000000  -0.2000000   0.8000000), wk =   0.0480000
        k(   26) = (   0.7000000  -0.1000000   0.7000000), wk =   0.0480000
        k(   27) = (   0.6000000  -0.0000000   0.6000000), wk =   0.0240000
        k(   28) = (   0.0000000   0.8000000   0.0000000), wk =   0.0120000
        k(   29) = (   0.9000000  -0.1000000   0.9000000), wk =   0.0480000
        k(   30) = (   0.8000000   0.0000000   0.8000000), wk =   0.0240000
        k(   31) = (   0.0000000  -1.0000000   0.0000000), wk =   0.0060000
        k(   32) = (  -0.2000000   0.4000000   0.0000000), wk =   0.0480000
        k(   33) = (  -0.3000000   0.5000000  -0.1000000), wk =   0.0960000
        k(   34) = (   0.6000000  -0.4000000   0.8000000), wk =   0.0960000
        k(   35) = (   0.5000000  -0.3000000   0.7000000), wk =   0.0480000
        k(   36) = (  -0.2000000   0.6000000   0.0000000), wk =   0.0480000
        k(   37) = (   0.7000000  -0.3000000   0.9000000), wk =   0.0960000
        k(   38) = (   0.6000000  -0.2000000   0.8000000), wk =   0.0960000
        k(   39) = (   0.5000000  -0.1000000   0.7000000), wk =   0.0960000
        k(   40) = (   0.4000000   0.0000000   0.6000000), wk =   0.0480000
        k(   41) = (   0.8000000  -0.2000000   1.0000000), wk =   0.0480000
        k(   42) = (   0.7000000  -0.1000000   0.9000000), wk =   0.0960000
        k(   43) = (   0.6000000   0.0000000   0.8000000), wk =   0.0480000
        k(   44) = (  -0.2000000  -1.0000000   0.0000000), wk =   0.0240000
        k(   45) = (   0.6000000  -0.2000000   1.0000000), wk =   0.0480000
        k(   46) = (   0.5000000  -0.1000000   0.9000000), wk =   0.0480000
        k(   47) = (  -0.4000000  -1.0000000   0.0000000), wk =   0.0240000

     Dense  grid:    11311 G-vectors     FFT dimensions: (  32,  32,  32)

     Estimated max dynamical RAM per process >      21.00 MB

     WARNING: libxc functional with ID  263 depends
      on external parameters: check the user_guide of
      QE if you need to modify them or to check their
      default values.

     Initial potential from superposition of free atoms

     starting charge       7.9990, renormalised to       8.0000
     Starting wfcs are   18 randomized atomic wfcs

     total cpu time spent up to now is        3.6 secs

     Self-consistent Calculation

     iteration #  1     ecut=    50.00 Ry     beta= 0.01
     Davidson diagonalization with overlap
     ethr =  1.00E-02,  avg # of iterations =  2.0

     Threshold (ethr) on eigenvalues was too large:
     Diagonalizing with lowered threshold

     Davidson diagonalization with overlap
     ethr =  9.02E-04,  avg # of iterations =  1.2

     total cpu time spent up to now is        8.4 secs

     total energy              =     -15.61844851 Ry
     estimated scf accuracy    <       0.07644878 Ry

     iteration #  2     ecut=    50.00 Ry     beta= 0.01
     Davidson diagonalization with overlap
     ethr =  9.56E-04,  avg # of iterations =  1.0

     total cpu time spent up to now is       10.4 secs

     total energy              =     -15.72714370 Ry
     estimated scf accuracy    <       0.07577918 Ry

     iteration #  3     ecut=    50.00 Ry     beta= 0.01
     Davidson diagonalization with overlap
     ethr =  9.47E-04,  avg # of iterations =  1.9

     total cpu time spent up to now is       12.7 secs

     total energy              =     -15.72906745 Ry
     estimated scf accuracy    <       0.04286994 Ry

     iteration #  4     ecut=    50.00 Ry     beta= 0.01
     Davidson diagonalization with overlap
     ethr =  5.36E-04,  avg # of iterations =  1.4

     total cpu time spent up to now is       14.8 secs

     total energy              =     -15.73727709 Ry
     estimated scf accuracy    <       0.00726555 Ry

     iteration #  5     ecut=    50.00 Ry     beta= 0.01
     Davidson diagonalization with overlap
     ethr =  9.08E-05,  avg # of iterations =  1.8

     total cpu time spent up to now is       17.1 secs

     total energy              =     -15.73805665 Ry
     estimated scf accuracy    <       0.00942642 Ry

     iteration #  6     ecut=    50.00 Ry     beta= 0.01
     Davidson diagonalization with overlap
     ethr =  9.08E-05,  avg # of iterations =  1.0

     total cpu time spent up to now is       19.1 secs

     total energy              =     -15.73577570 Ry
     estimated scf accuracy    <       0.01038520 Ry

     iteration #  7     ecut=    50.00 Ry     beta= 0.01
     Davidson diagonalization with overlap
     ethr =  9.08E-05,  avg # of iterations =  1.0

     total cpu time spent up to now is       21.0 secs

     total energy              =     -15.73450384 Ry
     estimated scf accuracy    <       0.00403576 Ry

     iteration #  8     ecut=    50.00 Ry     beta= 0.01
     Davidson diagonalization with overlap
     ethr =  5.04E-05,  avg # of iterations =  1.7

     total cpu time spent up to now is       23.1 secs

     total energy              =     -15.73489323 Ry
     estimated scf accuracy    <       0.00012081 Ry

     iteration #  9     ecut=    50.00 Ry     beta= 0.01
     Davidson diagonalization with overlap
     ethr =  1.51E-06,  avg # of iterations =  2.6

     total cpu time spent up to now is       26.2 secs

     total energy              =     -15.73492905 Ry
     estimated scf accuracy    <       0.00011336 Ry

     iteration # 10     ecut=    50.00 Ry     beta= 0.01
     Davidson diagonalization with overlap
     ethr =  1.42E-06,  avg # of iterations =  1.0

     total cpu time spent up to now is       28.4 secs

     total energy              =     -15.73486055 Ry
     estimated scf accuracy    <       0.00014257 Ry

     iteration # 11     ecut=    50.00 Ry     beta= 0.01
     Davidson diagonalization with overlap
     ethr =  1.42E-06,  avg # of iterations =  2.0

     total cpu time spent up to now is       30.9 secs

     total energy              =     -15.73489163 Ry
     estimated scf accuracy    <       0.00000338 Ry

     iteration # 12     ecut=    50.00 Ry     beta= 0.01
     Davidson diagonalization with overlap
     ethr =  4.22E-08,  avg # of iterations =  2.5

     total cpu time spent up to now is       33.7 secs

     total energy              =     -15.73489076 Ry
     estimated scf accuracy    <       0.00000309 Ry

     iteration # 13     ecut=    50.00 Ry     beta= 0.01
     Davidson diagonalization with overlap
     ethr =  3.86E-08,  avg # of iterations =  1.0

     total cpu time spent up to now is       35.7 secs

     total energy              =     -15.73487764 Ry
     estimated scf accuracy    <       0.00000302 Ry

     iteration # 14     ecut=    50.00 Ry     beta= 0.01
     Davidson diagonalization with overlap
     ethr =  3.77E-08,  avg # of iterations =  3.0

     total cpu time spent up to now is       38.6 secs

     End of self-consistent calculation

          k = 0.0000 0.0000 0.0000 (  1411 PWs)   bands (ev):

    -5.8257   7.4062   7.4062   7.4062

          k =-0.1000 0.1000-0.1000 (  1429 PWs)   bands (ev):

    -5.6733   6.2594   7.1854   7.1854

          k =-0.2000 0.2000-0.2000 (  1414 PWs)   bands (ev):

    -5.2225   4.2301   6.7610   6.7610

          k =-0.3000 0.3000-0.3000 (  1423 PWs)   bands (ev):

    -4.4991   2.2118   6.3883   6.3883

          k =-0.4000 0.4000-0.4000 (  1422 PWs)   bands (ev):

    -3.6013   0.4980   6.1530   6.1530

          k = 0.5000-0.5000 0.5000 (  1404 PWs)   bands (ev):

    -3.0290  -0.3513   6.0739   6.0739

          k = 0.0000 0.2000 0.0000 (  1419 PWs)   bands (ev):

    -5.6223   6.6075   6.7483   6.7483

          k =-0.1000 0.3000-0.1000 (  1418 PWs)   bands (ev):

    -5.2699   4.9018   6.2532   6.5468

          k =-0.2000 0.4000-0.2000 (  1414 PWs)   bands (ev):

    -4.6332   2.9090   5.8946   6.0795

          k =-0.3000 0.5000-0.3000 (  1424 PWs)   bands (ev):

    -3.7724   1.0918   5.6167   5.7340

          k = 0.6000-0.4000 0.6000 (  1432 PWs)   bands (ev):

    -2.9763  -0.1528   5.2780   5.7799

          k = 0.5000-0.3000 0.5000 (  1423 PWs)   bands (ev):

    -3.1898   0.1529   5.1150   6.0151

          k = 0.4000-0.2000 0.4000 (  1418 PWs)   bands (ev):

    -4.0781   1.6668   5.1601   6.4006

          k = 0.3000-0.1000 0.3000 (  1405 PWs)   bands (ev):

    -4.8764   3.5628   5.4403   6.8615

          k = 0.2000 0.0000 0.2000 (  1420 PWs)   bands (ev):

    -5.4211   5.3726   6.0886   7.2242

          k = 0.0000 0.4000 0.0000 (  1427 PWs)   bands (ev):

    -5.0165   4.9079   5.7037   5.7037

          k =-0.1000 0.5000-0.1000 (  1417 PWs)   bands (ev):

    -4.4727   3.4492   5.1972   5.3061

          k =-0.2000 0.6000-0.2000 (  1422 PWs)   bands (ev):

    -3.6761   1.7537   4.5201   5.1274

          k = 0.7000-0.3000 0.7000 (  1427 PWs)   bands (ev):

    -2.7873   0.3320   3.9433   5.1838

          k = 0.6000-0.2000 0.6000 (  1440 PWs)   bands (ev):

    -2.5891   0.0677   3.5849   5.4639

          k = 0.5000-0.1000 0.5000 (  1427 PWs)   bands (ev):

    -3.3954   1.2693   3.5183   5.9269

          k = 0.4000 0.0000 0.4000 (  1412 PWs)   bands (ev):

    -4.2484   2.7248   3.9842   6.4721

          k = 0.0000 0.6000 0.0000 (  1411 PWs)   bands (ev):

    -4.0219   2.9316   4.8531   4.8531

          k =-0.1000 0.7000-0.1000 (  1420 PWs)   bands (ev):

    -3.3041   1.7742   4.1358   4.6193

          k = 0.8000-0.2000 0.8000 (  1425 PWs)   bands (ev):

    -2.4083   0.5864   3.1776   4.6301

          k = 0.7000-0.1000 0.7000 (  1427 PWs)   bands (ev):

    -1.8731  -0.0134   2.5278   4.8823

          k = 0.6000-0.0000 0.6000 (  1428 PWs)   bands (ev):

    -2.5279   0.6869   2.4881   5.3442

          k = 0.0000 0.8000 0.0000 (  1411 PWs)   bands (ev):

    -2.6656   0.9113   4.3196   4.3196

          k = 0.9000-0.1000 0.9000 (  1416 PWs)   bands (ev):

    -1.8082  -0.0581   3.6275   4.2648

          k = 0.8000 0.0000 0.8000 (  1418 PWs)   bands (ev):

    -1.2010  -0.5708   2.6876   4.4596

          k = 0.0000-1.0000 0.0000 (  1428 PWs)   bands (ev):

    -0.9949  -0.9949   4.1388   4.1388

          k =-0.2000 0.4000 0.0000 (  1405 PWs)   bands (ev):

    -4.8224   3.9616   5.0370   6.3573

          k =-0.3000 0.5000-0.1000 (  1415 PWs)   bands (ev):

    -4.1038   2.3319   4.4230   5.9111

          k = 0.6000-0.4000 0.8000 (  1419 PWs)   bands (ev):

    -3.2080   0.7191   4.2126   5.4861

          k = 0.5000-0.3000 0.7000 (  1426 PWs)   bands (ev):

    -2.6293  -0.1128   4.1659   5.3143

          k =-0.2000 0.6000 0.0000 (  1413 PWs)   bands (ev):

    -3.8432   2.4845   4.1985   5.0345

          k = 0.7000-0.3000 0.9000 (  1418 PWs)   bands (ev):

    -2.9894   1.1933   3.5212   4.6324

          k = 0.6000-0.2000 0.8000 (  1421 PWs)   bands (ev):

    -2.1878   0.1307   3.0714   4.5661

          k = 0.5000-0.1000 0.7000 (  1427 PWs)   bands (ev):

    -2.4355   0.4507   2.8714   4.8559

          k = 0.4000 0.0000 0.6000 (  1419 PWs)   bands (ev):

    -3.3239   1.5832   3.1837   5.3798

          k = 0.8000-0.2000 1.0000 (  1427 PWs)   bands (ev):

    -2.5187   0.8219   3.7149   4.0679

          k = 0.7000-0.1000 0.9000 (  1427 PWs)   bands (ev):

    -1.6303  -0.0773   2.8679   3.9707

          k = 0.6000 0.0000 0.8000 (  1421 PWs)   bands (ev):

    -1.6062  -0.0740   2.3715   4.2900

          k =-0.2000-1.0000 0.0000 (  1420 PWs)   bands (ev):

    -0.9183  -0.9183   3.6494   3.6494

          k = 0.6000-0.2000 1.0000 (  1424 PWs)   bands (ev):

    -2.1179   0.4712   2.8165   3.9453

          k = 0.5000-0.1000 0.9000 (  1418 PWs)   bands (ev):

    -1.4933  -0.1290   2.6249   3.6469

          k =-0.4000-1.0000 0.0000 (  1420 PWs)   bands (ev):

    -0.7789  -0.7789   3.0247   3.0247

     highest occupied level (ev):     7.4062

!    total energy              =     -15.73488111 Ry
     estimated scf accuracy    <       0.00000019 Ry

     The total energy is the sum of the following terms:
     one-electron contribution =       5.75952086 Ry
     hartree contribution      =       1.00891136 Ry
     xc contribution           =      -4.98206577 Ry
     ewald contribution        =     -17.52124756 Ry

     convergence has been achieved in  14 iterations
     Writing meta-gga kinetic term

     Writing all to output data dir ./input_pw/Si/6/pwscf.save/
     Writing meta-gga kinetic term
 
     init_run     :      1.79s CPU      3.61s WALL (       1 calls)
     electrons    :     17.54s CPU     34.91s WALL (       1 calls)

     Called by init_run:
     wfcinit      :      1.70s CPU      3.39s WALL (       1 calls)
     potinit      :      0.02s CPU      0.06s WALL (       1 calls)
     hinit0       :      0.06s CPU      0.14s WALL (       1 calls)

     Called by electrons:
     c_bands      :     13.94s CPU     27.85s WALL (      15 calls)
     sum_band     :      3.14s CPU      6.17s WALL (      15 calls)
     v_of_rho     :      0.30s CPU      0.64s WALL (      15 calls)
     mix_rho      :      0.17s CPU      0.30s WALL (      15 calls)

     Called by c_bands:
     init_us_2    :      0.25s CPU      0.54s WALL (    1457 calls)
     init_us_2:cp :      0.25s CPU      0.54s WALL (    1457 calls)
     cegterg      :     13.64s CPU     27.13s WALL (     705 calls)

     Called by *egterg:
     cdiaghg      :      0.11s CPU      0.19s WALL (    1837 calls)
     h_psi        :     14.78s CPU     29.37s WALL (    1931 calls)
     g_psi        :      0.02s CPU      0.06s WALL (    1179 calls)

     Called by h_psi:
     h_psi:calbec :      0.10s CPU      0.17s WALL (    1931 calls)
     vloc_psi     :      3.60s CPU      7.20s WALL (    1931 calls)
     add_vuspsi   :      0.08s CPU      0.19s WALL (    1931 calls)
     h_psi_meta   :     10.95s CPU     21.71s WALL (    1931 calls)

     General routines
     calbec       :      0.10s CPU      0.15s WALL (    1931 calls)
     fft          :      0.04s CPU      0.10s WALL (     179 calls)
     ffts         :      0.05s CPU      0.06s WALL (     241 calls)
     fftw         :     14.25s CPU     28.31s WALL (   72808 calls)
     interpolate  :      0.00s CPU      0.00s WALL (      15 calls)
 
     Parallel routines
 
     PWSCF        :     19.38s CPU     38.59s WALL

 
   This run was terminated on:  12:50:19  21Feb2023            

=------------------------------------------------------------------------------=
   JOB DONE.
=------------------------------------------------------------------------------=
