
     Program PWSCF v.7.0 starts on 18Feb2023 at 14:42:25 

     This program is part of the open-source Quantum ESPRESSO suite
     for quantum simulation of materials; please cite
         "P. Giannozzi et al., J. Phys.:Condens. Matter 21 395502 (2009);
         "P. Giannozzi et al., J. Phys.:Condens. Matter 29 465901 (2017);
         "P. Giannozzi et al., J. Chem. Phys. 152 154105 (2020);
          URL http://www.quantum-espresso.org", 
     in publications or presentations arising from this work. More details at
     http://www.quantum-espresso.org/quote

     Parallel version (MPI), running on     1 processors

     MPI processes distributed on     1 nodes
     8260 MiB available memory on the printing compute node when the environment starts
 
     Waiting for input...
     Reading input from standard input

     Current dimensions of program PWSCF are:
     Max number of different atomic species (ntypx) = 10
     Max number of k-points (npk) =  40000
     Max angular momentum in pseudopotentials (lmaxx) =  4
     file Si.SCAN.UPF: wavefunction(s)  0D renormalized

     WARNING: the MGGA functional with ID    5 has been 
     read together with other dft terms, but it should 
     stand alone in order to work properly. The other 
     terms will be ignored.

     Subspace diagonalization in iterative solution of the eigenvalue problem:
     a serial algorithm will be used

 
     G-vector sticks info
     --------------------
     sticks:   dense  smooth     PW     G-vecs:    dense   smooth      PW
     Sum         733     733    223                12939    12939    2229
 
     Using Slab Decomposition
 


     bravais-lattice index     =            2
     lattice parameter (alat)  =      10.2631  a.u.
     unit-cell volume          =     270.2562 (a.u.)^3
     number of atoms/cell      =            2
     number of atomic types    =            1
     number of electrons       =         8.00
     number of Kohn-Sham states=            4
     kinetic-energy cutoff     =      50.0000  Ry
     charge density cutoff     =     200.0000  Ry
     scf convergence threshold =      1.0E-06
     mixing beta               =       0.0100
     number of iterations used =            8  local-TF  mixing
     energy convergence thresh.=      1.0E-04
     force convergence thresh. =      1.0E-03
     press convergence thresh. =      5.0E-01
     Exchange-correlation=  SLA  PW   SCAN SCAN
                           (   0   0   0   0   0 263 267)
     nstep                     =           50


     celldm(1)=  10.263100  celldm(2)=   0.000000  celldm(3)=   0.000000
     celldm(4)=   0.000000  celldm(5)=   0.000000  celldm(6)=   0.000000

     crystal axes: (cart. coord. in units of alat)
               a(1) = (  -0.500000   0.000000   0.500000 )  
               a(2) = (   0.000000   0.500000   0.500000 )  
               a(3) = (  -0.500000   0.500000   0.000000 )  

     reciprocal axes: (cart. coord. in units 2 pi/alat)
               b(1) = ( -1.000000 -1.000000  1.000000 )  
               b(2) = (  1.000000  1.000000  1.000000 )  
               b(3) = ( -1.000000  1.000000 -1.000000 )  


     PseudoPot. # 1 for Si read from file:
     ~/Documents/PWDFT.jl/pseudopotentials/scan_upf/Si.SCAN.UPF
     MD5 check sum: Not computed, couldn't open file
     Pseudo is Norm-conserving, Zval =  4.0
     Generated by new atomic code, or converted to UPF format
     Using radial grid of 1475 points,  2 beta functions with: 
                l(1) =   0
                l(2) =   1

     atomic species   valence    mass     pseudopotential
        Si             4.00    28.08550     Si( 1.00)

     48 Sym. Ops., with inversion, found (24 have fractional translation)



   Cartesian axes

     site n.     atom                  positions (alat units)
         1           Si  tau(   1) = (   0.0000000   0.0000000   0.0000000  )
         2           Si  tau(   2) = (   0.2500000   0.2500000   0.2500000  )

     number of k points=    47
                       cart. coord. in units 2pi/alat
        k(    1) = (   0.0000000   0.0000000   0.0000000), wk =   0.0020000
        k(    2) = (  -0.1000000   0.1000000  -0.1000000), wk =   0.0160000
        k(    3) = (  -0.2000000   0.2000000  -0.2000000), wk =   0.0160000
        k(    4) = (  -0.3000000   0.3000000  -0.3000000), wk =   0.0160000
        k(    5) = (  -0.4000000   0.4000000  -0.4000000), wk =   0.0160000
        k(    6) = (   0.5000000  -0.5000000   0.5000000), wk =   0.0080000
        k(    7) = (   0.0000000   0.2000000   0.0000000), wk =   0.0120000
        k(    8) = (  -0.1000000   0.3000000  -0.1000000), wk =   0.0480000
        k(    9) = (  -0.2000000   0.4000000  -0.2000000), wk =   0.0480000
        k(   10) = (  -0.3000000   0.5000000  -0.3000000), wk =   0.0480000
        k(   11) = (   0.6000000  -0.4000000   0.6000000), wk =   0.0480000
        k(   12) = (   0.5000000  -0.3000000   0.5000000), wk =   0.0480000
        k(   13) = (   0.4000000  -0.2000000   0.4000000), wk =   0.0480000
        k(   14) = (   0.3000000  -0.1000000   0.3000000), wk =   0.0480000
        k(   15) = (   0.2000000   0.0000000   0.2000000), wk =   0.0240000
        k(   16) = (   0.0000000   0.4000000   0.0000000), wk =   0.0120000
        k(   17) = (  -0.1000000   0.5000000  -0.1000000), wk =   0.0480000
        k(   18) = (  -0.2000000   0.6000000  -0.2000000), wk =   0.0480000
        k(   19) = (   0.7000000  -0.3000000   0.7000000), wk =   0.0480000
        k(   20) = (   0.6000000  -0.2000000   0.6000000), wk =   0.0480000
        k(   21) = (   0.5000000  -0.1000000   0.5000000), wk =   0.0480000
        k(   22) = (   0.4000000   0.0000000   0.4000000), wk =   0.0240000
        k(   23) = (   0.0000000   0.6000000   0.0000000), wk =   0.0120000
        k(   24) = (  -0.1000000   0.7000000  -0.1000000), wk =   0.0480000
        k(   25) = (   0.8000000  -0.2000000   0.8000000), wk =   0.0480000
        k(   26) = (   0.7000000  -0.1000000   0.7000000), wk =   0.0480000
        k(   27) = (   0.6000000  -0.0000000   0.6000000), wk =   0.0240000
        k(   28) = (   0.0000000   0.8000000   0.0000000), wk =   0.0120000
        k(   29) = (   0.9000000  -0.1000000   0.9000000), wk =   0.0480000
        k(   30) = (   0.8000000   0.0000000   0.8000000), wk =   0.0240000
        k(   31) = (   0.0000000  -1.0000000   0.0000000), wk =   0.0060000
        k(   32) = (  -0.2000000   0.4000000   0.0000000), wk =   0.0480000
        k(   33) = (  -0.3000000   0.5000000  -0.1000000), wk =   0.0960000
        k(   34) = (   0.6000000  -0.4000000   0.8000000), wk =   0.0960000
        k(   35) = (   0.5000000  -0.3000000   0.7000000), wk =   0.0480000
        k(   36) = (  -0.2000000   0.6000000   0.0000000), wk =   0.0480000
        k(   37) = (   0.7000000  -0.3000000   0.9000000), wk =   0.0960000
        k(   38) = (   0.6000000  -0.2000000   0.8000000), wk =   0.0960000
        k(   39) = (   0.5000000  -0.1000000   0.7000000), wk =   0.0960000
        k(   40) = (   0.4000000   0.0000000   0.6000000), wk =   0.0480000
        k(   41) = (   0.8000000  -0.2000000   1.0000000), wk =   0.0480000
        k(   42) = (   0.7000000  -0.1000000   0.9000000), wk =   0.0960000
        k(   43) = (   0.6000000   0.0000000   0.8000000), wk =   0.0480000
        k(   44) = (  -0.2000000  -1.0000000   0.0000000), wk =   0.0240000
        k(   45) = (   0.6000000  -0.2000000   1.0000000), wk =   0.0480000
        k(   46) = (   0.5000000  -0.1000000   0.9000000), wk =   0.0480000
        k(   47) = (  -0.4000000  -1.0000000   0.0000000), wk =   0.0240000

     Dense  grid:    12939 G-vectors     FFT dimensions: (  36,  36,  36)

     Estimated max dynamical RAM per process >      25.12 MB

     WARNING: libxc functional with ID  263 depends
      on external parameters: check the user_guide of
      QE if you need to modify them or to check their
      default values.

     Initial potential from superposition of free atoms

     starting charge       7.9990, renormalised to       8.0000
     Starting wfcs are   18 randomized atomic wfcs

     total cpu time spent up to now is        2.3 secs

     Self-consistent Calculation

     iteration #  1     ecut=    50.00 Ry     beta= 0.01
     Davidson diagonalization with overlap
     ethr =  1.00E-02,  avg # of iterations =  1.9

     Threshold (ethr) on eigenvalues was too large:
     Diagonalizing with lowered threshold

     Davidson diagonalization with overlap
     ethr =  7.50E-04,  avg # of iterations =  1.5

     total cpu time spent up to now is        4.9 secs

     total energy              =     -15.64718409 Ry
     estimated scf accuracy    <       0.06369659 Ry

     iteration #  2     ecut=    50.00 Ry     beta= 0.01
     Davidson diagonalization with overlap
     ethr =  7.96E-04,  avg # of iterations =  1.0

     total cpu time spent up to now is        6.1 secs

     total energy              =     -15.73873046 Ry
     estimated scf accuracy    <       0.06325939 Ry

     iteration #  3     ecut=    50.00 Ry     beta= 0.01
     Davidson diagonalization with overlap
     ethr =  7.91E-04,  avg # of iterations =  1.8

     total cpu time spent up to now is        7.4 secs

     total energy              =     -15.74379362 Ry
     estimated scf accuracy    <       0.03764408 Ry

     iteration #  4     ecut=    50.00 Ry     beta= 0.01
     Davidson diagonalization with overlap
     ethr =  4.71E-04,  avg # of iterations =  1.3

     total cpu time spent up to now is        8.6 secs

     total energy              =     -15.75072846 Ry
     estimated scf accuracy    <       0.00578921 Ry

     iteration #  5     ecut=    50.00 Ry     beta= 0.01
     Davidson diagonalization with overlap
     ethr =  7.24E-05,  avg # of iterations =  1.4

     total cpu time spent up to now is        9.9 secs

     total energy              =     -15.75129960 Ry
     estimated scf accuracy    <       0.00751737 Ry

     iteration #  6     ecut=    50.00 Ry     beta= 0.01
     Davidson diagonalization with overlap
     ethr =  7.24E-05,  avg # of iterations =  1.0

     total cpu time spent up to now is       11.1 secs

     total energy              =     -15.75053156 Ry
     estimated scf accuracy    <       0.00835907 Ry

     iteration #  7     ecut=    50.00 Ry     beta= 0.01
     Davidson diagonalization with overlap
     ethr =  7.24E-05,  avg # of iterations =  1.0

     total cpu time spent up to now is       12.3 secs

     total energy              =     -15.74997928 Ry
     estimated scf accuracy    <       0.00299889 Ry

     iteration #  8     ecut=    50.00 Ry     beta= 0.01
     Davidson diagonalization with overlap
     ethr =  3.75E-05,  avg # of iterations =  1.0

     total cpu time spent up to now is       13.4 secs

     total energy              =     -15.75015569 Ry
     estimated scf accuracy    <       0.00026679 Ry

     iteration #  9     ecut=    50.00 Ry     beta= 0.01
     Davidson diagonalization with overlap
     ethr =  3.33E-06,  avg # of iterations =  1.1

     total cpu time spent up to now is       14.6 secs

     total energy              =     -15.75016427 Ry
     estimated scf accuracy    <       0.00022057 Ry

     iteration # 10     ecut=    50.00 Ry     beta= 0.01
     Davidson diagonalization with overlap
     ethr =  2.76E-06,  avg # of iterations =  1.0

     total cpu time spent up to now is       15.8 secs

     total energy              =     -15.75008276 Ry
     estimated scf accuracy    <       0.00022800 Ry

     iteration # 11     ecut=    50.00 Ry     beta= 0.01
     Davidson diagonalization with overlap
     ethr =  2.76E-06,  avg # of iterations =  1.5

     total cpu time spent up to now is       17.0 secs

     total energy              =     -15.75010023 Ry
     estimated scf accuracy    <       0.00003996 Ry

     iteration # 12     ecut=    50.00 Ry     beta= 0.01
     Davidson diagonalization with overlap
     ethr =  4.99E-07,  avg # of iterations =  1.2

     total cpu time spent up to now is       18.2 secs

     total energy              =     -15.75009831 Ry
     estimated scf accuracy    <       0.00002077 Ry

     iteration # 13     ecut=    50.00 Ry     beta= 0.01
     Davidson diagonalization with overlap
     ethr =  2.60E-07,  avg # of iterations =  1.0

     total cpu time spent up to now is       19.3 secs

     total energy              =     -15.75009466 Ry
     estimated scf accuracy    <       0.00001248 Ry

     iteration # 14     ecut=    50.00 Ry     beta= 0.01
     Davidson diagonalization with overlap
     ethr =  1.56E-07,  avg # of iterations =  1.0

     total cpu time spent up to now is       20.4 secs

     total energy              =     -15.75008912 Ry
     estimated scf accuracy    <       0.00001026 Ry

     iteration # 15     ecut=    50.00 Ry     beta= 0.01
     Davidson diagonalization with overlap
     ethr =  1.28E-07,  avg # of iterations =  2.0

     total cpu time spent up to now is       21.9 secs

     End of self-consistent calculation

          k = 0.0000 0.0000 0.0000 (  1639 PWs)   bands (ev):

    -6.2992   6.0102   6.0102   6.0102

          k =-0.1000 0.1000-0.1000 (  1606 PWs)   bands (ev):

    -6.1621   4.9129   5.8167   5.8167

          k =-0.2000 0.2000-0.2000 (  1606 PWs)   bands (ev):

    -5.7570   3.0233   5.4339   5.4339

          k =-0.3000 0.3000-0.3000 (  1615 PWs)   bands (ev):

    -5.1119   1.1759   5.0891   5.0891

          k =-0.4000 0.4000-0.4000 (  1616 PWs)   bands (ev):

    -4.3280  -0.3619   4.8677   4.8677

          k = 0.5000-0.5000 0.5000 (  1622 PWs)   bands (ev):

    -3.8530  -1.0924   4.7926   4.7926

          k = 0.0000 0.2000 0.0000 (  1599 PWs)   bands (ev):

    -6.1160   5.1388   5.4446   5.4446

          k =-0.1000 0.3000-0.1000 (  1609 PWs)   bands (ev):

    -5.7990   3.6008   5.0022   5.1995

          k =-0.2000 0.4000-0.2000 (  1607 PWs)   bands (ev):

    -5.2293   1.7836   4.6714   4.7680

          k =-0.3000 0.5000-0.3000 (  1610 PWs)   bands (ev):

    -4.4699   0.1466   4.3474   4.5149

          k = 0.6000-0.4000 0.6000 (  1609 PWs)   bands (ev):

    -3.7963  -0.9380   4.0476   4.5445

          k = 0.5000-0.3000 0.5000 (  1616 PWs)   bands (ev):

    -3.9724  -0.6773   3.9145   4.7471

          k = 0.4000-0.2000 0.4000 (  1621 PWs)   bands (ev):

    -4.7380   0.6614   3.9756   5.0891

          k = 0.3000-0.1000 0.3000 (  1605 PWs)   bands (ev):

    -5.4467   2.3741   4.2568   5.5024

          k = 0.2000 0.0000 0.2000 (  1592 PWs)   bands (ev):

    -5.9351   4.0289   4.8708   5.8318

          k = 0.0000 0.4000 0.0000 (  1607 PWs)   bands (ev):

    -5.5705   3.4520   4.5151   4.5151

          k =-0.1000 0.5000-0.1000 (  1612 PWs)   bands (ev):

    -5.0823   2.1544   4.0200   4.1539

          k =-0.2000 0.6000-0.2000 (  1619 PWs)   bands (ev):

    -4.3742   0.6535   3.3926   3.9857

          k = 0.7000-0.3000 0.7000 (  1606 PWs)   bands (ev):

    -3.6064  -0.5862   2.8711   4.0280

          k = 0.6000-0.2000 0.6000 (  1596 PWs)   bands (ev):

    -3.4453  -0.8051   2.5617   4.2713

          k = 0.5000-0.1000 0.5000 (  1610 PWs)   bands (ev):

    -4.1325   0.2286   2.5367   4.6780

          k = 0.4000 0.0000 0.4000 (  1610 PWs)   bands (ev):

    -4.8856   1.5194   2.9989   5.1570

          k = 0.0000 0.6000 0.0000 (  1620 PWs)   bands (ev):

    -4.6757   1.6005   3.7470   3.7470

          k =-0.1000 0.7000-0.1000 (  1625 PWs)   bands (ev):

    -4.0332   0.5496   3.1227   3.5330

          k = 0.8000-0.2000 0.8000 (  1619 PWs)   bands (ev):

    -3.2459  -0.5049   2.2849   3.5380

          k = 0.7000-0.1000 0.7000 (  1621 PWs)   bands (ev):

    -2.8045  -1.0059   1.7174   3.7596

          k = 0.6000-0.0000 0.6000 (  1608 PWs)   bands (ev):

    -3.3702  -0.3893   1.6916   4.1674

          k = 0.0000 0.8000 0.0000 (  1624 PWs)   bands (ev):

    -3.4567  -0.2393   3.2626   3.2626

          k = 0.9000-0.1000 0.9000 (  1623 PWs)   bands (ev):

    -2.6923  -1.1192   2.6800   3.2113

          k = 0.8000 0.0000 0.8000 (  1622 PWs)   bands (ev):

    -2.1913  -1.5614   1.8877   3.3841

          k = 0.0000-1.0000 0.0000 (  1604 PWs)   bands (ev):

    -1.9558  -1.9558   3.0981   3.0981

          k =-0.2000 0.4000 0.0000 (  1613 PWs)   bands (ev):

    -5.3972   2.6609   3.9335   5.0468

          k =-0.3000 0.5000-0.1000 (  1609 PWs)   bands (ev):

    -4.7562   1.1976   3.3394   4.6623

          k = 0.6000-0.4000 0.8000 (  1618 PWs)   bands (ev):

    -3.9724  -0.2255   3.1086   4.2998

          k = 0.5000-0.3000 0.7000 (  1608 PWs)   bands (ev):

    -3.4895  -0.9356   3.0501   4.1557

          k =-0.2000 0.6000 0.0000 (  1617 PWs)   bands (ev):

    -4.5186   1.2227   3.1809   3.9075

          k = 0.7000-0.3000 0.9000 (  1621 PWs)   bands (ev):

    -3.7632   0.0710   2.5565   3.5701

          k = 0.6000-0.2000 0.8000 (  1613 PWs)   bands (ev):

    -3.0799  -0.8346   2.1412   3.5122

          k = 0.5000-0.1000 0.7000 (  1613 PWs)   bands (ev):

    -3.2917  -0.5626   1.9840   3.7600

          k = 0.4000 0.0000 0.6000 (  1607 PWs)   bands (ev):

    -4.0640   0.4302   2.2911   4.2115

          k = 0.8000-0.2000 1.0000 (  1621 PWs)   bands (ev):

    -3.3324  -0.3294   2.7504   3.0758

          k = 0.7000-0.1000 0.9000 (  1625 PWs)   bands (ev):

    -2.5574  -1.1407   2.0372   2.9864

          k = 0.6000 0.0000 0.8000 (  1614 PWs)   bands (ev):

    -2.5620  -1.1148   1.6120   3.2648

          k =-0.2000-1.0000 0.0000 (  1624 PWs)   bands (ev):

    -1.8997  -1.8997   2.6996   2.6996

          k = 0.6000-0.2000 1.0000 (  1616 PWs)   bands (ev):

    -2.9951  -0.6428   1.9811   2.9867

          k = 0.5000-0.1000 0.9000 (  1608 PWs)   bands (ev):

    -2.4581  -1.1759   1.8186   2.7295

          k =-0.4000-1.0000 0.0000 (  1626 PWs)   bands (ev):

    -1.8006  -1.8006   2.1852   2.1852

     highest occupied level (ev):     6.0102

!    total energy              =     -15.75009089 Ry
     estimated scf accuracy    <       0.00000016 Ry

     The total energy is the sum of the following terms:
     one-electron contribution =       4.77378982 Ry
     hartree contribution      =       1.11241550 Ry
     xc contribution           =      -4.84044137 Ry
     ewald contribution        =     -16.79585484 Ry

     convergence has been achieved in  15 iterations
     Writing meta-gga kinetic term

     Forces acting on atoms (cartesian axes, Ry/au):

     atom    1 type  1   force =    -0.00000000   -0.00000000   -0.00000000
     atom    2 type  1   force =     0.00000000    0.00000000    0.00000000

     Total force =     0.000000     Total SCF correction =     0.000000


     Computing stress (Cartesian axis) and pressure

          total   stress  (Ry/bohr**3)                   (kbar)     P=       -8.62
  -0.00005862   0.00000000   0.00000000           -8.62        0.00        0.00
  -0.00000000  -0.00005862   0.00000000           -0.00       -8.62        0.00
   0.00000000   0.00000000  -0.00005862            0.00        0.00       -8.62


     BFGS Geometry Optimization
     Energy error            =      0.0E+00 Ry
     Gradient error          =      2.1E-33 Ry/Bohr
     Cell gradient error     =      8.6E+00 kbar

     number of scf cycles    =   1
     number of bfgs steps    =   0

     enthalpy           new  =     -15.7500908875 Ry

     new trust radius        =       0.0048182071 bohr
     new conv_thr            =       0.0000010000 Ry

     new unit-cell volume =    269.06982 a.u.^3 (    39.87203 Ang^3 )
     density =      2.33934 g/cm^3

CELL_PARAMETERS (alat= 10.26310000)
  -0.499267281   0.000000000   0.499267281
   0.000000000   0.499267281   0.499267281
  -0.499267281   0.499267281   0.000000000

ATOMIC_POSITIONS (alat)
Si           -0.0000000000       -0.0000000000       -0.0000000000
Si            0.2496336404        0.2496336404        0.2496336404



     Writing config-only to output data dir ./pwscf.save/
     NEW-OLD atomic charge density approx. for the potential
     extrapolated charge    7.96473, renormalised to    8.00000

     total cpu time spent up to now is       22.7 secs

     Self-consistent Calculation

     iteration #  1     ecut=    50.00 Ry     beta= 0.01
     Davidson diagonalization with overlap
     ethr =  1.00E-06,  avg # of iterations =  2.0

     Threshold (ethr) on eigenvalues was too large:
     Diagonalizing with lowered threshold

     Davidson diagonalization with overlap
     ethr =  9.98E-08,  avg # of iterations =  1.3

     total cpu time spent up to now is       25.4 secs

     total energy              =     -15.75013023 Ry
     estimated scf accuracy    <       0.00000791 Ry

     iteration #  2     ecut=    50.00 Ry     beta= 0.01
     Davidson diagonalization with overlap
     ethr =  9.88E-08,  avg # of iterations =  3.0

     total cpu time spent up to now is       27.2 secs

     total energy              =     -15.75014196 Ry
     estimated scf accuracy    <       0.00000284 Ry

     iteration #  3     ecut=    50.00 Ry     beta= 0.01
     Davidson diagonalization with overlap
     ethr =  3.55E-08,  avg # of iterations =  1.0

     total cpu time spent up to now is       28.4 secs

     total energy              =     -15.75014248 Ry
     estimated scf accuracy    <       0.00000282 Ry

     iteration #  4     ecut=    50.00 Ry     beta= 0.01
     Davidson diagonalization with overlap
     ethr =  3.52E-08,  avg # of iterations =  1.0

     total cpu time spent up to now is       29.5 secs

     total energy              =     -15.75014399 Ry
     estimated scf accuracy    <       0.00000196 Ry

     iteration #  5     ecut=    50.00 Ry     beta= 0.01
     Davidson diagonalization with overlap
     ethr =  2.45E-08,  avg # of iterations =  2.0

     total cpu time spent up to now is       31.1 secs

     End of self-consistent calculation

          k = 0.0000 0.0000 0.0000 (  1639 PWs)   bands (ev):

    -6.2841   6.0566   6.0566   6.0566

          k =-0.1001 0.1001-0.1001 (  1606 PWs)   bands (ev):

    -6.1464   4.9582   5.8622   5.8622

          k =-0.2003 0.2003-0.2003 (  1606 PWs)   bands (ev):

    -5.7398   3.0639   5.4779   5.4779

          k =-0.3004 0.3004-0.3004 (  1615 PWs)   bands (ev):

    -5.0921   1.2106   5.1321   5.1321

          k =-0.4006 0.4006-0.4006 (  1616 PWs)   bands (ev):

    -4.3044  -0.3332   4.9102   4.9102

          k = 0.5007-0.5007 0.5007 (  1622 PWs)   bands (ev):

    -3.8263  -1.0676   4.8349   4.8349

          k = 0.0000 0.2003 0.0000 (  1599 PWs)   bands (ev):

    -6.1002   5.1882   5.4880   5.4880

          k =-0.1001 0.3004-0.1001 (  1609 PWs)   bands (ev):

    -5.7820   3.6448   5.0438   5.2440

          k =-0.2003 0.4006-0.2003 (  1607 PWs)   bands (ev):

    -5.2100   1.8214   4.7120   4.8113

          k =-0.3004 0.5007-0.3004 (  1610 PWs)   bands (ev):

    -4.4472   0.1782   4.3893   4.5552

          k = 0.6009-0.4006 0.6009 (  1609 PWs)   bands (ev):

    -3.7697  -0.9116   4.0882   4.5854

          k = 0.5007-0.3004 0.5007 (  1616 PWs)   bands (ev):

    -3.9469  -0.6495   3.9541   4.7891

          k = 0.4006-0.2003 0.4006 (  1621 PWs)   bands (ev):

    -4.7165   0.6951   4.0148   5.1325

          k = 0.3004-0.1001 0.3004 (  1605 PWs)   bands (ev):

    -5.4283   2.4142   4.2959   5.5474

          k = 0.2003 0.0000 0.2003 (  1592 PWs)   bands (ev):

    -5.9186   4.0741   4.9113   5.8780

          k = 0.0000 0.4006 0.0000 (  1607 PWs)   bands (ev):

    -5.5526   3.5007   4.5546   4.5546

          k =-0.1001 0.5007-0.1001 (  1612 PWs)   bands (ev):

    -5.0626   2.1980   4.0587   4.1921

          k =-0.2003 0.6009-0.2003 (  1619 PWs)   bands (ev):

    -4.3514   0.6904   3.4295   4.0234

          k = 0.7010-0.3004 0.7010 (  1606 PWs)   bands (ev):

    -3.5797  -0.5553   2.9062   4.0662

          k = 0.6009-0.2003 0.6009 (  1596 PWs)   bands (ev):

    -3.4174  -0.7757   2.5952   4.3108

          k = 0.5007-0.1001 0.5007 (  1610 PWs)   bands (ev):

    -4.1085   0.2636   2.5689   4.7193

          k = 0.4006 0.0000 0.4006 (  1610 PWs)   bands (ev):

    -4.8649   1.5598   3.0315   5.2005

          k = 0.0000 0.6009 0.0000 (  1620 PWs)   bands (ev):

    -4.6544   1.6448   3.7836   3.7836

          k =-0.1001 0.7010-0.1001 (  1625 PWs)   bands (ev):

    -4.0094   0.5903   3.1562   3.5689

          k = 0.8012-0.2003 0.8012 (  1619 PWs)   bands (ev):

    -3.2185  -0.4687   2.3144   3.5741

          k = 0.7010-0.1001 0.7010 (  1621 PWs)   bands (ev):

    -2.7741  -0.9728   1.7440   3.7967

          k = 0.6009 0.0000 0.6009 (  1608 PWs)   bands (ev):

    -3.3427  -0.3536   1.7179   4.2063

          k = 0.0000 0.8012 0.0000 (  1624 PWs)   bands (ev):

    -3.4307  -0.2012   3.2975   3.2975

          k = 0.9013-0.1001 0.9013 (  1623 PWs)   bands (ev):

    -2.6632  -1.0842   2.7113   3.2461

          k = 0.8012 0.0000 0.8012 (  1622 PWs)   bands (ev):

    -2.1588  -1.5287   1.9142   3.4196

          k = 0.0000-1.0015 0.0000 (  1604 PWs)   bands (ev):

    -1.9241  -1.9241   3.1324   3.1324

          k =-0.2003 0.4006 0.0000 (  1613 PWs)   bands (ev):

    -5.3786   2.7046   3.9701   5.0901

          k =-0.3004 0.5007-0.1001 (  1609 PWs)   bands (ev):

    -4.7350   1.2357   3.3751   4.7036

          k = 0.6009-0.4006 0.8012 (  1618 PWs)   bands (ev):

    -3.9475  -0.1938   3.1448   4.3391

          k = 0.5007-0.3004 0.7010 (  1608 PWs)   bands (ev):

    -3.4615  -0.9078   3.0866   4.1941

          k =-0.2003 0.6009 0.0000 (  1617 PWs)   bands (ev):

    -4.4966   1.2647   3.2146   3.9448

          k = 0.7010-0.3004 0.9013 (  1621 PWs)   bands (ev):

    -3.7379   0.1084   2.5882   3.6053

          k = 0.6009-0.2003 0.8012 (  1613 PWs)   bands (ev):

    -3.0508  -0.8023   2.1715   3.5472

          k = 0.5007-0.1001 0.7010 (  1613 PWs)   bands (ev):

    -3.2637  -0.5287   2.0130   3.7963

          k = 0.4006 0.0000 0.6009 (  1607 PWs)   bands (ev):

    -4.0398   0.4686   2.3206   4.2502

          k = 0.8012-0.2003 1.0015 (  1621 PWs)   bands (ev):

    -3.3057  -0.2913   2.7822   3.1087

          k = 0.7010-0.1001 0.9013 (  1625 PWs)   bands (ev):

    -2.5269  -1.1056   2.0647   3.0189

          k = 0.6009 0.0000 0.8012 (  1614 PWs)   bands (ev):

    -2.5308  -1.0804   1.6372   3.2988

          k =-0.2003-1.0015 0.0000 (  1624 PWs)   bands (ev):

    -1.8674  -1.8674   2.7310   2.7310

          k = 0.6009-0.2003 1.0015 (  1616 PWs)   bands (ev):

    -2.9664  -0.6060   2.0087   3.0186

          k = 0.5007-0.1001 0.9013 (  1608 PWs)   bands (ev):

    -2.4266  -1.1413   1.8452   2.7600

          k =-0.4006-1.0015 0.0000 (  1626 PWs)   bands (ev):

    -1.7671  -1.7671   2.2131   2.2131

     highest occupied level (ev):     6.0566

!    total energy              =     -15.75014489 Ry
     estimated scf accuracy    <       0.00000008 Ry

     The total energy is the sum of the following terms:
     one-electron contribution =       4.80703213 Ry
     hartree contribution      =       1.10847921 Ry
     xc contribution           =      -4.84515198 Ry
     ewald contribution        =     -16.82050425 Ry

     convergence has been achieved in   5 iterations
     Writing meta-gga kinetic term

     Forces acting on atoms (cartesian axes, Ry/au):

     atom    1 type  1   force =    -0.00000000   -0.00000000    0.00000000
     atom    2 type  1   force =     0.00000000    0.00000000   -0.00000000

     Total force =     0.000000     Total SCF correction =     0.000000


     Computing stress (Cartesian axis) and pressure

          total   stress  (Ry/bohr**3)                   (kbar)     P=       -4.61
  -0.00003136   0.00000000   0.00000000           -4.61        0.00        0.00
   0.00000000  -0.00003136   0.00000000            0.00       -4.61        0.00
   0.00000000   0.00000000  -0.00003136            0.00        0.00       -4.61

     Energy error            =      5.4E-05 Ry
     Gradient error          =      2.1E-31 Ry/Bohr
     Cell gradient error     =      4.6E+00 kbar

     number of scf cycles    =   2
     number of bfgs steps    =   1

     enthalpy           old  =     -15.7500908875 Ry
     enthalpy           new  =     -15.7501448885 Ry

     CASE: enthalpy          _new < enthalpy          _old

     new trust radius        =       0.0055059284 bohr
     new conv_thr            =       0.0000000100 Ry

     new unit-cell volume =    267.71736 a.u.^3 (    39.67162 Ang^3 )
     density =      2.35116 g/cm^3

CELL_PARAMETERS (alat= 10.26310000)
  -0.498429363   0.000000000   0.498429363
  -0.000000000   0.498429363   0.498429363
  -0.498429363   0.498429363   0.000000000

ATOMIC_POSITIONS (alat)
Si           -0.0000000000       -0.0000000000        0.0000000000
Si            0.2492146817        0.2492146817        0.2492146817



     Writing config-only to output data dir ./pwscf.save/
     NEW-OLD atomic charge density approx. for the potential
     extrapolated charge    7.95959, renormalised to    8.00000

     total cpu time spent up to now is       31.9 secs

     Self-consistent Calculation

     iteration #  1     ecut=    50.00 Ry     beta= 0.01
     Davidson diagonalization with overlap
     ethr =  1.00E-06,  avg # of iterations =  2.0

     total cpu time spent up to now is       33.5 secs

     total energy              =     -15.75014580 Ry
     estimated scf accuracy    <       0.00001149 Ry

     iteration #  2     ecut=    50.00 Ry     beta= 0.01
     Davidson diagonalization with overlap
     ethr =  1.44E-07,  avg # of iterations =  3.0

     total cpu time spent up to now is       35.3 secs

     total energy              =     -15.75016082 Ry
     estimated scf accuracy    <       0.00000372 Ry

     iteration #  3     ecut=    50.00 Ry     beta= 0.01
     Davidson diagonalization with overlap
     ethr =  4.65E-08,  avg # of iterations =  1.0

     total cpu time spent up to now is       36.4 secs

     total energy              =     -15.75016187 Ry
     estimated scf accuracy    <       0.00000364 Ry

     iteration #  4     ecut=    50.00 Ry     beta= 0.01
     Davidson diagonalization with overlap
     ethr =  4.55E-08,  avg # of iterations =  1.6

     total cpu time spent up to now is       37.7 secs

     total energy              =     -15.75016418 Ry
     estimated scf accuracy    <       0.00000177 Ry

     iteration #  5     ecut=    50.00 Ry     beta= 0.01
     Davidson diagonalization with overlap
     ethr =  2.22E-08,  avg # of iterations =  2.0

     total cpu time spent up to now is       39.3 secs

     total energy              =     -15.75016549 Ry
     estimated scf accuracy    <       0.00000010 Ry

     iteration #  6     ecut=    50.00 Ry     beta= 0.01
     Davidson diagonalization with overlap
     ethr =  1.21E-09,  avg # of iterations =  1.5

     total cpu time spent up to now is       40.5 secs

     total energy              =     -15.75016506 Ry
     estimated scf accuracy    <       0.00000010 Ry

     iteration #  7     ecut=    50.00 Ry     beta= 0.01
     Davidson diagonalization with overlap
     ethr =  1.21E-09,  avg # of iterations =  2.2

     total cpu time spent up to now is       42.1 secs

     End of self-consistent calculation

          k = 0.0000 0.0000 0.0000 (  1639 PWs)   bands (ev):

    -6.2656   6.1084   6.1084   6.1084

          k =-0.1003 0.1003-0.1003 (  1606 PWs)   bands (ev):

    -6.1273   5.0092   5.9131   5.9131

          k =-0.2006 0.2006-0.2006 (  1606 PWs)   bands (ev):

    -5.7190   3.1101   5.5273   5.5273

          k =-0.3009 0.3009-0.3009 (  1615 PWs)   bands (ev):

    -5.0683   1.2504   5.1806   5.1806

          k =-0.4013 0.4013-0.4013 (  1616 PWs)   bands (ev):

    -4.2763  -0.3000   4.9581   4.9581

          k = 0.5016-0.5016 0.5016 (  1622 PWs)   bands (ev):

    -3.7948  -1.0387   4.8826   4.8826

          k = 0.0000 0.2006 0.0000 (  1599 PWs)   bands (ev):

    -6.0809   5.2437   5.5367   5.5367

          k =-0.1003 0.3009-0.1003 (  1609 PWs)   bands (ev):

    -5.7614   3.6946   5.0906   5.2941

          k =-0.2006 0.4013-0.2006 (  1607 PWs)   bands (ev):

    -5.1868   1.8647   4.7577   4.8602

          k =-0.3009 0.5016-0.3009 (  1610 PWs)   bands (ev):

    -4.4202   0.2147   4.4367   4.6009

          k = 0.6019-0.4013 0.6019 (  1609 PWs)   bands (ev):

    -3.7383  -0.8810   4.1342   4.6316

          k = 0.5016-0.3009 0.5016 (  1616 PWs)   bands (ev):

    -3.9168  -0.6173   3.9991   4.8364

          k = 0.4013-0.2006 0.4013 (  1621 PWs)   bands (ev):

    -4.6910   0.7339   4.0592   5.1813

          k = 0.3009-0.1003 0.3009 (  1605 PWs)   bands (ev):

    -5.4061   2.4598   4.3403   5.5979

          k = 0.2006 0.0000 0.2006 (  1592 PWs)   bands (ev):

    -5.8985   4.1253   4.9570   5.9296

          k = 0.0000 0.4013 0.0000 (  1607 PWs)   bands (ev):

    -5.5310   3.5560   4.5991   4.5991

          k =-0.1003 0.5016-0.1003 (  1612 PWs)   bands (ev):

    -5.0389   2.2476   4.1026   4.2353

          k =-0.2006 0.6019-0.2006 (  1619 PWs)   bands (ev):

    -4.3244   0.7328   3.4716   4.0663

          k = 0.7022-0.3009 0.7022 (  1606 PWs)   bands (ev):

    -3.5482  -0.5197   2.9463   4.1095

          k = 0.6019-0.2006 0.6019 (  1596 PWs)   bands (ev):

    -3.3846  -0.7417   2.6335   4.3554

          k = 0.5016-0.1003 0.5016 (  1610 PWs)   bands (ev):

    -4.0800   0.3037   2.6056   4.7660

          k = 0.4013 0.0000 0.4013 (  1610 PWs)   bands (ev):

    -4.8402   1.6059   3.0686   5.2495

          k = 0.0000 0.6019 0.0000 (  1620 PWs)   bands (ev):

    -4.6291   1.6954   3.8251   3.8251

          k =-0.1003 0.7022-0.1003 (  1625 PWs)   bands (ev):

    -3.9812   0.6369   3.1944   3.6097

          k = 0.8025-0.2006 0.8025 (  1619 PWs)   bands (ev):

    -3.1863  -0.4270   2.3481   3.6151

          k = 0.7022-0.1003 0.7022 (  1621 PWs)   bands (ev):

    -2.7386  -0.9346   1.7747   3.8388

          k = 0.6019 0.0000 0.6019 (  1608 PWs)   bands (ev):

    -3.3104  -0.3124   1.7481   4.2504

          k = 0.0000 0.8025 0.0000 (  1624 PWs)   bands (ev):

    -3.4003  -0.1573   3.3372   3.3372

          k = 0.9028-0.1003 0.9028 (  1623 PWs)   bands (ev):

    -2.6293  -1.0436   2.7471   3.2856

          k = 0.8025 0.0000 0.8025 (  1622 PWs)   bands (ev):

    -2.1211  -1.4907   1.9447   3.4600

          k = 0.0000-1.0032 0.0000 (  1604 PWs)   bands (ev):

    -1.8873  -1.8873   3.1716   3.1716

          k =-0.2006 0.4013 0.0000 (  1613 PWs)   bands (ev):

    -5.3563   2.7543   4.0116   5.1389

          k =-0.3009 0.5016-0.1003 (  1609 PWs)   bands (ev):

    -4.7097   1.2794   3.4157   4.7503

          k = 0.6019-0.4013 0.8025 (  1618 PWs)   bands (ev):

    -3.9181  -0.1572   3.1861   4.3835

          k = 0.5016-0.3009 0.7022 (  1608 PWs)   bands (ev):

    -3.4286  -0.8757   3.1283   4.2376

          k =-0.2006 0.6019 0.0000 (  1617 PWs)   bands (ev):

    -4.4705   1.3128   3.2529   3.9871

          k = 0.7022-0.3009 0.9028 (  1621 PWs)   bands (ev):

    -3.7081   0.1515   2.6244   3.6454

          k = 0.6019-0.2006 0.8025 (  1613 PWs)   bands (ev):

    -3.0167  -0.7648   2.2063   3.5869

          k = 0.5016-0.1003 0.7022 (  1613 PWs)   bands (ev):

    -3.2309  -0.4895   2.0463   3.8376

          k = 0.4013-0.0000 0.6019 (  1607 PWs)   bands (ev):

    -4.0113   0.5127   2.3543   4.2940

          k = 0.8025-0.2006 1.0032 (  1621 PWs)   bands (ev):

    -3.2744  -0.2475   2.8186   3.1463

          k = 0.7022-0.1003 0.9028 (  1625 PWs)   bands (ev):

    -2.4915  -1.0650   2.0963   3.0561

          k = 0.6019 0.0000 0.8025 (  1614 PWs)   bands (ev):

    -2.4943  -1.0406   1.6661   3.3374

          k =-0.2006-1.0032 0.0000 (  1624 PWs)   bands (ev):

    -1.8298  -1.8298   2.7668   2.7668

          k = 0.6019-0.2006 1.0032 (  1616 PWs)   bands (ev):

    -2.9328  -0.5635   2.0404   3.0549

          k = 0.5016-0.1003 0.9028 (  1608 PWs)   bands (ev):

    -2.3898  -1.1012   1.8757   2.7949

          k =-0.4013-1.0032 0.0000 (  1626 PWs)   bands (ev):

    -1.7281  -1.7281   2.2450   2.2450

     highest occupied level (ev):     6.1084

!    total energy              =     -15.75016511 Ry
     estimated scf accuracy    <          9.6E-09 Ry

     The total energy is the sum of the following terms:
     one-electron contribution =       4.84495728 Ry
     hartree contribution      =       1.10444282 Ry
     xc contribution           =      -4.85078375 Ry
     ewald contribution        =     -16.84878146 Ry

     convergence has been achieved in   7 iterations
     Writing meta-gga kinetic term

     Forces acting on atoms (cartesian axes, Ry/au):

     atom    1 type  1   force =    -0.00000000   -0.00000000   -0.00000000
     atom    2 type  1   force =    -0.00000000   -0.00000000    0.00000000

     Total force =     0.000000     Total SCF correction =     0.000000


     Computing stress (Cartesian axis) and pressure

          total   stress  (Ry/bohr**3)                   (kbar)     P=        0.24
   0.00000164  -0.00000000  -0.00000000            0.24       -0.00       -0.00
   0.00000000   0.00000164  -0.00000000            0.00        0.24       -0.00
   0.00000000   0.00000000   0.00000164            0.00        0.00        0.24

     Energy error            =      2.0E-05 Ry
     Gradient error          =      3.9E-32 Ry/Bohr
     Cell gradient error     =      2.4E-01 kbar

     bfgs converged in   3 scf cycles and   2 bfgs steps
     (criteria: energy <  1.0E-04 Ry, force <  1.0E-03Ry/Bohr, cell <  5.0E-01kbar)

     End of BFGS Geometry Optimization

     Final enthalpy           =     -15.7501651125 Ry

     File ./pwscf.bfgs deleted, as requested
Begin final coordinates
     new unit-cell volume =    267.71736 a.u.^3 (    39.67162 Ang^3 )
     density =      2.35116 g/cm^3

CELL_PARAMETERS (alat= 10.26310000)
  -0.498429363   0.000000000   0.498429363
  -0.000000000   0.498429363   0.498429363
  -0.498429363   0.498429363   0.000000000

ATOMIC_POSITIONS (alat)
Si           -0.0000000000       -0.0000000000        0.0000000000
Si            0.2492146817        0.2492146817        0.2492146817
End final coordinates



     Writing config-only to output data dir ./pwscf.save/

     Final scf calculation at the relaxed structure.
     The G-vectors are recalculated for the final unit cell
     Results may differ from those at the preceding step.
 
     G-vector sticks info
     --------------------
     sticks:   dense  smooth     PW     G-vecs:    dense   smooth      PW
     Sum         721     721    223                12675    12675    2229
 
     Using Slab Decomposition
 


     bravais-lattice index     =            2
     lattice parameter (alat)  =      10.2631  a.u.
     unit-cell volume          =     267.7174 (a.u.)^3
     number of atoms/cell      =            2
     number of atomic types    =            1
     number of electrons       =         8.00
     number of Kohn-Sham states=            4
     kinetic-energy cutoff     =      50.0000  Ry
     charge density cutoff     =     200.0000  Ry
     scf convergence threshold =      1.0E-08
     mixing beta               =       0.0100
     number of iterations used =            8  local-TF  mixing
     press convergence thresh. =      5.0E-01
     Exchange-correlation=  SLA  PW   SCAN SCAN
                           (   0   0   0   0   0 263 267)

     celldm(1)=  10.263100  celldm(2)=   0.000000  celldm(3)=   0.000000
     celldm(4)=   0.000000  celldm(5)=   0.000000  celldm(6)=   0.000000

     crystal axes: (cart. coord. in units of alat)
               a(1) = (  -0.498429   0.000000   0.498429 )  
               a(2) = (  -0.000000   0.498429   0.498429 )  
               a(3) = (  -0.498429   0.498429   0.000000 )  

     reciprocal axes: (cart. coord. in units 2 pi/alat)
               b(1) = ( -1.003151 -1.003151  1.003151 )  
               b(2) = (  1.003151  1.003151  1.003151 )  
               b(3) = ( -1.003151  1.003151 -1.003151 )  


     PseudoPot. # 1 for Si read from file:
     ~/Documents/PWDFT.jl/pseudopotentials/scan_upf/Si.SCAN.UPF
     MD5 check sum: Not computed, couldn't open file
     Pseudo is Norm-conserving, Zval =  4.0
     Generated by new atomic code, or converted to UPF format
     Using radial grid of 1475 points,  2 beta functions with: 
                l(1) =   0
                l(2) =   1

     atomic species   valence    mass     pseudopotential
        Si             4.00    28.08550     Si( 1.00)

     48 Sym. Ops., with inversion, found (24 have fractional translation)



   Cartesian axes

     site n.     atom                  positions (alat units)
         1           Si  tau(   1) = (  -0.0000000  -0.0000000   0.0000000  )
         2           Si  tau(   2) = (   0.2492147   0.2492147   0.2492147  )

     number of k points=    47
                       cart. coord. in units 2pi/alat
        k(    1) = (   0.0000000   0.0000000   0.0000000), wk =   0.0020000
        k(    2) = (  -0.1003151   0.1003151  -0.1003151), wk =   0.0160000
        k(    3) = (  -0.2006302   0.2006302  -0.2006302), wk =   0.0160000
        k(    4) = (  -0.3009454   0.3009454  -0.3009454), wk =   0.0160000
        k(    5) = (  -0.4012605   0.4012605  -0.4012605), wk =   0.0160000
        k(    6) = (   0.5015756  -0.5015756   0.5015756), wk =   0.0080000
        k(    7) = (   0.0000000   0.2006302   0.0000000), wk =   0.0120000
        k(    8) = (  -0.1003151   0.3009454  -0.1003151), wk =   0.0480000
        k(    9) = (  -0.2006302   0.4012605  -0.2006302), wk =   0.0480000
        k(   10) = (  -0.3009454   0.5015756  -0.3009454), wk =   0.0480000
        k(   11) = (   0.6018907  -0.4012605   0.6018907), wk =   0.0480000
        k(   12) = (   0.5015756  -0.3009454   0.5015756), wk =   0.0480000
        k(   13) = (   0.4012605  -0.2006302   0.4012605), wk =   0.0480000
        k(   14) = (   0.3009454  -0.1003151   0.3009454), wk =   0.0480000
        k(   15) = (   0.2006302   0.0000000   0.2006302), wk =   0.0240000
        k(   16) = (   0.0000000   0.4012605   0.0000000), wk =   0.0120000
        k(   17) = (  -0.1003151   0.5015756  -0.1003151), wk =   0.0480000
        k(   18) = (  -0.2006302   0.6018907  -0.2006302), wk =   0.0480000
        k(   19) = (   0.7022058  -0.3009454   0.7022058), wk =   0.0480000
        k(   20) = (   0.6018907  -0.2006302   0.6018907), wk =   0.0480000
        k(   21) = (   0.5015756  -0.1003151   0.5015756), wk =   0.0480000
        k(   22) = (   0.4012605   0.0000000   0.4012605), wk =   0.0240000
        k(   23) = (   0.0000000   0.6018907   0.0000000), wk =   0.0120000
        k(   24) = (  -0.1003151   0.7022058  -0.1003151), wk =   0.0480000
        k(   25) = (   0.8025209  -0.2006302   0.8025209), wk =   0.0480000
        k(   26) = (   0.7022058  -0.1003151   0.7022058), wk =   0.0480000
        k(   27) = (   0.6018907   0.0000000   0.6018907), wk =   0.0240000
        k(   28) = (   0.0000000   0.8025209   0.0000000), wk =   0.0120000
        k(   29) = (   0.9028361  -0.1003151   0.9028361), wk =   0.0480000
        k(   30) = (   0.8025209   0.0000000   0.8025209), wk =   0.0240000
        k(   31) = (   0.0000000  -1.0031512   0.0000000), wk =   0.0060000
        k(   32) = (  -0.2006302   0.4012605   0.0000000), wk =   0.0480000
        k(   33) = (  -0.3009454   0.5015756  -0.1003151), wk =   0.0960000
        k(   34) = (   0.6018907  -0.4012605   0.8025209), wk =   0.0960000
        k(   35) = (   0.5015756  -0.3009454   0.7022058), wk =   0.0480000
        k(   36) = (  -0.2006302   0.6018907   0.0000000), wk =   0.0480000
        k(   37) = (   0.7022058  -0.3009454   0.9028361), wk =   0.0960000
        k(   38) = (   0.6018907  -0.2006302   0.8025209), wk =   0.0960000
        k(   39) = (   0.5015756  -0.1003151   0.7022058), wk =   0.0960000
        k(   40) = (   0.4012605  -0.0000000   0.6018907), wk =   0.0480000
        k(   41) = (   0.8025209  -0.2006302   1.0031512), wk =   0.0480000
        k(   42) = (   0.7022058  -0.1003151   0.9028361), wk =   0.0960000
        k(   43) = (   0.6018907   0.0000000   0.8025209), wk =   0.0480000
        k(   44) = (  -0.2006302  -1.0031512   0.0000000), wk =   0.0240000
        k(   45) = (   0.6018907  -0.2006302   1.0031512), wk =   0.0480000
        k(   46) = (   0.5015756  -0.1003151   0.9028361), wk =   0.0480000
        k(   47) = (  -0.4012605  -1.0031512   0.0000000), wk =   0.0240000

     Dense  grid:    12675 G-vectors     FFT dimensions: (  36,  36,  36)

     Estimated max dynamical RAM per process >      24.87 MB

     WARNING: libxc functional with ID  263 depends
      on external parameters: check the user_guide of
      QE if you need to modify them or to check their
      default values.

     Initial potential from superposition of free atoms

     starting charge       7.9990, renormalised to       8.0000
     Starting wfcs are   18 randomized atomic wfcs

     total cpu time spent up to now is       44.9 secs

     Self-consistent Calculation

     iteration #  1     ecut=    50.00 Ry     beta= 0.01
     Davidson diagonalization with overlap
     ethr =  1.00E-06,  avg # of iterations =  8.6

     total cpu time spent up to now is       48.9 secs

     total energy              =     -15.64674099 Ry
     estimated scf accuracy    <       0.06563951 Ry

     iteration #  2     ecut=    50.00 Ry     beta= 0.01
     Davidson diagonalization with overlap
     ethr =  8.20E-04,  avg # of iterations =  1.0

     total cpu time spent up to now is       50.0 secs

     total energy              =     -15.74579914 Ry
     estimated scf accuracy    <       0.06464008 Ry

     iteration #  3     ecut=    50.00 Ry     beta= 0.01
     Davidson diagonalization with overlap
     ethr =  8.08E-04,  avg # of iterations =  1.0

     total cpu time spent up to now is       51.2 secs

     total energy              =     -15.74909869 Ry
     estimated scf accuracy    <       0.00469524 Ry

     iteration #  4     ecut=    50.00 Ry     beta= 0.01
     Davidson diagonalization with overlap
     ethr =  5.87E-05,  avg # of iterations =  2.1

     total cpu time spent up to now is       52.6 secs

     total energy              =     -15.75178087 Ry
     estimated scf accuracy    <       0.00544934 Ry

     iteration #  5     ecut=    50.00 Ry     beta= 0.01
     Davidson diagonalization with overlap
     ethr =  5.87E-05,  avg # of iterations =  1.1

     total cpu time spent up to now is       53.8 secs

     total energy              =     -15.75189901 Ry
     estimated scf accuracy    <       0.01022049 Ry

     iteration #  6     ecut=    50.00 Ry     beta= 0.01
     Davidson diagonalization with overlap
     ethr =  5.87E-05,  avg # of iterations =  1.0

     total cpu time spent up to now is       54.9 secs

     total energy              =     -15.74907306 Ry
     estimated scf accuracy    <       0.00944660 Ry

     iteration #  7     ecut=    50.00 Ry     beta= 0.01
     Davidson diagonalization with overlap
     ethr =  5.87E-05,  avg # of iterations =  2.0

     total cpu time spent up to now is       56.5 secs

     total energy              =     -15.75050008 Ry
     estimated scf accuracy    <       0.00157766 Ry

     iteration #  8     ecut=    50.00 Ry     beta= 0.01
     Davidson diagonalization with overlap
     ethr =  1.97E-05,  avg # of iterations =  1.0

     total cpu time spent up to now is       57.6 secs

     total energy              =     -15.75041898 Ry
     estimated scf accuracy    <       0.00117870 Ry

     iteration #  9     ecut=    50.00 Ry     beta= 0.01
     Davidson diagonalization with overlap
     ethr =  1.47E-05,  avg # of iterations =  1.0

     total cpu time spent up to now is       58.8 secs

     total energy              =     -15.75000171 Ry
     estimated scf accuracy    <       0.00089066 Ry

     iteration # 10     ecut=    50.00 Ry     beta= 0.01
     Davidson diagonalization with overlap
     ethr =  1.11E-05,  avg # of iterations =  2.0

     total cpu time spent up to now is       60.4 secs

     total energy              =     -15.75015341 Ry
     estimated scf accuracy    <       0.00002871 Ry

     iteration # 11     ecut=    50.00 Ry     beta= 0.01
     Davidson diagonalization with overlap
     ethr =  3.59E-07,  avg # of iterations =  2.4

     total cpu time spent up to now is       62.1 secs

     total energy              =     -15.75015452 Ry
     estimated scf accuracy    <       0.00000474 Ry

     iteration # 12     ecut=    50.00 Ry     beta= 0.01
     Davidson diagonalization with overlap
     ethr =  5.93E-08,  avg # of iterations =  2.0

     total cpu time spent up to now is       63.7 secs

     total energy              =     -15.75015987 Ry
     estimated scf accuracy    <       0.00001165 Ry

     iteration # 13     ecut=    50.00 Ry     beta= 0.01
     Davidson diagonalization with overlap
     ethr =  5.93E-08,  avg # of iterations =  2.1

     total cpu time spent up to now is       65.3 secs

     total energy              =     -15.75016280 Ry
     estimated scf accuracy    <       0.00000045 Ry

     iteration # 14     ecut=    50.00 Ry     beta= 0.01
     Davidson diagonalization with overlap
     ethr =  5.64E-09,  avg # of iterations =  3.0

     total cpu time spent up to now is       67.1 secs

     total energy              =     -15.75016321 Ry
     estimated scf accuracy    <       0.00000040 Ry

     iteration # 15     ecut=    50.00 Ry     beta= 0.01
     Davidson diagonalization with overlap
     ethr =  5.02E-09,  avg # of iterations =  1.0

     total cpu time spent up to now is       68.3 secs

     total energy              =     -15.75016303 Ry
     estimated scf accuracy    <       0.00000033 Ry

     iteration # 16     ecut=    50.00 Ry     beta= 0.01
     Davidson diagonalization with overlap
     ethr =  4.09E-09,  avg # of iterations =  2.0

     total cpu time spent up to now is       69.7 secs

     total energy              =     -15.75016292 Ry
     estimated scf accuracy    <       0.00000025 Ry

     iteration # 17     ecut=    50.00 Ry     beta= 0.01
     Davidson diagonalization with overlap
     ethr =  3.14E-09,  avg # of iterations =  2.0

     total cpu time spent up to now is       71.3 secs

     End of self-consistent calculation

          k = 0.0000 0.0000 0.0000 (  1639 PWs)   bands (ev):

    -6.2650   6.1081   6.1081   6.1081

          k =-0.1003 0.1003-0.1003 (  1588 PWs)   bands (ev):

    -6.1268   5.0092   5.9129   5.9129

          k =-0.2006 0.2006-0.2006 (  1585 PWs)   bands (ev):

    -5.7185   3.1102   5.5273   5.5273

          k =-0.3009 0.3009-0.3009 (  1603 PWs)   bands (ev):

    -5.0678   1.2506   5.1805   5.1805

          k =-0.4013 0.4013-0.4013 (  1601 PWs)   bands (ev):

    -4.2758  -0.2997   4.9581   4.9581

          k = 0.5016-0.5016 0.5016 (  1568 PWs)   bands (ev):

    -3.7943  -1.0383   4.8827   4.8827

          k = 0.0000 0.2006 0.0000 (  1583 PWs)   bands (ev):

    -6.0804   5.2437   5.5366   5.5366

          k =-0.1003 0.3009-0.1003 (  1589 PWs)   bands (ev):

    -5.7609   3.6948   5.0906   5.2941

          k =-0.2006 0.4013-0.2006 (  1592 PWs)   bands (ev):

    -5.1863   1.8649   4.7578   4.8602

          k =-0.3009 0.5016-0.3009 (  1597 PWs)   bands (ev):

    -4.4197   0.2150   4.4367   4.6009

          k = 0.6019-0.4013 0.6019 (  1593 PWs)   bands (ev):

    -3.7378  -0.8807   4.1343   4.6316

          k = 0.5016-0.3009 0.5016 (  1594 PWs)   bands (ev):

    -3.9163  -0.6170   3.9991   4.8364

          k = 0.4013-0.2006 0.4013 (  1605 PWs)   bands (ev):

    -4.6905   0.7341   4.0592   5.1813

          k = 0.3009-0.1003 0.3009 (  1589 PWs)   bands (ev):

    -5.4056   2.4600   4.3403   5.5978

          k = 0.2006 0.0000 0.2006 (  1580 PWs)   bands (ev):

    -5.8980   4.1254   4.9570   5.9294

          k = 0.0000 0.4013 0.0000 (  1607 PWs)   bands (ev):

    -5.5305   3.5561   4.5992   4.5992

          k =-0.1003 0.5016-0.1003 (  1598 PWs)   bands (ev):

    -5.0384   2.2478   4.1027   4.2354

          k =-0.2006 0.6019-0.2006 (  1598 PWs)   bands (ev):

    -4.3239   0.7331   3.4717   4.0664

          k = 0.7022-0.3009 0.7022 (  1593 PWs)   bands (ev):

    -3.5477  -0.5194   2.9465   4.1096

          k = 0.6019-0.2006 0.6019 (  1596 PWs)   bands (ev):

    -3.3841  -0.7414   2.6337   4.3555

          k = 0.5016-0.1003 0.5016 (  1596 PWs)   bands (ev):

    -4.0795   0.3040   2.6058   4.7660

          k = 0.4013 0.0000 0.4013 (  1588 PWs)   bands (ev):

    -4.8397   1.6061   3.0687   5.2495

          k = 0.0000 0.6019 0.0000 (  1612 PWs)   bands (ev):

    -4.6286   1.6957   3.8252   3.8252

          k =-0.1003 0.7022-0.1003 (  1605 PWs)   bands (ev):

    -3.9807   0.6372   3.1945   3.6098

          k = 0.8025-0.2006 0.8025 (  1609 PWs)   bands (ev):

    -3.1858  -0.4266   2.3482   3.6152

          k = 0.7022-0.1003 0.7022 (  1591 PWs)   bands (ev):

    -2.7381  -0.9342   1.7748   3.8389

          k = 0.6019 0.0000 0.6019 (  1596 PWs)   bands (ev):

    -3.3099  -0.3120   1.7482   4.2505

          k = 0.0000 0.8025 0.0000 (  1604 PWs)   bands (ev):

    -3.3998  -0.1569   3.3373   3.3373

          k = 0.9028-0.1003 0.9028 (  1606 PWs)   bands (ev):

    -2.6288  -1.0432   2.7473   3.2858

          k = 0.8025 0.0000 0.8025 (  1604 PWs)   bands (ev):

    -2.1207  -1.4903   1.9448   3.4601

          k = 0.0000-1.0032 0.0000 (  1588 PWs)   bands (ev):

    -1.8868  -1.8868   3.1717   3.1717

          k =-0.2006 0.4013 0.0000 (  1593 PWs)   bands (ev):

    -5.3558   2.7545   4.0117   5.1389

          k =-0.3009 0.5016-0.1003 (  1597 PWs)   bands (ev):

    -4.7092   1.2796   3.4158   4.7503

          k = 0.6019-0.4013 0.8025 (  1604 PWs)   bands (ev):

    -3.9176  -0.1569   3.1862   4.3836

          k = 0.5016-0.3009 0.7022 (  1592 PWs)   bands (ev):

    -3.4281  -0.8754   3.1285   4.2377

          k =-0.2006 0.6019 0.0000 (  1603 PWs)   bands (ev):

    -4.4700   1.3131   3.2530   3.9872

          k = 0.7022-0.3009 0.9028 (  1601 PWs)   bands (ev):

    -3.7076   0.1518   2.6245   3.6455

          k = 0.6019-0.2006 0.8025 (  1597 PWs)   bands (ev):

    -3.0162  -0.7645   2.2065   3.5870

          k = 0.5016-0.1003 0.7022 (  1598 PWs)   bands (ev):

    -3.2305  -0.4892   2.0464   3.8377

          k = 0.4013-0.0000 0.6019 (  1591 PWs)   bands (ev):

    -4.0108   0.5130   2.3544   4.2941

          k = 0.8025-0.2006 1.0032 (  1607 PWs)   bands (ev):

    -3.2739  -0.2471   2.8188   3.1464

          k = 0.7022-0.1003 0.9028 (  1613 PWs)   bands (ev):

    -2.4910  -1.0646   2.0964   3.0563

          k = 0.6019 0.0000 0.8025 (  1606 PWs)   bands (ev):

    -2.4939  -1.0402   1.6663   3.3375

          k =-0.2006-1.0032 0.0000 (  1606 PWs)   bands (ev):

    -1.8294  -1.8294   2.7670   2.7670

          k = 0.6019-0.2006 1.0032 (  1598 PWs)   bands (ev):

    -2.9323  -0.5632   2.0405   3.0551

          k = 0.5016-0.1003 0.9028 (  1596 PWs)   bands (ev):

    -2.3894  -1.1009   1.8759   2.7950

          k =-0.4013-1.0032 0.0000 (  1612 PWs)   bands (ev):

    -1.7277  -1.7277   2.2452   2.2452

     highest occupied level (ev):     6.1081

!    total energy              =     -15.75016303 Ry
     estimated scf accuracy    <          3.7E-09 Ry

     The total energy is the sum of the following terms:
     one-electron contribution =       4.84494389 Ry
     hartree contribution      =       1.10447555 Ry
     xc contribution           =      -4.85080100 Ry
     ewald contribution        =     -16.84878147 Ry

     convergence has been achieved in  17 iterations
     Writing meta-gga kinetic term

     Forces acting on atoms (cartesian axes, Ry/au):

     atom    1 type  1   force =    -0.00000000    0.00000000   -0.00000000
     atom    2 type  1   force =    -0.00000000   -0.00000000   -0.00000000

     Total force =     0.000000     Total SCF correction =     0.000000


     Computing stress (Cartesian axis) and pressure

          total   stress  (Ry/bohr**3)                   (kbar)     P=        0.24
   0.00000161   0.00000000   0.00000000            0.24        0.00        0.00
  -0.00000000   0.00000161   0.00000000           -0.00        0.24        0.00
  -0.00000000   0.00000000   0.00000161           -0.00        0.00        0.24


     Writing all to output data dir ./pwscf.save/
     Writing meta-gga kinetic term
 
     init_run     :      4.42s CPU      4.48s WALL (       2 calls)
     electrons    :     64.31s CPU     64.67s WALL (       4 calls)
     update_pot   :      0.44s CPU      0.45s WALL (       2 calls)
     forces       :      0.35s CPU      0.35s WALL (       4 calls)
     stress       :      1.82s CPU      1.84s WALL (       4 calls)

     Called by init_run:
     wfcinit      :      3.95s CPU      3.98s WALL (       2 calls)
     potinit      :      0.19s CPU      0.19s WALL (       2 calls)
     hinit0       :      0.25s CPU      0.29s WALL (       2 calls)

     Called by electrons:
     c_bands      :     52.27s CPU     52.51s WALL (      46 calls)
     sum_band     :     10.84s CPU     10.91s WALL (      46 calls)
     v_of_rho     :      0.86s CPU      0.90s WALL (      48 calls)
     mix_rho      :      0.39s CPU      0.40s WALL (      46 calls)

     Called by c_bands:
     init_us_2    :      0.51s CPU      0.51s WALL (    4794 calls)
     init_us_2:cp :      0.50s CPU      0.50s WALL (    4794 calls)
     cegterg      :     51.70s CPU     51.94s WALL (    2162 calls)

     Called by *egterg:
     cdiaghg      :      0.16s CPU      0.16s WALL (    5720 calls)
     h_psi        :     54.71s CPU     54.97s WALL (    6002 calls)
     g_psi        :      0.05s CPU      0.05s WALL (    3746 calls)

     Called by h_psi:
     h_psi:calbec :      0.16s CPU      0.16s WALL (    6002 calls)
     vloc_psi     :     13.55s CPU     13.64s WALL (    6002 calls)
     add_vuspsi   :      0.14s CPU      0.14s WALL (    6002 calls)
     h_psi_meta   :     40.78s CPU     40.95s WALL (    6002 calls)

     General routines
     calbec       :      0.16s CPU      0.16s WALL (    6942 calls)
     fft          :      0.15s CPU      0.19s WALL (     600 calls)
     ffts         :      0.19s CPU      0.19s WALL (     754 calls)
     fftw         :     58.28s CPU     58.56s WALL (  228576 calls)
     interpolate  :      0.00s CPU      0.00s WALL (      48 calls)
 
     Parallel routines
 
     PWSCF        :   1m11.42s CPU   1m11.91s WALL

 
   This run was terminated on:  14:43:37  18Feb2023            

=------------------------------------------------------------------------------=
   JOB DONE.
=------------------------------------------------------------------------------=
