
     Program PWSCF v.7.0 starts on 20Feb2023 at 17:13:46 

     This program is part of the open-source Quantum ESPRESSO suite
     for quantum simulation of materials; please cite
         "P. Giannozzi et al., J. Phys.:Condens. Matter 21 395502 (2009);
         "P. Giannozzi et al., J. Phys.:Condens. Matter 29 465901 (2017);
         "P. Giannozzi et al., J. Chem. Phys. 152 154105 (2020);
          URL http://www.quantum-espresso.org", 
     in publications or presentations arising from this work. More details at
     http://www.quantum-espresso.org/quote

     Parallel version (MPI), running on     1 processors

     MPI processes distributed on     1 nodes
     3344 MiB available memory on the printing compute node when the environment starts
 
     Waiting for input...
     Reading input from standard input
Warning: card &CELL ignored
Warning: card / ignored

     Current dimensions of program PWSCF are:
     Max number of different atomic species (ntypx) = 10
     Max number of k-points (npk) =  40000
     Max angular momentum in pseudopotentials (lmaxx) =  4
     file Si.SCAN.UPF2: wavefunction(s)  0D renormalized

     WARNING: the MGGA functional with ID    5 has been 
     read together with other dft terms, but it should 
     stand alone in order to work properly. The other 
     terms will be ignored.

     Subspace diagonalization in iterative solution of the eigenvalue problem:
     a serial algorithm will be used

 
     G-vector sticks info
     --------------------
     sticks:   dense  smooth     PW     G-vecs:    dense   smooth      PW
     Sum         733     733    223                12939    12939    2229
 
     Using Slab Decomposition
 


     bravais-lattice index     =            2
     lattice parameter (alat)  =      10.2481  a.u.
     unit-cell volume          =     269.0730 (a.u.)^3
     number of atoms/cell      =            2
     number of atomic types    =            1
     number of electrons       =         8.00
     number of Kohn-Sham states=            4
     kinetic-energy cutoff     =      50.0000  Ry
     charge density cutoff     =     200.0000  Ry
     scf convergence threshold =      1.0E-06
     mixing beta               =       0.0100
     number of iterations used =            8  local-TF  mixing
     Exchange-correlation= SLA  PW   SCAN SCAN
                           (   0   0   0   0   0 263 267)

     celldm(1)=  10.248100  celldm(2)=   0.000000  celldm(3)=   0.000000
     celldm(4)=   0.000000  celldm(5)=   0.000000  celldm(6)=   0.000000

     crystal axes: (cart. coord. in units of alat)
               a(1) = (  -0.500000   0.000000   0.500000 )  
               a(2) = (   0.000000   0.500000   0.500000 )  
               a(3) = (  -0.500000   0.500000   0.000000 )  

     reciprocal axes: (cart. coord. in units 2 pi/alat)
               b(1) = ( -1.000000 -1.000000  1.000000 )  
               b(2) = (  1.000000  1.000000  1.000000 )  
               b(3) = ( -1.000000  1.000000 -1.000000 )  


     PseudoPot. # 1 for Si read from file:
     ~/Documents/TA/PWDFT.jl/pseudopotentials/scan_upf/Si.SCAN.UPF2
     MD5 check sum: Not computed, couldn't open file
     Pseudo is Norm-conserving, Zval =  4.0
     Generated by new atomic code, or converted to UPF format
     Using radial grid of 1475 points,  2 beta functions with: 
                l(1) =   0
                l(2) =   1

     atomic species   valence    mass     pseudopotential
        Si             4.00    28.08550     Si( 1.00)

     48 Sym. Ops., with inversion, found (24 have fractional translation)



   Cartesian axes

     site n.     atom                  positions (alat units)
         1           Si  tau(   1) = (   0.0000000   0.0000000   0.0000000  )
         2           Si  tau(   2) = (   0.2500000   0.2500000   0.2500000  )

     number of k points=    47
                       cart. coord. in units 2pi/alat
        k(    1) = (   0.0000000   0.0000000   0.0000000), wk =   0.0020000
        k(    2) = (  -0.1000000   0.1000000  -0.1000000), wk =   0.0160000
        k(    3) = (  -0.2000000   0.2000000  -0.2000000), wk =   0.0160000
        k(    4) = (  -0.3000000   0.3000000  -0.3000000), wk =   0.0160000
        k(    5) = (  -0.4000000   0.4000000  -0.4000000), wk =   0.0160000
        k(    6) = (   0.5000000  -0.5000000   0.5000000), wk =   0.0080000
        k(    7) = (   0.0000000   0.2000000   0.0000000), wk =   0.0120000
        k(    8) = (  -0.1000000   0.3000000  -0.1000000), wk =   0.0480000
        k(    9) = (  -0.2000000   0.4000000  -0.2000000), wk =   0.0480000
        k(   10) = (  -0.3000000   0.5000000  -0.3000000), wk =   0.0480000
        k(   11) = (   0.6000000  -0.4000000   0.6000000), wk =   0.0480000
        k(   12) = (   0.5000000  -0.3000000   0.5000000), wk =   0.0480000
        k(   13) = (   0.4000000  -0.2000000   0.4000000), wk =   0.0480000
        k(   14) = (   0.3000000  -0.1000000   0.3000000), wk =   0.0480000
        k(   15) = (   0.2000000   0.0000000   0.2000000), wk =   0.0240000
        k(   16) = (   0.0000000   0.4000000   0.0000000), wk =   0.0120000
        k(   17) = (  -0.1000000   0.5000000  -0.1000000), wk =   0.0480000
        k(   18) = (  -0.2000000   0.6000000  -0.2000000), wk =   0.0480000
        k(   19) = (   0.7000000  -0.3000000   0.7000000), wk =   0.0480000
        k(   20) = (   0.6000000  -0.2000000   0.6000000), wk =   0.0480000
        k(   21) = (   0.5000000  -0.1000000   0.5000000), wk =   0.0480000
        k(   22) = (   0.4000000   0.0000000   0.4000000), wk =   0.0240000
        k(   23) = (   0.0000000   0.6000000   0.0000000), wk =   0.0120000
        k(   24) = (  -0.1000000   0.7000000  -0.1000000), wk =   0.0480000
        k(   25) = (   0.8000000  -0.2000000   0.8000000), wk =   0.0480000
        k(   26) = (   0.7000000  -0.1000000   0.7000000), wk =   0.0480000
        k(   27) = (   0.6000000  -0.0000000   0.6000000), wk =   0.0240000
        k(   28) = (   0.0000000   0.8000000   0.0000000), wk =   0.0120000
        k(   29) = (   0.9000000  -0.1000000   0.9000000), wk =   0.0480000
        k(   30) = (   0.8000000   0.0000000   0.8000000), wk =   0.0240000
        k(   31) = (   0.0000000  -1.0000000   0.0000000), wk =   0.0060000
        k(   32) = (  -0.2000000   0.4000000   0.0000000), wk =   0.0480000
        k(   33) = (  -0.3000000   0.5000000  -0.1000000), wk =   0.0960000
        k(   34) = (   0.6000000  -0.4000000   0.8000000), wk =   0.0960000
        k(   35) = (   0.5000000  -0.3000000   0.7000000), wk =   0.0480000
        k(   36) = (  -0.2000000   0.6000000   0.0000000), wk =   0.0480000
        k(   37) = (   0.7000000  -0.3000000   0.9000000), wk =   0.0960000
        k(   38) = (   0.6000000  -0.2000000   0.8000000), wk =   0.0960000
        k(   39) = (   0.5000000  -0.1000000   0.7000000), wk =   0.0960000
        k(   40) = (   0.4000000   0.0000000   0.6000000), wk =   0.0480000
        k(   41) = (   0.8000000  -0.2000000   1.0000000), wk =   0.0480000
        k(   42) = (   0.7000000  -0.1000000   0.9000000), wk =   0.0960000
        k(   43) = (   0.6000000   0.0000000   0.8000000), wk =   0.0480000
        k(   44) = (  -0.2000000  -1.0000000   0.0000000), wk =   0.0240000
        k(   45) = (   0.6000000  -0.2000000   1.0000000), wk =   0.0480000
        k(   46) = (   0.5000000  -0.1000000   0.9000000), wk =   0.0480000
        k(   47) = (  -0.4000000  -1.0000000   0.0000000), wk =   0.0240000

     Dense  grid:    12939 G-vectors     FFT dimensions: (  36,  36,  36)

     Estimated max dynamical RAM per process >      25.00 MB

     WARNING: libxc functional with ID  263 depends
      on external parameters: check the user_guide of
      QE if you need to modify them or to check their
      default values.

     Initial potential from superposition of free atoms

     starting charge       7.9990, renormalised to       8.0000
     Starting wfcs are   18 randomized atomic wfcs

     total cpu time spent up to now is        4.7 secs

     Self-consistent Calculation

     iteration #  1     ecut=    50.00 Ry     beta= 0.01
     Davidson diagonalization with overlap
     ethr =  1.00E-02,  avg # of iterations =  2.0

     Threshold (ethr) on eigenvalues was too large:
     Diagonalizing with lowered threshold

     Davidson diagonalization with overlap
     ethr =  7.56E-04,  avg # of iterations =  1.5

     total cpu time spent up to now is       10.8 secs

     total energy              =     -15.64669023 Ry
     estimated scf accuracy    <       0.06411031 Ry

     iteration #  2     ecut=    50.00 Ry     beta= 0.01
     Davidson diagonalization with overlap
     ethr =  8.01E-04,  avg # of iterations =  1.0

     total cpu time spent up to now is       13.5 secs

     total energy              =     -15.73919079 Ry
     estimated scf accuracy    <       0.06365827 Ry

     iteration #  3     ecut=    50.00 Ry     beta= 0.01
     Davidson diagonalization with overlap
     ethr =  7.96E-04,  avg # of iterations =  1.8

     total cpu time spent up to now is       16.5 secs

     total energy              =     -15.74389359 Ry
     estimated scf accuracy    <       0.03702435 Ry

     iteration #  4     ecut=    50.00 Ry     beta= 0.01
     Davidson diagonalization with overlap
     ethr =  4.63E-04,  avg # of iterations =  1.4

     total cpu time spent up to now is       19.2 secs

     total energy              =     -15.75082151 Ry
     estimated scf accuracy    <       0.00579112 Ry

     iteration #  5     ecut=    50.00 Ry     beta= 0.01
     Davidson diagonalization with overlap
     ethr =  7.24E-05,  avg # of iterations =  1.4

     total cpu time spent up to now is       22.0 secs

     total energy              =     -15.75141121 Ry
     estimated scf accuracy    <       0.00756181 Ry

     iteration #  6     ecut=    50.00 Ry     beta= 0.01
     Davidson diagonalization with overlap
     ethr =  7.24E-05,  avg # of iterations =  1.0

     total cpu time spent up to now is       24.6 secs

     total energy              =     -15.75045827 Ry
     estimated scf accuracy    <       0.00847754 Ry

     iteration #  7     ecut=    50.00 Ry     beta= 0.01
     Davidson diagonalization with overlap
     ethr =  7.24E-05,  avg # of iterations =  1.0

     total cpu time spent up to now is       27.2 secs

     total energy              =     -15.75006312 Ry
     estimated scf accuracy    <       0.00252815 Ry

     iteration #  8     ecut=    50.00 Ry     beta= 0.01
     Davidson diagonalization with overlap
     ethr =  3.16E-05,  avg # of iterations =  1.0

     total cpu time spent up to now is       29.8 secs

     total energy              =     -15.75020880 Ry
     estimated scf accuracy    <       0.00026336 Ry

     iteration #  9     ecut=    50.00 Ry     beta= 0.01
     Davidson diagonalization with overlap
     ethr =  3.29E-06,  avg # of iterations =  1.0

     total cpu time spent up to now is       32.5 secs

     total energy              =     -15.75021457 Ry
     estimated scf accuracy    <       0.00021523 Ry

     iteration # 10     ecut=    50.00 Ry     beta= 0.01
     Davidson diagonalization with overlap
     ethr =  2.69E-06,  avg # of iterations =  1.0

     total cpu time spent up to now is       35.1 secs

     total energy              =     -15.75013057 Ry
     estimated scf accuracy    <       0.00022688 Ry

     iteration # 11     ecut=    50.00 Ry     beta= 0.01
     Davidson diagonalization with overlap
     ethr =  2.69E-06,  avg # of iterations =  2.0

     total cpu time spent up to now is       38.4 secs

     total energy              =     -15.75015453 Ry
     estimated scf accuracy    <       0.00002392 Ry

     iteration # 12     ecut=    50.00 Ry     beta= 0.01
     Davidson diagonalization with overlap
     ethr =  2.99E-07,  avg # of iterations =  1.1

     total cpu time spent up to now is       41.0 secs

     total energy              =     -15.75015458 Ry
     estimated scf accuracy    <       0.00001648 Ry

     iteration # 13     ecut=    50.00 Ry     beta= 0.01
     Davidson diagonalization with overlap
     ethr =  2.06E-07,  avg # of iterations =  1.0

     total cpu time spent up to now is       43.7 secs

     total energy              =     -15.75014678 Ry
     estimated scf accuracy    <       0.00001254 Ry

     iteration # 14     ecut=    50.00 Ry     beta= 0.01
     Davidson diagonalization with overlap
     ethr =  1.57E-07,  avg # of iterations =  1.0

     total cpu time spent up to now is       46.4 secs

     total energy              =     -15.75014248 Ry
     estimated scf accuracy    <       0.00000790 Ry

     iteration # 15     ecut=    50.00 Ry     beta= 0.01
     Davidson diagonalization with overlap
     ethr =  9.88E-08,  avg # of iterations =  2.0

     total cpu time spent up to now is       49.8 secs

     End of self-consistent calculation

          k = 0.0000 0.0000 0.0000 (  1639 PWs)   bands (ev):

    -6.2845   6.0545   6.0545   6.0545

          k =-0.1000 0.1000-0.1000 (  1606 PWs)   bands (ev):

    -6.1468   4.9565   5.8602   5.8602

          k =-0.2000 0.2000-0.2000 (  1606 PWs)   bands (ev):

    -5.7403   3.0626   5.4761   5.4761

          k =-0.3000 0.3000-0.3000 (  1609 PWs)   bands (ev):

    -5.0926   1.2095   5.1304   5.1304

          k =-0.4000 0.4000-0.4000 (  1601 PWs)   bands (ev):

    -4.3050  -0.3340   4.9085   4.9085

          k = 0.5000-0.5000 0.5000 (  1622 PWs)   bands (ev):

    -3.8270  -1.0683   4.8332   4.8332

          k = 0.0000 0.2000 0.0000 (  1591 PWs)   bands (ev):

    -6.1006   5.1863   5.4862   5.4862

          k =-0.1000 0.3000-0.1000 (  1595 PWs)   bands (ev):

    -5.7824   3.6433   5.0421   5.2423

          k =-0.2000 0.4000-0.2000 (  1603 PWs)   bands (ev):

    -5.2105   1.8202   4.7104   4.8096

          k =-0.3000 0.5000-0.3000 (  1609 PWs)   bands (ev):

    -4.4478   0.1773   4.3877   4.5537

          k = 0.6000-0.4000 0.6000 (  1609 PWs)   bands (ev):

    -3.7704  -0.9123   4.0867   4.5838

          k = 0.5000-0.3000 0.5000 (  1612 PWs)   bands (ev):

    -3.9476  -0.6503   3.9527   4.7874

          k = 0.4000-0.2000 0.4000 (  1605 PWs)   bands (ev):

    -4.7171   0.6941   4.0134   5.1307

          k = 0.3000-0.1000 0.3000 (  1600 PWs)   bands (ev):

    -5.4287   2.4129   4.2945   5.5455

          k = 0.2000 0.0000 0.2000 (  1592 PWs)   bands (ev):

    -5.9190   4.0725   4.9097   5.8759

          k = 0.0000 0.4000 0.0000 (  1607 PWs)   bands (ev):

    -5.5530   3.4990   4.5531   4.5531

          k =-0.1000 0.5000-0.1000 (  1604 PWs)   bands (ev):

    -5.0631   2.1966   4.0573   4.1907

          k =-0.2000 0.6000-0.2000 (  1608 PWs)   bands (ev):

    -4.3520   0.6893   3.4283   4.0221

          k = 0.7000-0.3000 0.7000 (  1596 PWs)   bands (ev):

    -3.5804  -0.5562   2.9051   4.0648

          k = 0.6000-0.2000 0.6000 (  1596 PWs)   bands (ev):

    -3.4181  -0.7766   2.5941   4.3093

          k = 0.5000-0.1000 0.5000 (  1598 PWs)   bands (ev):

    -4.1091   0.2625   2.5678   4.7177

          k = 0.4000 0.0000 0.4000 (  1608 PWs)   bands (ev):

    -4.8654   1.5585   3.0304   5.1987

          k = 0.0000 0.6000 0.0000 (  1612 PWs)   bands (ev):

    -4.6549   1.6434   3.7823   3.7823

          k =-0.1000 0.7000-0.1000 (  1612 PWs)   bands (ev):

    -4.0100   0.5890   3.1550   3.5676

          k = 0.8000-0.2000 0.8000 (  1613 PWs)   bands (ev):

    -3.2192  -0.4698   2.3134   3.5728

          k = 0.7000-0.1000 0.7000 (  1617 PWs)   bands (ev):

    -2.7750  -0.9738   1.7432   3.7954

          k = 0.6000-0.0000 0.6000 (  1604 PWs)   bands (ev):

    -3.3435  -0.3546   1.7171   4.2048

          k = 0.0000 0.8000 0.0000 (  1608 PWs)   bands (ev):

    -3.4314  -0.2023   3.2962   3.2962

          k = 0.9000-0.1000 0.9000 (  1616 PWs)   bands (ev):

    -2.6640  -1.0852   2.7103   3.2448

          k = 0.8000 0.0000 0.8000 (  1604 PWs)   bands (ev):

    -2.1597  -1.5296   1.9134   3.4183

          k = 0.0000-1.0000 0.0000 (  1604 PWs)   bands (ev):

    -1.9250  -1.9250   3.1312   3.1312

          k =-0.2000 0.4000 0.0000 (  1597 PWs)   bands (ev):

    -5.3791   2.7032   3.9688   5.0884

          k =-0.3000 0.5000-0.1000 (  1605 PWs)   bands (ev):

    -4.7355   1.2345   3.3739   4.7020

          k = 0.6000-0.4000 0.8000 (  1604 PWs)   bands (ev):

    -3.9481  -0.1947   3.1436   4.3376

          k = 0.5000-0.3000 0.7000 (  1600 PWs)   bands (ev):

    -3.4622  -0.9086   3.0854   4.1927

          k =-0.2000 0.6000 0.0000 (  1607 PWs)   bands (ev):

    -4.4972   1.2634   3.2134   3.9434

          k = 0.7000-0.3000 0.9000 (  1617 PWs)   bands (ev):

    -3.7385   0.1073   2.5872   3.6041

          k = 0.6000-0.2000 0.8000 (  1606 PWs)   bands (ev):

    -3.0516  -0.8032   2.1706   3.5459

          k = 0.5000-0.1000 0.7000 (  1608 PWs)   bands (ev):

    -3.2645  -0.5297   2.0121   3.7951

          k = 0.4000 0.0000 0.6000 (  1599 PWs)   bands (ev):

    -4.0404   0.4674   2.3196   4.2487

          k = 0.8000-0.2000 1.0000 (  1621 PWs)   bands (ev):

    -3.3064  -0.2924   2.7812   3.1076

          k = 0.7000-0.1000 0.9000 (  1616 PWs)   bands (ev):

    -2.5278  -1.1066   2.0638   3.0178

          k = 0.6000 0.0000 0.8000 (  1610 PWs)   bands (ev):

    -2.5316  -1.0814   1.6364   3.2976

          k =-0.2000-1.0000 0.0000 (  1616 PWs)   bands (ev):

    -1.8683  -1.8683   2.7299   2.7299

          k = 0.6000-0.2000 1.0000 (  1616 PWs)   bands (ev):

    -2.9672  -0.6071   2.0078   3.0175

          k = 0.5000-0.1000 0.9000 (  1596 PWs)   bands (ev):

    -2.4275  -1.1423   1.8443   2.7590

          k =-0.4000-1.0000 0.0000 (  1612 PWs)   bands (ev):

    -1.7680  -1.7680   2.2122   2.2122

     highest occupied level (ev):     6.0545

!    total energy              =     -15.75014375 Ry
     estimated scf accuracy    <       0.00000044 Ry

     The total energy is the sum of the following terms:
     one-electron contribution =       4.80665743 Ry
     hartree contribution      =       1.10901626 Ry
     xc contribution           =      -4.84537875 Ry
     ewald contribution        =     -16.82043869 Ry

     convergence has been achieved in  15 iterations
     Writing meta-gga kinetic term

     Writing all to output data dir ./pwscf.save/
     Writing meta-gga kinetic term
 
     init_run     :      4.62s CPU      4.70s WALL (       1 calls)
     electrons    :     44.88s CPU     45.11s WALL (       1 calls)

     Called by init_run:
     wfcinit      :      4.51s CPU      4.53s WALL (       1 calls)
     potinit      :      0.03s CPU      0.04s WALL (       1 calls)
     hinit0       :      0.07s CPU      0.11s WALL (       1 calls)

     Called by electrons:
     c_bands      :     35.50s CPU     35.68s WALL (      16 calls)
     sum_band     :      8.51s CPU      8.53s WALL (      16 calls)
     v_of_rho     :      0.52s CPU      0.56s WALL (      16 calls)
     mix_rho      :      0.35s CPU      0.36s WALL (      16 calls)

     Called by c_bands:
     init_us_2    :      0.35s CPU      0.36s WALL (    1551 calls)
     init_us_2:cp :      0.35s CPU      0.35s WALL (    1551 calls)
     cegterg      :     35.05s CPU     35.22s WALL (     752 calls)

     Called by *egterg:
     cdiaghg      :      0.13s CPU      0.13s WALL (    1703 calls)
     h_psi        :     38.85s CPU     39.03s WALL (    1797 calls)
     g_psi        :      0.02s CPU      0.02s WALL (     998 calls)

     Called by h_psi:
     h_psi:calbec :      0.16s CPU      0.17s WALL (    1797 calls)
     vloc_psi     :      9.64s CPU      9.70s WALL (    1797 calls)
     add_vuspsi   :      0.10s CPU      0.10s WALL (    1797 calls)
     h_psi_meta   :     28.89s CPU     29.01s WALL (    1797 calls)

     General routines
     calbec       :      0.16s CPU      0.16s WALL (    1797 calls)
     fft          :      0.11s CPU      0.15s WALL (     191 calls)
     ffts         :      0.15s CPU      0.15s WALL (     260 calls)
     fftw         :     39.63s CPU     39.84s WALL (   71416 calls)
     interpolate  :      0.00s CPU      0.00s WALL (      16 calls)
 
     Parallel routines
 
     PWSCF        :     49.53s CPU     49.87s WALL

 
   This run was terminated on:  17:14:36  20Feb2023            

=------------------------------------------------------------------------------=
   JOB DONE.
=------------------------------------------------------------------------------=
