
     Program PWSCF v.7.0 starts on  7Jul2023 at 14:30:56 

     This program is part of the open-source Quantum ESPRESSO suite
     for quantum simulation of materials; please cite
         "P. Giannozzi et al., J. Phys.:Condens. Matter 21 395502 (2009);
         "P. Giannozzi et al., J. Phys.:Condens. Matter 29 465901 (2017);
         "P. Giannozzi et al., J. Chem. Phys. 152 154105 (2020);
          URL http://www.quantum-espresso.org", 
     in publications or presentations arising from this work. More details at
     http://www.quantum-espresso.org/quote

     Parallel version (MPI), running on     1 processors

     MPI processes distributed on     1 nodes
     27507 MiB available memory on the printing compute node when the environment starts
 
     Waiting for input...
     Reading input from standard input
Warning: card &CELL ignored
Warning: card / ignored

     Current dimensions of program PWSCF are:
     Max number of different atomic species (ntypx) = 10
     Max number of k-points (npk) =  40000
     Max angular momentum in pseudopotentials (lmaxx) =  4
     file Si.SCAN.UPF2: wavefunction(s)  0D renormalized

     WARNING: the MGGA functional with ID    5 has been 
     read together with other dft terms, but it should 
     stand alone in order to work properly. The other 
     terms will be ignored.

     WARNING: the MGGA functional with ID    5 has been 
     read together with other dft terms, but it should 
     stand alone in order to work properly. The other 
     terms will be ignored.

     Subspace diagonalization in iterative solution of the eigenvalue problem:
     a serial algorithm will be used

 
     G-vector sticks info
     --------------------
     sticks:   dense  smooth     PW     G-vecs:    dense   smooth      PW
     Sum         361     361    121                 4573     4573     893
 
     Using Slab Decomposition
 


     bravais-lattice index     =            2
     lattice parameter (alat)  =       7.2565  a.u.
     unit-cell volume          =      95.5279 (a.u.)^3
     number of atoms/cell      =            2
     number of atomic types    =            2
     number of electrons       =         8.00
     number of Kohn-Sham states=            4
     kinetic-energy cutoff     =      50.0000  Ry
     charge density cutoff     =     200.0000  Ry
     scf convergence threshold =      2.0E-05
     mixing beta               =       0.2000
     number of iterations used =            8  local-TF  mixing
     Exchange-correlation= SLA  PW   SCAN SCAN
                           (   0   0   0   0   0 263 267)

     celldm(1)=   7.256548  celldm(2)=   0.000000  celldm(3)=   0.000000
     celldm(4)=   0.000000  celldm(5)=   0.000000  celldm(6)=   0.000000

     crystal axes: (cart. coord. in units of alat)
               a(1) = (  -0.500000   0.000000   0.500000 )  
               a(2) = (   0.000000   0.500000   0.500000 )  
               a(3) = (  -0.500000   0.500000   0.000000 )  

     reciprocal axes: (cart. coord. in units 2 pi/alat)
               b(1) = ( -1.000000 -1.000000  1.000000 )  
               b(2) = (  1.000000  1.000000  1.000000 )  
               b(3) = ( -1.000000  1.000000 -1.000000 )  


     PseudoPot. # 1 for Si read from file:
     ~/Documents/TA/PWDFT.jl/pseudopotentials/scan_upf/Si.SCAN.UPF2
     MD5 check sum: Not computed, couldn't open file
     Pseudo is Norm-conserving, Zval =  4.0
     Generated by new atomic code, or converted to UPF format
     Using radial grid of 1475 points,  2 beta functions with: 
                l(1) =   0
                l(2) =   1

     PseudoPot. # 2 for C  read from file:
     ~/Documents/TA/PWDFT.jl/pseudopotentials/scan_upf/C.SCAN.UPF2
     MD5 check sum: Not computed, couldn't open file
     Pseudo is Norm-conserving, Zval =  4.0
     Generated by new atomic code, or converted to UPF format
     Using radial grid of 1389 points,  1 beta functions with: 
                l(1) =   0

     atomic species   valence    mass     pseudopotential
        Si             4.00    28.08550     Si( 1.00)
        C              4.00    12.01100     C ( 1.00)

     24 Sym. Ops. (no inversion) found



   Cartesian axes

     site n.     atom                  positions (alat units)
         1           Si  tau(   1) = (   0.0000000   0.0000000   0.0000000  )
         2           C   tau(   2) = (   0.2500000   0.2500000   0.2500000  )

     number of k points=    47
                       cart. coord. in units 2pi/alat
        k(    1) = (   0.0000000   0.0000000   0.0000000), wk =   0.0020000
        k(    2) = (  -0.1000000   0.1000000  -0.1000000), wk =   0.0160000
        k(    3) = (  -0.2000000   0.2000000  -0.2000000), wk =   0.0160000
        k(    4) = (  -0.3000000   0.3000000  -0.3000000), wk =   0.0160000
        k(    5) = (  -0.4000000   0.4000000  -0.4000000), wk =   0.0160000
        k(    6) = (   0.5000000  -0.5000000   0.5000000), wk =   0.0080000
        k(    7) = (   0.0000000   0.2000000   0.0000000), wk =   0.0120000
        k(    8) = (  -0.1000000   0.3000000  -0.1000000), wk =   0.0480000
        k(    9) = (  -0.2000000   0.4000000  -0.2000000), wk =   0.0480000
        k(   10) = (  -0.3000000   0.5000000  -0.3000000), wk =   0.0480000
        k(   11) = (   0.6000000  -0.4000000   0.6000000), wk =   0.0480000
        k(   12) = (   0.5000000  -0.3000000   0.5000000), wk =   0.0480000
        k(   13) = (   0.4000000  -0.2000000   0.4000000), wk =   0.0480000
        k(   14) = (   0.3000000  -0.1000000   0.3000000), wk =   0.0480000
        k(   15) = (   0.2000000   0.0000000   0.2000000), wk =   0.0240000
        k(   16) = (   0.0000000   0.4000000   0.0000000), wk =   0.0120000
        k(   17) = (  -0.1000000   0.5000000  -0.1000000), wk =   0.0480000
        k(   18) = (  -0.2000000   0.6000000  -0.2000000), wk =   0.0480000
        k(   19) = (   0.7000000  -0.3000000   0.7000000), wk =   0.0480000
        k(   20) = (   0.6000000  -0.2000000   0.6000000), wk =   0.0480000
        k(   21) = (   0.5000000  -0.1000000   0.5000000), wk =   0.0480000
        k(   22) = (   0.4000000   0.0000000   0.4000000), wk =   0.0240000
        k(   23) = (   0.0000000   0.6000000   0.0000000), wk =   0.0120000
        k(   24) = (  -0.1000000   0.7000000  -0.1000000), wk =   0.0480000
        k(   25) = (   0.8000000  -0.2000000   0.8000000), wk =   0.0480000
        k(   26) = (   0.7000000  -0.1000000   0.7000000), wk =   0.0480000
        k(   27) = (   0.6000000  -0.0000000   0.6000000), wk =   0.0240000
        k(   28) = (   0.0000000   0.8000000   0.0000000), wk =   0.0120000
        k(   29) = (   0.9000000  -0.1000000   0.9000000), wk =   0.0480000
        k(   30) = (   0.8000000   0.0000000   0.8000000), wk =   0.0240000
        k(   31) = (   0.0000000  -1.0000000   0.0000000), wk =   0.0060000
        k(   32) = (  -0.2000000   0.4000000   0.0000000), wk =   0.0480000
        k(   33) = (  -0.3000000   0.5000000  -0.1000000), wk =   0.0960000
        k(   34) = (   0.6000000  -0.4000000   0.8000000), wk =   0.0960000
        k(   35) = (   0.5000000  -0.3000000   0.7000000), wk =   0.0480000
        k(   36) = (  -0.2000000   0.6000000   0.0000000), wk =   0.0480000
        k(   37) = (   0.7000000  -0.3000000   0.9000000), wk =   0.0960000
        k(   38) = (   0.6000000  -0.2000000   0.8000000), wk =   0.0960000
        k(   39) = (   0.5000000  -0.1000000   0.7000000), wk =   0.0960000
        k(   40) = (   0.4000000   0.0000000   0.6000000), wk =   0.0480000
        k(   41) = (   0.8000000  -0.2000000   1.0000000), wk =   0.0480000
        k(   42) = (   0.7000000  -0.1000000   0.9000000), wk =   0.0960000
        k(   43) = (   0.6000000   0.0000000   0.8000000), wk =   0.0480000
        k(   44) = (  -0.2000000  -1.0000000   0.0000000), wk =   0.0240000
        k(   45) = (   0.6000000  -0.2000000   1.0000000), wk =   0.0480000
        k(   46) = (   0.5000000  -0.1000000   0.9000000), wk =   0.0480000
        k(   47) = (  -0.4000000  -1.0000000   0.0000000), wk =   0.0240000

     Dense  grid:     4573 G-vectors     FFT dimensions: (  24,  24,  24)

     Estimated max dynamical RAM per process >       8.81 MB

     WARNING: libxc functional with ID  263 depends
      on external parameters: check the user_guide of
      QE if you need to modify them or to check their
      default values.

     Initial potential from superposition of free atoms

     starting charge       7.9995, renormalised to       8.0000
     Starting wfcs are   13 randomized atomic wfcs

     total cpu time spent up to now is        2.4 secs

     Self-consistent Calculation

     iteration #  1     ecut=    50.00 Ry     beta= 0.20
     Davidson diagonalization with overlap
     ethr =  1.00E-02,  avg # of iterations =  2.0

     total cpu time spent up to now is        4.2 secs

     total energy              =     -19.24965059 Ry
     estimated scf accuracy    <       3.30067161 Ry

     iteration #  2     ecut=    50.00 Ry     beta= 0.20
     Davidson diagonalization with overlap
     ethr =  1.00E-02,  avg # of iterations =  1.0

     total cpu time spent up to now is        5.6 secs

     total energy              =     -19.03759878 Ry
     estimated scf accuracy    <       2.02860311 Ry

     iteration #  3     ecut=    50.00 Ry     beta= 0.20
     Davidson diagonalization with overlap
     ethr =  1.00E-02,  avg # of iterations =  1.3

     total cpu time spent up to now is        6.9 secs

     total energy              =     -19.10969080 Ry
     estimated scf accuracy    <       0.05511314 Ry

     iteration #  4     ecut=    50.00 Ry     beta= 0.20
     Davidson diagonalization with overlap
     ethr =  6.89E-04,  avg # of iterations =  1.7

     total cpu time spent up to now is        8.4 secs

     total energy              =     -19.11726180 Ry
     estimated scf accuracy    <       0.02628889 Ry

     iteration #  5     ecut=    50.00 Ry     beta= 0.20
     Davidson diagonalization with overlap
     ethr =  3.29E-04,  avg # of iterations =  1.0

     total cpu time spent up to now is        9.7 secs

     total energy              =     -19.11598435 Ry
     estimated scf accuracy    <       0.03685557 Ry

     iteration #  6     ecut=    50.00 Ry     beta= 0.20
     Davidson diagonalization with overlap
     ethr =  3.29E-04,  avg # of iterations =  1.0

     total cpu time spent up to now is       11.0 secs

     total energy              =     -19.11749636 Ry
     estimated scf accuracy    <       0.00113039 Ry

     iteration #  7     ecut=    50.00 Ry     beta= 0.20
     Davidson diagonalization with overlap
     ethr =  1.41E-05,  avg # of iterations =  2.0

     total cpu time spent up to now is       12.6 secs

     total energy              =     -19.11768509 Ry
     estimated scf accuracy    <       0.00111638 Ry

     iteration #  8     ecut=    50.00 Ry     beta= 0.20
     Davidson diagonalization with overlap
     ethr =  1.40E-05,  avg # of iterations =  1.0

     total cpu time spent up to now is       13.9 secs

     End of self-consistent calculation

          k = 0.0000 0.0000 0.0000 (   537 PWs)   bands (ev):

    -4.7814  14.6802  14.6802  14.6802

          k =-0.1000 0.1000-0.1000 (   555 PWs)   bands (ev):

    -4.5120  13.5492  14.5383  14.5383

          k =-0.2000 0.2000-0.2000 (   564 PWs)   bands (ev):

    -3.7127  10.9782  14.2115  14.2115

          k =-0.3000 0.3000-0.3000 (   571 PWs)   bands (ev):

    -2.4170   7.9919  13.8713  13.8713

          k =-0.4000 0.4000-0.4000 (   586 PWs)   bands (ev):

    -0.7404   5.1765  13.6317  13.6317

          k = 0.5000-0.5000 0.5000 (   568 PWs)   bands (ev):

     0.4940   3.5498  13.5521  13.5521

          k = 0.0000 0.2000 0.0000 (   564 PWs)   bands (ev):

    -4.4224  13.9747  14.0969  14.0969

          k =-0.1000 0.3000-0.1000 (   565 PWs)   bands (ev):

    -3.7999  11.9303  13.5796  14.0706

          k =-0.2000 0.4000-0.2000 (   575 PWs)   bands (ev):

    -2.6685   9.1155  13.1894  13.7015

          k =-0.3000 0.5000-0.3000 (   575 PWs)   bands (ev):

    -1.1028   6.2527  13.0386  13.1809

          k = 0.6000-0.4000 0.6000 (   573 PWs)   bands (ev):

     0.4958   4.0224  12.7110  13.1489

          k = 0.5000-0.3000 0.5000 (   575 PWs)   bands (ev):

     0.0353   4.6120  12.4296  13.4872

          k = 0.4000-0.2000 0.4000 (   571 PWs)   bands (ev):

    -1.6640   7.1823  12.4207  13.9624

          k = 0.3000-0.1000 0.3000 (   570 PWs)   bands (ev):

    -3.1001  10.0610  12.7269  14.4198

          k = 0.2000 0.0000 0.2000 (   559 PWs)   bands (ev):

    -4.0660  12.4851  13.4733  14.6635

          k = 0.0000 0.4000 0.0000 (   572 PWs)   bands (ev):

    -3.3582  12.2757  12.8782  12.8782

          k =-0.1000 0.5000-0.1000 (   572 PWs)   bands (ev):

    -2.4045  10.2130  12.3619  12.5273

          k =-0.2000 0.6000-0.2000 (   572 PWs)   bands (ev):

    -0.9942   7.6158  11.7280  12.1496

          k = 0.7000-0.3000 0.7000 (   570 PWs)   bands (ev):

     0.6471   5.2336  10.8479  12.2789

          k = 0.6000-0.2000 0.6000 (   572 PWs)   bands (ev):

     1.0653   4.7131  10.2215  12.7249

          k = 0.5000-0.1000 0.5000 (   570 PWs)   bands (ev):

    -0.4610   6.7732  10.0321  13.3908

          k = 0.4000 0.0000 0.4000 (   562 PWs)   bands (ev):

    -1.9884   8.9749  10.7130  14.0673

          k = 0.0000 0.6000 0.0000 (   568 PWs)   bands (ev):

    -1.6354   9.9799  11.7080  11.7080

          k =-0.1000 0.7000-0.1000 (   573 PWs)   bands (ev):

    -0.4088   8.3541  10.7097  11.3797

          k = 0.8000-0.2000 0.8000 (   570 PWs)   bands (ev):

     1.1095   6.5728   9.1295  11.4282

          k = 0.7000-0.1000 0.7000 (   571 PWs)   bands (ev):

     2.0466   5.6130   7.9543  11.8457

          k = 0.6000-0.0000 0.6000 (   572 PWs)   bands (ev):

     1.0306   6.5145   7.9125  12.5614

          k = 0.0000 0.8000 0.0000 (   568 PWs)   bands (ev):

     0.6055   7.2486  10.9220  10.9220

          k = 0.9000-0.1000 0.9000 (   568 PWs)   bands (ev):

     1.8512   6.0521   9.7072  10.8502

          k = 0.8000 0.0000 0.8000 (   580 PWs)   bands (ev):

     2.5444   5.9350   7.7269  11.1715

          k = 0.0000-1.0000 0.0000 (   588 PWs)   bands (ev):

     2.3652   5.2681  10.6449  10.6449

          k =-0.2000 0.4000 0.0000 (   570 PWs)   bands (ev):

    -3.0110  10.7341  12.1640  13.8991

          k =-0.3000 0.5000-0.1000 (   571 PWs)   bands (ev):

    -1.7362   8.3784  11.3942  13.4017

          k = 0.6000-0.4000 0.8000 (   569 PWs)   bands (ev):

    -0.1020   5.7794  11.2131  12.7752

          k = 0.5000-0.3000 0.7000 (   564 PWs)   bands (ev):

     1.0659   4.2582  11.2255  12.4727

          k =-0.2000 0.6000 0.0000 (   573 PWs)   bands (ev):

    -1.3097   9.0710  10.9195  12.1031

          k = 0.7000-0.3000 0.9000 (   570 PWs)   bands (ev):

     0.1792   7.1344  10.0269  11.3749

          k = 0.6000-0.2000 0.8000 (   570 PWs)   bands (ev):

     1.6082   5.3460   9.3347  11.2648

          k = 0.5000-0.1000 0.7000 (   569 PWs)   bands (ev):

     1.1946   5.8569   8.8946  11.7948

          k = 0.4000 0.0000 0.6000 (   568 PWs)   bands (ev):

    -0.3671   7.5893   9.3523  12.6440

          k = 0.8000-0.2000 1.0000 (   577 PWs)   bands (ev):

     0.8759   7.1963  10.0839  10.3123

          k = 0.7000-0.1000 0.9000 (   574 PWs)   bands (ev):

     2.1873   6.2993   8.2430  10.2778

          k = 0.6000 0.0000 0.8000 (   569 PWs)   bands (ev):

     2.3372   6.4974   7.0191  10.8544

          k =-0.2000-1.0000 0.0000 (   578 PWs)   bands (ev):

     2.5080   5.6068   9.6763   9.8024

          k = 0.6000-0.2000 1.0000 (   565 PWs)   bands (ev):

     1.5918   6.7606   8.4538  10.1250

          k = 0.5000-0.1000 0.9000 (   570 PWs)   bands (ev):

     2.4481   6.2572   7.9764   9.5489

          k =-0.4000-1.0000 0.0000 (   568 PWs)   bands (ev):

     2.7747   6.5703   8.1722   8.5094

     highest occupied level (ev):    14.6802

!    total energy              =     -19.11773438 Ry
     estimated scf accuracy    <       0.00001403 Ry

     The total energy is the sum of the following terms:
     one-electron contribution =       9.21192124 Ry
     hartree contribution      =       2.13137195 Ry
     xc contribution           =      -6.70627117 Ry
     ewald contribution        =     -23.75475640 Ry

     convergence has been achieved in   8 iterations
     Writing meta-gga kinetic term

     Writing all to output data dir ./input_pw/SiC/2/pwscf.save/
     Writing meta-gga kinetic term
 
     init_run     :      0.94s CPU      2.34s WALL (       1 calls)
     electrons    :      5.64s CPU     11.51s WALL (       1 calls)

     Called by init_run:
     wfcinit      :      0.84s CPU      2.09s WALL (       1 calls)
     potinit      :      0.01s CPU      0.01s WALL (       1 calls)
     hinit0       :      0.10s CPU      0.23s WALL (       1 calls)

     Called by electrons:
     c_bands      :      4.49s CPU      9.08s WALL (       8 calls)
     sum_band     :      1.05s CPU      2.20s WALL (       8 calls)
     v_of_rho     :      0.08s CPU      0.15s WALL (       9 calls)
     mix_rho      :      0.04s CPU      0.07s WALL (       8 calls)

     Called by c_bands:
     init_us_2    :      0.06s CPU      0.11s WALL (     799 calls)
     init_us_2:cp :      0.06s CPU      0.11s WALL (     799 calls)
     cegterg      :      4.43s CPU      8.97s WALL (     376 calls)

     Called by *egterg:
     cdiaghg      :      0.04s CPU      0.07s WALL (     892 calls)
     h_psi        :      5.12s CPU     10.80s WALL (     939 calls)
     g_psi        :      0.00s CPU      0.00s WALL (     516 calls)

     Called by h_psi:
     h_psi:calbec :      0.02s CPU      0.02s WALL (     939 calls)
     vloc_psi     :      1.26s CPU      2.54s WALL (     939 calls)
     add_vuspsi   :      0.02s CPU      0.05s WALL (     939 calls)
     h_psi_meta   :      3.81s CPU      8.15s WALL (     939 calls)

     General routines
     calbec       :      0.01s CPU      0.01s WALL (     939 calls)
     fft          :      0.02s CPU      0.03s WALL (     105 calls)
     ffts         :      0.02s CPU      0.04s WALL (     139 calls)
     fftw         :      5.48s CPU     11.78s WALL (   37808 calls)
     interpolate  :      0.00s CPU      0.00s WALL (       9 calls)
 
     Parallel routines
 
     PWSCF        :      6.65s CPU     13.98s WALL

 
   This run was terminated on:  14:31:10   7Jul2023            

=------------------------------------------------------------------------------=
   JOB DONE.
=------------------------------------------------------------------------------=
