
     Program PWSCF v.7.0 starts on 14Mar2023 at 12: 2:30 

     This program is part of the open-source Quantum ESPRESSO suite
     for quantum simulation of materials; please cite
         "P. Giannozzi et al., J. Phys.:Condens. Matter 21 395502 (2009);
         "P. Giannozzi et al., J. Phys.:Condens. Matter 29 465901 (2017);
         "P. Giannozzi et al., J. Chem. Phys. 152 154105 (2020);
          URL http://www.quantum-espresso.org", 
     in publications or presentations arising from this work. More details at
     http://www.quantum-espresso.org/quote

     Parallel version (MPI), running on     1 processors

     MPI processes distributed on     1 nodes
     27508 MiB available memory on the printing compute node when the environment starts
 
     Waiting for input...
     Reading input from standard input
Warning: card &CELL ignored
Warning: card / ignored

     Current dimensions of program PWSCF are:
     Max number of different atomic species (ntypx) = 10
     Max number of k-points (npk) =  40000
     Max angular momentum in pseudopotentials (lmaxx) =  4
     file Si.SCAN.UPF2: wavefunction(s)  0D renormalized

     WARNING: the MGGA functional with ID    5 has been 
     read together with other dft terms, but it should 
     stand alone in order to work properly. The other 
     terms will be ignored.

     WARNING: the MGGA functional with ID    5 has been 
     read together with other dft terms, but it should 
     stand alone in order to work properly. The other 
     terms will be ignored.

     Subspace diagonalization in iterative solution of the eigenvalue problem:
     a serial algorithm will be used

 
     G-vector sticks info
     --------------------
     sticks:   dense  smooth     PW     G-vecs:    dense   smooth      PW
     Sum         367     367    121                 4693     4693     941
 
     Using Slab Decomposition
 


     bravais-lattice index     =            2
     lattice parameter (alat)  =       7.3420  a.u.
     unit-cell volume          =      98.9426 (a.u.)^3
     number of atoms/cell      =            2
     number of atomic types    =            2
     number of electrons       =         8.00
     number of Kohn-Sham states=            4
     kinetic-energy cutoff     =      50.0000  Ry
     charge density cutoff     =     200.0000  Ry
     scf convergence threshold =      1.0E-06
     mixing beta               =       0.0100
     number of iterations used =            8  local-TF  mixing
     Exchange-correlation= SLA  PW   SCAN SCAN
                           (   0   0   0   0   0 263 267)

     celldm(1)=   7.342000  celldm(2)=   0.000000  celldm(3)=   0.000000
     celldm(4)=   0.000000  celldm(5)=   0.000000  celldm(6)=   0.000000

     crystal axes: (cart. coord. in units of alat)
               a(1) = (  -0.500000   0.000000   0.500000 )  
               a(2) = (   0.000000   0.500000   0.500000 )  
               a(3) = (  -0.500000   0.500000   0.000000 )  

     reciprocal axes: (cart. coord. in units 2 pi/alat)
               b(1) = ( -1.000000 -1.000000  1.000000 )  
               b(2) = (  1.000000  1.000000  1.000000 )  
               b(3) = ( -1.000000  1.000000 -1.000000 )  


     PseudoPot. # 1 for Si read from file:
     ~/Documents/TA/PWDFT.jl/pseudopotentials/scan_upf/Si.SCAN.UPF2
     MD5 check sum: Not computed, couldn't open file
     Pseudo is Norm-conserving, Zval =  4.0
     Generated by new atomic code, or converted to UPF format
     Using radial grid of 1475 points,  2 beta functions with: 
                l(1) =   0
                l(2) =   1

     PseudoPot. # 2 for C  read from file:
     ~/Documents/TA/PWDFT.jl/pseudopotentials/scan_upf/C.SCAN.UPF2
     MD5 check sum: Not computed, couldn't open file
     Pseudo is Norm-conserving, Zval =  4.0
     Generated by new atomic code, or converted to UPF format
     Using radial grid of 1389 points,  1 beta functions with: 
                l(1) =   0

     atomic species   valence    mass     pseudopotential
        Si             4.00    28.08550     Si( 1.00)
        C              4.00    12.01100     C ( 1.00)

     24 Sym. Ops. (no inversion) found



   Cartesian axes

     site n.     atom                  positions (alat units)
         1           Si  tau(   1) = (   0.0000000   0.0000000   0.0000000  )
         2           C   tau(   2) = (   0.2500000   0.2500000   0.2500000  )

     number of k points=    47
                       cart. coord. in units 2pi/alat
        k(    1) = (   0.0000000   0.0000000   0.0000000), wk =   0.0020000
        k(    2) = (  -0.1000000   0.1000000  -0.1000000), wk =   0.0160000
        k(    3) = (  -0.2000000   0.2000000  -0.2000000), wk =   0.0160000
        k(    4) = (  -0.3000000   0.3000000  -0.3000000), wk =   0.0160000
        k(    5) = (  -0.4000000   0.4000000  -0.4000000), wk =   0.0160000
        k(    6) = (   0.5000000  -0.5000000   0.5000000), wk =   0.0080000
        k(    7) = (   0.0000000   0.2000000   0.0000000), wk =   0.0120000
        k(    8) = (  -0.1000000   0.3000000  -0.1000000), wk =   0.0480000
        k(    9) = (  -0.2000000   0.4000000  -0.2000000), wk =   0.0480000
        k(   10) = (  -0.3000000   0.5000000  -0.3000000), wk =   0.0480000
        k(   11) = (   0.6000000  -0.4000000   0.6000000), wk =   0.0480000
        k(   12) = (   0.5000000  -0.3000000   0.5000000), wk =   0.0480000
        k(   13) = (   0.4000000  -0.2000000   0.4000000), wk =   0.0480000
        k(   14) = (   0.3000000  -0.1000000   0.3000000), wk =   0.0480000
        k(   15) = (   0.2000000   0.0000000   0.2000000), wk =   0.0240000
        k(   16) = (   0.0000000   0.4000000   0.0000000), wk =   0.0120000
        k(   17) = (  -0.1000000   0.5000000  -0.1000000), wk =   0.0480000
        k(   18) = (  -0.2000000   0.6000000  -0.2000000), wk =   0.0480000
        k(   19) = (   0.7000000  -0.3000000   0.7000000), wk =   0.0480000
        k(   20) = (   0.6000000  -0.2000000   0.6000000), wk =   0.0480000
        k(   21) = (   0.5000000  -0.1000000   0.5000000), wk =   0.0480000
        k(   22) = (   0.4000000   0.0000000   0.4000000), wk =   0.0240000
        k(   23) = (   0.0000000   0.6000000   0.0000000), wk =   0.0120000
        k(   24) = (  -0.1000000   0.7000000  -0.1000000), wk =   0.0480000
        k(   25) = (   0.8000000  -0.2000000   0.8000000), wk =   0.0480000
        k(   26) = (   0.7000000  -0.1000000   0.7000000), wk =   0.0480000
        k(   27) = (   0.6000000  -0.0000000   0.6000000), wk =   0.0240000
        k(   28) = (   0.0000000   0.8000000   0.0000000), wk =   0.0120000
        k(   29) = (   0.9000000  -0.1000000   0.9000000), wk =   0.0480000
        k(   30) = (   0.8000000   0.0000000   0.8000000), wk =   0.0240000
        k(   31) = (   0.0000000  -1.0000000   0.0000000), wk =   0.0060000
        k(   32) = (  -0.2000000   0.4000000   0.0000000), wk =   0.0480000
        k(   33) = (  -0.3000000   0.5000000  -0.1000000), wk =   0.0960000
        k(   34) = (   0.6000000  -0.4000000   0.8000000), wk =   0.0960000
        k(   35) = (   0.5000000  -0.3000000   0.7000000), wk =   0.0480000
        k(   36) = (  -0.2000000   0.6000000   0.0000000), wk =   0.0480000
        k(   37) = (   0.7000000  -0.3000000   0.9000000), wk =   0.0960000
        k(   38) = (   0.6000000  -0.2000000   0.8000000), wk =   0.0960000
        k(   39) = (   0.5000000  -0.1000000   0.7000000), wk =   0.0960000
        k(   40) = (   0.4000000   0.0000000   0.6000000), wk =   0.0480000
        k(   41) = (   0.8000000  -0.2000000   1.0000000), wk =   0.0480000
        k(   42) = (   0.7000000  -0.1000000   0.9000000), wk =   0.0960000
        k(   43) = (   0.6000000   0.0000000   0.8000000), wk =   0.0480000
        k(   44) = (  -0.2000000  -1.0000000   0.0000000), wk =   0.0240000
        k(   45) = (   0.6000000  -0.2000000   1.0000000), wk =   0.0480000
        k(   46) = (   0.5000000  -0.1000000   0.9000000), wk =   0.0480000
        k(   47) = (  -0.4000000  -1.0000000   0.0000000), wk =   0.0240000

     Dense  grid:     4693 G-vectors     FFT dimensions: (  24,  24,  24)

     Estimated max dynamical RAM per process >       9.01 MB

     WARNING: libxc functional with ID  263 depends
      on external parameters: check the user_guide of
      QE if you need to modify them or to check their
      default values.

     Initial potential from superposition of free atoms

     starting charge       7.9995, renormalised to       8.0000
     Starting wfcs are   13 randomized atomic wfcs

     total cpu time spent up to now is        2.5 secs

     Self-consistent Calculation

     iteration #  1     ecut=    50.00 Ry     beta= 0.01
     Davidson diagonalization with overlap
     ethr =  1.00E-02,  avg # of iterations =  2.0

     total cpu time spent up to now is        4.7 secs

     total energy              =     -19.27181855 Ry
     estimated scf accuracy    <       3.17005750 Ry

     iteration #  2     ecut=    50.00 Ry     beta= 0.01
     Davidson diagonalization with overlap
     ethr =  1.00E-02,  avg # of iterations =  1.0

     total cpu time spent up to now is        6.1 secs

     total energy              =     -19.10073831 Ry
     estimated scf accuracy    <       3.09138688 Ry

     iteration #  3     ecut=    50.00 Ry     beta= 0.01
     Davidson diagonalization with overlap
     ethr =  1.00E-02,  avg # of iterations =  1.0

     total cpu time spent up to now is        7.5 secs

     total energy              =     -19.12697815 Ry
     estimated scf accuracy    <       0.15893714 Ry

     iteration #  4     ecut=    50.00 Ry     beta= 0.01
     Davidson diagonalization with overlap
     ethr =  1.99E-03,  avg # of iterations =  1.2

     total cpu time spent up to now is        9.2 secs

     total energy              =     -19.13888569 Ry
     estimated scf accuracy    <       0.05419972 Ry

     iteration #  5     ecut=    50.00 Ry     beta= 0.01
     Davidson diagonalization with overlap
     ethr =  6.77E-04,  avg # of iterations =  1.0

     total cpu time spent up to now is       10.6 secs

     total energy              =     -19.14889766 Ry
     estimated scf accuracy    <       0.05430521 Ry

     iteration #  6     ecut=    50.00 Ry     beta= 0.01
     Davidson diagonalization with overlap
     ethr =  6.77E-04,  avg # of iterations =  1.0

     total cpu time spent up to now is       12.3 secs

     total energy              =     -19.14579667 Ry
     estimated scf accuracy    <       0.07725170 Ry

     iteration #  7     ecut=    50.00 Ry     beta= 0.01
     Davidson diagonalization with overlap
     ethr =  6.77E-04,  avg # of iterations =  1.9

     total cpu time spent up to now is       14.4 secs

     total energy              =     -19.15144319 Ry
     estimated scf accuracy    <       0.00759413 Ry

     iteration #  8     ecut=    50.00 Ry     beta= 0.01
     Davidson diagonalization with overlap
     ethr =  9.49E-05,  avg # of iterations =  2.0

     total cpu time spent up to now is       16.6 secs

     total energy              =     -19.15275901 Ry
     estimated scf accuracy    <       0.00615674 Ry

     iteration #  9     ecut=    50.00 Ry     beta= 0.01
     Davidson diagonalization with overlap
     ethr =  7.70E-05,  avg # of iterations =  1.0

     total cpu time spent up to now is       18.2 secs

     total energy              =     -19.15286767 Ry
     estimated scf accuracy    <       0.00731525 Ry

     iteration # 10     ecut=    50.00 Ry     beta= 0.01
     Davidson diagonalization with overlap
     ethr =  7.70E-05,  avg # of iterations =  1.0

     total cpu time spent up to now is       20.0 secs

     total energy              =     -19.15249719 Ry
     estimated scf accuracy    <       0.00901895 Ry

     iteration # 11     ecut=    50.00 Ry     beta= 0.01
     Davidson diagonalization with overlap
     ethr =  7.70E-05,  avg # of iterations =  1.5

     total cpu time spent up to now is       21.7 secs

     total energy              =     -19.15303414 Ry
     estimated scf accuracy    <       0.00167520 Ry

     iteration # 12     ecut=    50.00 Ry     beta= 0.01
     Davidson diagonalization with overlap
     ethr =  2.09E-05,  avg # of iterations =  1.0

     total cpu time spent up to now is       23.1 secs

     total energy              =     -19.15307217 Ry
     estimated scf accuracy    <       0.00208000 Ry

     iteration # 13     ecut=    50.00 Ry     beta= 0.01
     Davidson diagonalization with overlap
     ethr =  2.09E-05,  avg # of iterations =  1.0

     total cpu time spent up to now is       24.9 secs

     total energy              =     -19.15309534 Ry
     estimated scf accuracy    <       0.00221130 Ry

     iteration # 14     ecut=    50.00 Ry     beta= 0.01
     Davidson diagonalization with overlap
     ethr =  2.09E-05,  avg # of iterations =  1.0

     total cpu time spent up to now is       26.4 secs

     total energy              =     -19.15317846 Ry
     estimated scf accuracy    <       0.00253799 Ry

     iteration # 15     ecut=    50.00 Ry     beta= 0.01
     Davidson diagonalization with overlap
     ethr =  2.09E-05,  avg # of iterations =  1.0

     total cpu time spent up to now is       27.7 secs

     total energy              =     -19.15266090 Ry
     estimated scf accuracy    <       0.00330201 Ry

     iteration # 16     ecut=    50.00 Ry     beta= 0.01
     Davidson diagonalization with overlap
     ethr =  2.09E-05,  avg # of iterations =  1.8

     total cpu time spent up to now is       29.7 secs

     total energy              =     -19.15281998 Ry
     estimated scf accuracy    <       0.00003668 Ry

     iteration # 17     ecut=    50.00 Ry     beta= 0.01
     Davidson diagonalization with overlap
     ethr =  4.58E-07,  avg # of iterations =  2.3

     total cpu time spent up to now is       32.1 secs

     total energy              =     -19.15284232 Ry
     estimated scf accuracy    <       0.00013889 Ry

     iteration # 18     ecut=    50.00 Ry     beta= 0.01
     Davidson diagonalization with overlap
     ethr =  4.58E-07,  avg # of iterations =  2.0

     total cpu time spent up to now is       34.5 secs

     total energy              =     -19.15285908 Ry
     estimated scf accuracy    <       0.00005274 Ry

     iteration # 19     ecut=    50.00 Ry     beta= 0.01
     Davidson diagonalization with overlap
     ethr =  4.58E-07,  avg # of iterations =  1.0

     total cpu time spent up to now is       36.0 secs

     total energy              =     -19.15285771 Ry
     estimated scf accuracy    <       0.00008022 Ry

     iteration # 20     ecut=    50.00 Ry     beta= 0.01
     Davidson diagonalization with overlap
     ethr =  4.58E-07,  avg # of iterations =  1.0

     total cpu time spent up to now is       37.7 secs

     total energy              =     -19.15286362 Ry
     estimated scf accuracy    <       0.00001934 Ry

     iteration # 21     ecut=    50.00 Ry     beta= 0.01
     Davidson diagonalization with overlap
     ethr =  2.42E-07,  avg # of iterations =  1.0

     total cpu time spent up to now is       39.2 secs

     total energy              =     -19.15286444 Ry
     estimated scf accuracy    <       0.00004307 Ry

     iteration # 22     ecut=    50.00 Ry     beta= 0.01
     Davidson diagonalization with overlap
     ethr =  2.42E-07,  avg # of iterations =  1.0

     total cpu time spent up to now is       40.8 secs

     total energy              =     -19.15285963 Ry
     estimated scf accuracy    <       0.00005219 Ry

     iteration # 23     ecut=    50.00 Ry     beta= 0.01
     Davidson diagonalization with overlap
     ethr =  2.42E-07,  avg # of iterations =  1.0

     total cpu time spent up to now is       42.5 secs

     total energy              =     -19.15286788 Ry
     estimated scf accuracy    <       0.00001781 Ry

     iteration # 24     ecut=    50.00 Ry     beta= 0.01
     Davidson diagonalization with overlap
     ethr =  2.23E-07,  avg # of iterations =  1.0

     total cpu time spent up to now is       44.1 secs

     total energy              =     -19.15286771 Ry
     estimated scf accuracy    <       0.00012764 Ry

     iteration # 25     ecut=    50.00 Ry     beta= 0.01
     Davidson diagonalization with overlap
     ethr =  2.23E-07,  avg # of iterations =  1.0

     total cpu time spent up to now is       45.7 secs

     total energy              =     -19.15285523 Ry
     estimated scf accuracy    <       0.00011103 Ry

     iteration # 26     ecut=    50.00 Ry     beta= 0.01
     Davidson diagonalization with overlap
     ethr =  2.23E-07,  avg # of iterations =  2.0

     total cpu time spent up to now is       47.4 secs

     total energy              =     -19.15285694 Ry
     estimated scf accuracy    <       0.00000475 Ry

     iteration # 27     ecut=    50.00 Ry     beta= 0.01
     Davidson diagonalization with overlap
     ethr =  5.94E-08,  avg # of iterations =  1.0

     total cpu time spent up to now is       48.9 secs

     total energy              =     -19.15285708 Ry
     estimated scf accuracy    <       0.00000310 Ry

     iteration # 28     ecut=    50.00 Ry     beta= 0.01
     Davidson diagonalization with overlap
     ethr =  3.87E-08,  avg # of iterations =  2.0

     total cpu time spent up to now is       50.8 secs

     total energy              =     -19.15285736 Ry
     estimated scf accuracy    <       0.00000546 Ry

     iteration # 29     ecut=    50.00 Ry     beta= 0.01
     Davidson diagonalization with overlap
     ethr =  3.87E-08,  avg # of iterations =  1.0

     total cpu time spent up to now is       52.3 secs

     total energy              =     -19.15285717 Ry
     estimated scf accuracy    <       0.00000306 Ry

     iteration # 30     ecut=    50.00 Ry     beta= 0.01
     Davidson diagonalization with overlap
     ethr =  3.83E-08,  avg # of iterations =  1.0

     total cpu time spent up to now is       53.8 secs

     total energy              =     -19.15285819 Ry
     estimated scf accuracy    <       0.00001008 Ry

     iteration # 31     ecut=    50.00 Ry     beta= 0.01
     Davidson diagonalization with overlap
     ethr =  3.83E-08,  avg # of iterations =  2.0

     total cpu time spent up to now is       56.0 secs

     total energy              =     -19.15285911 Ry
     estimated scf accuracy    <       0.00000665 Ry

     iteration # 32     ecut=    50.00 Ry     beta= 0.01
     Davidson diagonalization with overlap
     ethr =  3.83E-08,  avg # of iterations =  1.0

     total cpu time spent up to now is       57.5 secs

     total energy              =     -19.15285840 Ry
     estimated scf accuracy    <       0.00001453 Ry

     iteration # 33     ecut=    50.00 Ry     beta= 0.01
     Davidson diagonalization with overlap
     ethr =  3.83E-08,  avg # of iterations =  1.0

     total cpu time spent up to now is       58.9 secs

     total energy              =     -19.15285850 Ry
     estimated scf accuracy    <       0.00000135 Ry

     iteration # 34     ecut=    50.00 Ry     beta= 0.01
     Davidson diagonalization with overlap
     ethr =  1.69E-08,  avg # of iterations =  2.0

     total cpu time spent up to now is       60.6 secs

     End of self-consistent calculation

          k = 0.0000 0.0000 0.0000 (   609 PWs)   bands (ev):

    -5.0147  14.1073  14.1073  14.1073

          k =-0.1000 0.1000-0.1000 (   576 PWs)   bands (ev):

    -4.7519  13.0024  13.9759  13.9759

          k =-0.2000 0.2000-0.2000 (   582 PWs)   bands (ev):

    -3.9726  10.4630  13.6494  13.6494

          k =-0.3000 0.3000-0.3000 (   595 PWs)   bands (ev):

    -2.7110   7.5292  13.3072  13.3072

          k =-0.4000 0.4000-0.4000 (   589 PWs)   bands (ev):

    -1.0860   4.7868  13.0705  13.0705

          k = 0.5000-0.5000 0.5000 (   580 PWs)   bands (ev):

     0.0884   3.2256  12.9878  12.9878

          k = 0.0000 0.2000 0.0000 (   585 PWs)   bands (ev):

    -4.6645  13.4145  13.5423  13.5423

          k =-0.1000 0.3000-0.1000 (   582 PWs)   bands (ev):

    -4.0574  11.3975  13.0323  13.5037

          k =-0.2000 0.4000-0.2000 (   594 PWs)   bands (ev):

    -2.9553   8.6286  12.6429  13.1334

          k =-0.3000 0.5000-0.3000 (   594 PWs)   bands (ev):

    -1.4347   5.8310  12.4879  12.6166

          k = 0.6000-0.4000 0.6000 (   592 PWs)   bands (ev):

     0.0977   3.6770  12.1551  12.5933

          k = 0.5000-0.3000 0.5000 (   592 PWs)   bands (ev):

    -0.3392   4.2410  11.8833  12.9243

          k = 0.4000-0.2000 0.4000 (   591 PWs)   bands (ev):

    -1.9791   6.7368  11.8796  13.3935

          k = 0.3000-0.1000 0.3000 (   586 PWs)   bands (ev):

    -3.3755   9.5575  12.1874  13.8487

          k = 0.2000 0.0000 0.2000 (   582 PWs)   bands (ev):

    -4.3169  11.9442  12.9251  14.0947

          k = 0.0000 0.4000 0.0000 (   584 PWs)   bands (ev):

    -3.6267  11.7138  12.3421  12.3421

          k =-0.1000 0.5000-0.1000 (   589 PWs)   bands (ev):

    -2.6975   9.6924  11.8323  11.9775

          k =-0.2000 0.6000-0.2000 (   594 PWs)   bands (ev):

    -1.3264   7.1545  11.1840  11.6186

          k = 0.7000-0.3000 0.7000 (   592 PWs)   bands (ev):

     0.2558   4.8442  10.3217  11.7436

          k = 0.6000-0.2000 0.6000 (   597 PWs)   bands (ev):

     0.6516   4.3486   9.7111  12.1778

          k = 0.5000-0.1000 0.5000 (   591 PWs)   bands (ev):

    -0.8111   6.3367   9.5328  12.8288

          k = 0.4000 0.0000 0.4000 (   592 PWs)   bands (ev):

    -2.2935   8.4840  10.2056  13.4925

          k = 0.0000 0.6000 0.0000 (   584 PWs)   bands (ev):

    -1.9485   9.4352  11.1911  11.1911

          k =-0.1000 0.7000-0.1000 (   591 PWs)   bands (ev):

    -0.7557   7.8468  10.2089  10.8637

          k = 0.8000-0.2000 0.8000 (   589 PWs)   bands (ev):

     0.7111   6.1243   8.6616  10.9086

          k = 0.7000-0.1000 0.7000 (   591 PWs)   bands (ev):

     1.5986   5.2212   7.5063  11.3179

          k = 0.6000-0.0000 0.6000 (   586 PWs)   bands (ev):

     0.6297   6.0851   7.4664  12.0181

          k = 0.0000 0.8000 0.0000 (   600 PWs)   bands (ev):

     0.2289   6.7609  10.4127  10.4127

          k = 0.9000-0.1000 0.9000 (   601 PWs)   bands (ev):

     1.4285   5.6046   9.2328  10.3406

          k = 0.8000 0.0000 0.8000 (   586 PWs)   bands (ev):

     2.0824   5.5014   7.3205  10.6606

          k = 0.0000-1.0000 0.0000 (   588 PWs)   bands (ev):

     1.9172   4.8599  10.1455  10.1455

          k =-0.2000 0.4000 0.0000 (   585 PWs)   bands (ev):

    -3.2886  10.2124  11.6375  13.3312

          k =-0.3000 0.5000-0.1000 (   593 PWs)   bands (ev):

    -2.0481   7.9025  10.8710  12.8394

          k = 0.6000-0.4000 0.8000 (   590 PWs)   bands (ev):

    -0.4653   5.3708  10.6844  12.2277

          k = 0.5000-0.3000 0.7000 (   592 PWs)   bands (ev):

     0.6460   3.9113  10.6896  11.9330

          k =-0.2000 0.6000 0.0000 (   594 PWs)   bands (ev):

    -1.6322   8.5611  10.4122  11.5686

          k = 0.7000-0.3000 0.9000 (   595 PWs)   bands (ev):

    -0.1884   6.6771   9.5229  10.8637

          k = 0.6000-0.2000 0.8000 (   595 PWs)   bands (ev):

     1.1792   4.9604   8.8409  10.7561

          k = 0.5000-0.1000 0.7000 (   587 PWs)   bands (ev):

     0.7858   5.4517   8.4164  11.2713

          k = 0.4000 0.0000 0.6000 (   587 PWs)   bands (ev):

    -0.7186   7.1245   8.8727  12.0997

          k = 0.8000-0.2000 1.0000 (   594 PWs)   bands (ev):

     0.4890   6.7133   9.5887   9.8381

          k = 0.7000-0.1000 0.9000 (   592 PWs)   bands (ev):

     1.7448   5.8514   7.8117   9.7927

          k = 0.6000 0.0000 0.8000 (   594 PWs)   bands (ev):

     1.8800   6.0444   6.6300  10.3526

          k =-0.2000-1.0000 0.0000 (   604 PWs)   bands (ev):

     2.0517   5.1849   9.2122   9.3179

          k = 0.6000-0.2000 1.0000 (   587 PWs)   bands (ev):

     1.1736   6.3079   7.9950   9.6513

          k = 0.5000-0.1000 0.9000 (   596 PWs)   bands (ev):

     1.9869   5.8361   7.5241   9.0926

          k =-0.4000-1.0000 0.0000 (   598 PWs)   bands (ev):

     2.3015   6.1059   7.7393   8.0904

     highest occupied level (ev):    14.1073

!    total energy              =     -19.15285869 Ry
     estimated scf accuracy    <       0.00000042 Ry

     The total energy is the sum of the following terms:
     one-electron contribution =       8.81659526 Ry
     hartree contribution      =       2.15609031 Ry
     xc contribution           =      -6.64726345 Ry
     ewald contribution        =     -23.47828080 Ry

     convergence has been achieved in  34 iterations
     Writing meta-gga kinetic term

     Writing all to output data dir ./input_pw/SiC/2/pwscf.save/
     Writing meta-gga kinetic term
 
     init_run     :      0.99s CPU      2.31s WALL (       1 calls)
     electrons    :     24.12s CPU     58.15s WALL (       1 calls)

     Called by init_run:
     wfcinit      :      0.86s CPU      1.98s WALL (       1 calls)
     potinit      :      0.01s CPU      0.03s WALL (       1 calls)
     hinit0       :      0.10s CPU      0.27s WALL (       1 calls)

     Called by electrons:
     c_bands      :     19.13s CPU     45.86s WALL (      34 calls)
     sum_band     :      4.48s CPU     10.92s WALL (      34 calls)
     v_of_rho     :      0.29s CPU      0.79s WALL (      35 calls)
     mix_rho      :      0.22s CPU      0.52s WALL (      34 calls)

     Called by c_bands:
     init_us_2    :      0.26s CPU      0.40s WALL (    3243 calls)
     init_us_2:cp :      0.25s CPU      0.39s WALL (    3243 calls)
     cegterg      :     18.87s CPU     45.30s WALL (    1598 calls)

     Called by *egterg:
     cdiaghg      :      0.19s CPU      0.53s WALL (    3700 calls)
     h_psi        :     19.15s CPU     45.99s WALL (    3747 calls)
     g_psi        :      0.02s CPU      0.02s WALL (    2102 calls)

     Called by h_psi:
     h_psi:calbec :      0.07s CPU      0.17s WALL (    3747 calls)
     vloc_psi     :      4.71s CPU     11.21s WALL (    3747 calls)
     add_vuspsi   :      0.08s CPU      0.10s WALL (    3747 calls)
     h_psi_meta   :     14.24s CPU     34.40s WALL (    3747 calls)

     General routines
     calbec       :      0.06s CPU      0.15s WALL (    3747 calls)
     fft          :      0.06s CPU      0.12s WALL (     417 calls)
     ffts         :      0.10s CPU      0.19s WALL (     681 calls)
     fftw         :     20.70s CPU     50.16s WALL (  144928 calls)
     interpolate  :      0.00s CPU      0.00s WALL (      35 calls)
 
     Parallel routines
 
     PWSCF        :     25.18s CPU   1m 0.65s WALL

 
   This run was terminated on:  12: 3:30  14Mar2023            

=------------------------------------------------------------------------------=
   JOB DONE.
=------------------------------------------------------------------------------=
