
     Program PWSCF v.7.0 starts on 29Mar2023 at 12:56: 4 

     This program is part of the open-source Quantum ESPRESSO suite
     for quantum simulation of materials; please cite
         "P. Giannozzi et al., J. Phys.:Condens. Matter 21 395502 (2009);
         "P. Giannozzi et al., J. Phys.:Condens. Matter 29 465901 (2017);
         "P. Giannozzi et al., J. Chem. Phys. 152 154105 (2020);
          URL http://www.quantum-espresso.org", 
     in publications or presentations arising from this work. More details at
     http://www.quantum-espresso.org/quote

     Parallel version (MPI), running on     1 processors

     MPI processes distributed on     1 nodes
     23520 MiB available memory on the printing compute node when the environment starts
 
     Waiting for input...
     Reading input from standard input
Warning: card &CELL ignored
Warning: card / ignored

     Current dimensions of program PWSCF are:
     Max number of different atomic species (ntypx) = 10
     Max number of k-points (npk) =  40000
     Max angular momentum in pseudopotentials (lmaxx) =  4
     file Si.SCAN.UPF2: wavefunction(s)  0D renormalized

     WARNING: the MGGA functional with ID    5 has been 
     read together with other dft terms, but it should 
     stand alone in order to work properly. The other 
     terms will be ignored.

     WARNING: the MGGA functional with ID    5 has been 
     read together with other dft terms, but it should 
     stand alone in order to work properly. The other 
     terms will be ignored.

     Subspace diagonalization in iterative solution of the eigenvalue problem:
     a serial algorithm will be used

 
     G-vector sticks info
     --------------------
     sticks:   dense  smooth     PW     G-vecs:    dense   smooth      PW
     Sum         361     361    121                 4573     4573     893
 
     Using Slab Decomposition
 


     bravais-lattice index     =            2
     lattice parameter (alat)  =       7.2565  a.u.
     unit-cell volume          =      95.5279 (a.u.)^3
     number of atoms/cell      =            2
     number of atomic types    =            2
     number of electrons       =         8.00
     number of Kohn-Sham states=            4
     kinetic-energy cutoff     =      50.0000  Ry
     charge density cutoff     =     200.0000  Ry
     scf convergence threshold =      1.0E-06
     mixing beta               =       0.0100
     number of iterations used =            8  local-TF  mixing
     Exchange-correlation= SLA  PW   SCAN SCAN
                           (   0   0   0   0   0 263 267)

     celldm(1)=   7.256548  celldm(2)=   0.000000  celldm(3)=   0.000000
     celldm(4)=   0.000000  celldm(5)=   0.000000  celldm(6)=   0.000000

     crystal axes: (cart. coord. in units of alat)
               a(1) = (  -0.500000   0.000000   0.500000 )  
               a(2) = (   0.000000   0.500000   0.500000 )  
               a(3) = (  -0.500000   0.500000   0.000000 )  

     reciprocal axes: (cart. coord. in units 2 pi/alat)
               b(1) = ( -1.000000 -1.000000  1.000000 )  
               b(2) = (  1.000000  1.000000  1.000000 )  
               b(3) = ( -1.000000  1.000000 -1.000000 )  


     PseudoPot. # 1 for Si read from file:
     ~/Documents/TA/PWDFT.jl/pseudopotentials/scan_upf/Si.SCAN.UPF2
     MD5 check sum: Not computed, couldn't open file
     Pseudo is Norm-conserving, Zval =  4.0
     Generated by new atomic code, or converted to UPF format
     Using radial grid of 1475 points,  2 beta functions with: 
                l(1) =   0
                l(2) =   1

     PseudoPot. # 2 for C  read from file:
     ~/Documents/TA/PWDFT.jl/pseudopotentials/scan_upf/C.SCAN.UPF2
     MD5 check sum: Not computed, couldn't open file
     Pseudo is Norm-conserving, Zval =  4.0
     Generated by new atomic code, or converted to UPF format
     Using radial grid of 1389 points,  1 beta functions with: 
                l(1) =   0

     atomic species   valence    mass     pseudopotential
        Si             4.00    28.08550     Si( 1.00)
        C              4.00    12.01100     C ( 1.00)

     24 Sym. Ops. (no inversion) found



   Cartesian axes

     site n.     atom                  positions (alat units)
         1           Si  tau(   1) = (   0.0000000   0.0000000   0.0000000  )
         2           C   tau(   2) = (   0.2500000   0.2500000   0.2500000  )

     number of k points=    47
                       cart. coord. in units 2pi/alat
        k(    1) = (   0.0000000   0.0000000   0.0000000), wk =   0.0020000
        k(    2) = (  -0.1000000   0.1000000  -0.1000000), wk =   0.0160000
        k(    3) = (  -0.2000000   0.2000000  -0.2000000), wk =   0.0160000
        k(    4) = (  -0.3000000   0.3000000  -0.3000000), wk =   0.0160000
        k(    5) = (  -0.4000000   0.4000000  -0.4000000), wk =   0.0160000
        k(    6) = (   0.5000000  -0.5000000   0.5000000), wk =   0.0080000
        k(    7) = (   0.0000000   0.2000000   0.0000000), wk =   0.0120000
        k(    8) = (  -0.1000000   0.3000000  -0.1000000), wk =   0.0480000
        k(    9) = (  -0.2000000   0.4000000  -0.2000000), wk =   0.0480000
        k(   10) = (  -0.3000000   0.5000000  -0.3000000), wk =   0.0480000
        k(   11) = (   0.6000000  -0.4000000   0.6000000), wk =   0.0480000
        k(   12) = (   0.5000000  -0.3000000   0.5000000), wk =   0.0480000
        k(   13) = (   0.4000000  -0.2000000   0.4000000), wk =   0.0480000
        k(   14) = (   0.3000000  -0.1000000   0.3000000), wk =   0.0480000
        k(   15) = (   0.2000000   0.0000000   0.2000000), wk =   0.0240000
        k(   16) = (   0.0000000   0.4000000   0.0000000), wk =   0.0120000
        k(   17) = (  -0.1000000   0.5000000  -0.1000000), wk =   0.0480000
        k(   18) = (  -0.2000000   0.6000000  -0.2000000), wk =   0.0480000
        k(   19) = (   0.7000000  -0.3000000   0.7000000), wk =   0.0480000
        k(   20) = (   0.6000000  -0.2000000   0.6000000), wk =   0.0480000
        k(   21) = (   0.5000000  -0.1000000   0.5000000), wk =   0.0480000
        k(   22) = (   0.4000000   0.0000000   0.4000000), wk =   0.0240000
        k(   23) = (   0.0000000   0.6000000   0.0000000), wk =   0.0120000
        k(   24) = (  -0.1000000   0.7000000  -0.1000000), wk =   0.0480000
        k(   25) = (   0.8000000  -0.2000000   0.8000000), wk =   0.0480000
        k(   26) = (   0.7000000  -0.1000000   0.7000000), wk =   0.0480000
        k(   27) = (   0.6000000  -0.0000000   0.6000000), wk =   0.0240000
        k(   28) = (   0.0000000   0.8000000   0.0000000), wk =   0.0120000
        k(   29) = (   0.9000000  -0.1000000   0.9000000), wk =   0.0480000
        k(   30) = (   0.8000000   0.0000000   0.8000000), wk =   0.0240000
        k(   31) = (   0.0000000  -1.0000000   0.0000000), wk =   0.0060000
        k(   32) = (  -0.2000000   0.4000000   0.0000000), wk =   0.0480000
        k(   33) = (  -0.3000000   0.5000000  -0.1000000), wk =   0.0960000
        k(   34) = (   0.6000000  -0.4000000   0.8000000), wk =   0.0960000
        k(   35) = (   0.5000000  -0.3000000   0.7000000), wk =   0.0480000
        k(   36) = (  -0.2000000   0.6000000   0.0000000), wk =   0.0480000
        k(   37) = (   0.7000000  -0.3000000   0.9000000), wk =   0.0960000
        k(   38) = (   0.6000000  -0.2000000   0.8000000), wk =   0.0960000
        k(   39) = (   0.5000000  -0.1000000   0.7000000), wk =   0.0960000
        k(   40) = (   0.4000000   0.0000000   0.6000000), wk =   0.0480000
        k(   41) = (   0.8000000  -0.2000000   1.0000000), wk =   0.0480000
        k(   42) = (   0.7000000  -0.1000000   0.9000000), wk =   0.0960000
        k(   43) = (   0.6000000   0.0000000   0.8000000), wk =   0.0480000
        k(   44) = (  -0.2000000  -1.0000000   0.0000000), wk =   0.0240000
        k(   45) = (   0.6000000  -0.2000000   1.0000000), wk =   0.0480000
        k(   46) = (   0.5000000  -0.1000000   0.9000000), wk =   0.0480000
        k(   47) = (  -0.4000000  -1.0000000   0.0000000), wk =   0.0240000

     Dense  grid:     4573 G-vectors     FFT dimensions: (  24,  24,  24)

     Estimated max dynamical RAM per process >       8.81 MB

     WARNING: libxc functional with ID  263 depends
      on external parameters: check the user_guide of
      QE if you need to modify them or to check their
      default values.

     Initial potential from superposition of free atoms

     starting charge       7.9995, renormalised to       8.0000
     Starting wfcs are   13 randomized atomic wfcs

     total cpu time spent up to now is        1.8 secs

     Self-consistent Calculation

     iteration #  1     ecut=    50.00 Ry     beta= 0.01
     Davidson diagonalization with overlap
     ethr =  1.00E-02,  avg # of iterations =  2.0

     total cpu time spent up to now is        3.6 secs

     total energy              =     -19.24314880 Ry
     estimated scf accuracy    <       3.30067161 Ry

     iteration #  2     ecut=    50.00 Ry     beta= 0.01
     Davidson diagonalization with overlap
     ethr =  1.00E-02,  avg # of iterations =  1.0

     total cpu time spent up to now is        4.9 secs

     total energy              =     -19.07040514 Ry
     estimated scf accuracy    <       3.21639031 Ry

     iteration #  3     ecut=    50.00 Ry     beta= 0.01
     Davidson diagonalization with overlap
     ethr =  1.00E-02,  avg # of iterations =  1.0

     total cpu time spent up to now is        6.2 secs

     total energy              =     -19.09020677 Ry
     estimated scf accuracy    <       0.19634331 Ry

     iteration #  4     ecut=    50.00 Ry     beta= 0.01
     Davidson diagonalization with overlap
     ethr =  2.45E-03,  avg # of iterations =  1.1

     total cpu time spent up to now is        7.5 secs

     total energy              =     -19.10341044 Ry
     estimated scf accuracy    <       0.05766958 Ry

     iteration #  5     ecut=    50.00 Ry     beta= 0.01
     Davidson diagonalization with overlap
     ethr =  7.21E-04,  avg # of iterations =  1.0

     total cpu time spent up to now is        8.8 secs

     total energy              =     -19.11652953 Ry
     estimated scf accuracy    <       0.05667625 Ry

     iteration #  6     ecut=    50.00 Ry     beta= 0.01
     Davidson diagonalization with overlap
     ethr =  7.08E-04,  avg # of iterations =  1.0

     total cpu time spent up to now is       10.1 secs

     total energy              =     -19.10852962 Ry
     estimated scf accuracy    <       0.10614715 Ry

     iteration #  7     ecut=    50.00 Ry     beta= 0.01
     Davidson diagonalization with overlap
     ethr =  7.08E-04,  avg # of iterations =  2.0

     total cpu time spent up to now is       11.8 secs

     total energy              =     -19.11669665 Ry
     estimated scf accuracy    <       0.00451461 Ry

     iteration #  8     ecut=    50.00 Ry     beta= 0.01
     Davidson diagonalization with overlap
     ethr =  5.64E-05,  avg # of iterations =  2.0

     total cpu time spent up to now is       13.5 secs

     total energy              =     -19.11777321 Ry
     estimated scf accuracy    <       0.00701015 Ry

     iteration #  9     ecut=    50.00 Ry     beta= 0.01
     Davidson diagonalization with overlap
     ethr =  5.64E-05,  avg # of iterations =  1.0

     total cpu time spent up to now is       14.8 secs

     total energy              =     -19.11758942 Ry
     estimated scf accuracy    <       0.00926889 Ry

     iteration # 10     ecut=    50.00 Ry     beta= 0.01
     Davidson diagonalization with overlap
     ethr =  5.64E-05,  avg # of iterations =  1.0

     total cpu time spent up to now is       16.1 secs

     total energy              =     -19.11750253 Ry
     estimated scf accuracy    <       0.00451225 Ry

     iteration # 11     ecut=    50.00 Ry     beta= 0.01
     Davidson diagonalization with overlap
     ethr =  5.64E-05,  avg # of iterations =  1.3

     total cpu time spent up to now is       17.4 secs

     total energy              =     -19.11782742 Ry
     estimated scf accuracy    <       0.00118378 Ry

     iteration # 12     ecut=    50.00 Ry     beta= 0.01
     Davidson diagonalization with overlap
     ethr =  1.48E-05,  avg # of iterations =  1.0

     total cpu time spent up to now is       18.8 secs

     total energy              =     -19.11784367 Ry
     estimated scf accuracy    <       0.00119707 Ry

     iteration # 13     ecut=    50.00 Ry     beta= 0.01
     Davidson diagonalization with overlap
     ethr =  1.48E-05,  avg # of iterations =  1.0

     total cpu time spent up to now is       20.1 secs

     total energy              =     -19.11778997 Ry
     estimated scf accuracy    <       0.00115790 Ry

     iteration # 14     ecut=    50.00 Ry     beta= 0.01
     Davidson diagonalization with overlap
     ethr =  1.45E-05,  avg # of iterations =  1.0

     total cpu time spent up to now is       21.4 secs

     total energy              =     -19.11771299 Ry
     estimated scf accuracy    <       0.00066183 Ry

     iteration # 15     ecut=    50.00 Ry     beta= 0.01
     Davidson diagonalization with overlap
     ethr =  8.27E-06,  avg # of iterations =  1.0

     total cpu time spent up to now is       22.7 secs

     total energy              =     -19.11773642 Ry
     estimated scf accuracy    <       0.00003119 Ry

     iteration # 16     ecut=    50.00 Ry     beta= 0.01
     Davidson diagonalization with overlap
     ethr =  3.90E-07,  avg # of iterations =  1.2

     total cpu time spent up to now is       24.1 secs

     total energy              =     -19.11773833 Ry
     estimated scf accuracy    <       0.00002597 Ry

     iteration # 17     ecut=    50.00 Ry     beta= 0.01
     Davidson diagonalization with overlap
     ethr =  3.25E-07,  avg # of iterations =  1.0

     total cpu time spent up to now is       25.4 secs

     total energy              =     -19.11774338 Ry
     estimated scf accuracy    <       0.00002163 Ry

     iteration # 18     ecut=    50.00 Ry     beta= 0.01
     Davidson diagonalization with overlap
     ethr =  2.70E-07,  avg # of iterations =  1.0

     total cpu time spent up to now is       26.7 secs

     total energy              =     -19.11774449 Ry
     estimated scf accuracy    <       0.00008296 Ry

     iteration # 19     ecut=    50.00 Ry     beta= 0.01
     Davidson diagonalization with overlap
     ethr =  2.70E-07,  avg # of iterations =  1.0

     total cpu time spent up to now is       28.0 secs

     total energy              =     -19.11773799 Ry
     estimated scf accuracy    <       0.00008095 Ry

     iteration # 20     ecut=    50.00 Ry     beta= 0.01
     Davidson diagonalization with overlap
     ethr =  2.70E-07,  avg # of iterations =  2.0

     total cpu time spent up to now is       29.8 secs

     total energy              =     -19.11774224 Ry
     estimated scf accuracy    <       0.00000507 Ry

     iteration # 21     ecut=    50.00 Ry     beta= 0.01
     Davidson diagonalization with overlap
     ethr =  6.34E-08,  avg # of iterations =  1.0

     total cpu time spent up to now is       31.2 secs

     End of self-consistent calculation

          k = 0.0000 0.0000 0.0000 (   537 PWs)   bands (ev):

    -4.7886  14.6759  14.6759  14.6759

          k =-0.1000 0.1000-0.1000 (   555 PWs)   bands (ev):

    -4.5192  13.5444  14.5339  14.5339

          k =-0.2000 0.2000-0.2000 (   564 PWs)   bands (ev):

    -3.7196  10.9726  14.2070  14.2070

          k =-0.3000 0.3000-0.3000 (   571 PWs)   bands (ev):

    -2.4236   7.9854  13.8665  13.8665

          k =-0.4000 0.4000-0.4000 (   586 PWs)   bands (ev):

    -0.7463   5.1691  13.6269  13.6269

          k = 0.5000-0.5000 0.5000 (   568 PWs)   bands (ev):

     0.4892   3.5412  13.5472  13.5472

          k = 0.0000 0.2000 0.0000 (   564 PWs)   bands (ev):

    -4.4295  13.9701  14.0924  14.0924

          k =-0.1000 0.3000-0.1000 (   565 PWs)   bands (ev):

    -3.8069  11.9249  13.5749  14.0659

          k =-0.2000 0.4000-0.2000 (   575 PWs)   bands (ev):

    -2.6752   9.1094  13.1844  13.6967

          k =-0.3000 0.5000-0.3000 (   575 PWs)   bands (ev):

    -1.1090   6.2457  13.0335  13.1759

          k = 0.6000-0.4000 0.6000 (   573 PWs)   bands (ev):

     0.4908   4.0141  12.7058  13.1439

          k = 0.5000-0.3000 0.5000 (   575 PWs)   bands (ev):

     0.0298   4.6042  12.4243  13.4822

          k = 0.4000-0.2000 0.4000 (   571 PWs)   bands (ev):

    -1.6704   7.1756  12.4154  13.9577

          k = 0.3000-0.1000 0.3000 (   570 PWs)   bands (ev):

    -3.1069  10.0551  12.7217  14.4153

          k = 0.2000 0.0000 0.2000 (   559 PWs)   bands (ev):

    -4.0730  12.4799  13.4684  14.6592

          k = 0.0000 0.4000 0.0000 (   572 PWs)   bands (ev):

    -3.3650  12.2705  12.8731  12.8731

          k =-0.1000 0.5000-0.1000 (   572 PWs)   bands (ev):

    -2.4111  10.2073  12.3567  12.5221

          k =-0.2000 0.6000-0.2000 (   572 PWs)   bands (ev):

    -1.0005   7.6093  11.7224  12.1443

          k = 0.7000-0.3000 0.7000 (   570 PWs)   bands (ev):

     0.6418   5.2260  10.8420  12.2736

          k = 0.6000-0.2000 0.6000 (   572 PWs)   bands (ev):

     1.0605   4.7049  10.2154  12.7197

          k = 0.5000-0.1000 0.5000 (   570 PWs)   bands (ev):

    -0.4670   6.7663  10.0259  13.3858

          k = 0.4000 0.0000 0.4000 (   562 PWs)   bands (ev):

    -1.9949   8.9688  10.7070  14.0625

          k = 0.0000 0.6000 0.0000 (   568 PWs)   bands (ev):

    -1.6419   9.9744  11.7026  11.7026

          k =-0.1000 0.7000-0.1000 (   573 PWs)   bands (ev):

    -0.4150   8.3483  10.7036  11.3741

          k = 0.8000-0.2000 0.8000 (   570 PWs)   bands (ev):

     1.1042   6.5661   9.1228  11.4226

          k = 0.7000-0.1000 0.7000 (   571 PWs)   bands (ev):

     2.0424   5.6050   7.9474  11.8403

          k = 0.6000-0.0000 0.6000 (   572 PWs)   bands (ev):

     1.0254   6.5073   7.9056  12.5561

          k = 0.0000 0.8000 0.0000 (   568 PWs)   bands (ev):

     0.5997   7.2424  10.9164  10.9164

          k = 0.9000-0.1000 0.9000 (   568 PWs)   bands (ev):

     1.8463   6.0453   9.7007  10.8446

          k = 0.8000 0.0000 0.8000 (   580 PWs)   bands (ev):

     2.5404   5.9276   7.7193  11.1659

          k = 0.0000-1.0000 0.0000 (   588 PWs)   bands (ev):

     2.3608   5.2606  10.6392  10.6392

          k =-0.2000 0.4000 0.0000 (   570 PWs)   bands (ev):

    -3.0178  10.7285  12.1586  13.8944

          k =-0.3000 0.5000-0.1000 (   571 PWs)   bands (ev):

    -1.7426   8.3721  11.3885  13.3967

          k = 0.6000-0.4000 0.8000 (   569 PWs)   bands (ev):

    -0.1077   5.7722  11.2074  12.7699

          k = 0.5000-0.3000 0.7000 (   564 PWs)   bands (ev):

     1.0613   4.2497  11.2198  12.4673

          k =-0.2000 0.6000 0.0000 (   573 PWs)   bands (ev):

    -1.3160   9.0652  10.9136  12.0975

          k = 0.7000-0.3000 0.9000 (   570 PWs)   bands (ev):

     0.1734   7.1278  10.0208  11.3689

          k = 0.6000-0.2000 0.8000 (   570 PWs)   bands (ev):

     1.6036   5.3381   9.3283  11.2587

          k = 0.5000-0.1000 0.7000 (   569 PWs)   bands (ev):

     1.1896   5.8494   8.8881  11.7890

          k = 0.4000 0.0000 0.6000 (   568 PWs)   bands (ev):

    -0.3731   7.5829   9.3459  12.6386

          k = 0.8000-0.2000 1.0000 (   577 PWs)   bands (ev):

     0.8703   7.1901  10.0778  10.3058

          k = 0.7000-0.1000 0.9000 (   574 PWs)   bands (ev):

     2.1828   6.2923   8.2357  10.2715

          k = 0.6000 0.0000 0.8000 (   569 PWs)   bands (ev):

     2.3331   6.4897   7.0118  10.8483

          k =-0.2000-1.0000 0.0000 (   578 PWs)   bands (ev):

     2.5038   5.5994   9.6695   9.7963

          k = 0.6000-0.2000 1.0000 (   565 PWs)   bands (ev):

     1.5868   6.7537   8.4471  10.1182

          k = 0.5000-0.1000 0.9000 (   570 PWs)   bands (ev):

     2.4441   6.2494   7.9697   9.5418

          k =-0.4000-1.0000 0.0000 (   568 PWs)   bands (ev):

     2.7709   6.5631   8.1655   8.5016

     highest occupied level (ev):    14.6759

!    total energy              =     -19.11774265 Ry
     estimated scf accuracy    <       0.00000044 Ry

     The total energy is the sum of the following terms:
     one-electron contribution =       9.20901899 Ry
     hartree contribution      =       2.13529712 Ry
     xc contribution           =      -6.70730235 Ry
     ewald contribution        =     -23.75475640 Ry

     convergence has been achieved in  21 iterations
     Writing meta-gga kinetic term

     Writing all to output data dir ./input_pw/SiC/2/pwscf.save/
     Writing meta-gga kinetic term
 
     init_run     :      0.91s CPU      1.73s WALL (       1 calls)
     electrons    :     14.54s CPU     29.36s WALL (       1 calls)

     Called by init_run:
     wfcinit      :      0.80s CPU      1.53s WALL (       1 calls)
     potinit      :      0.01s CPU      0.03s WALL (       1 calls)
     hinit0       :      0.09s CPU      0.16s WALL (       1 calls)

     Called by electrons:
     c_bands      :     11.49s CPU     23.23s WALL (      21 calls)
     sum_band     :      2.76s CPU      5.51s WALL (      21 calls)
     v_of_rho     :      0.18s CPU      0.35s WALL (      22 calls)
     mix_rho      :      0.12s CPU      0.28s WALL (      21 calls)

     Called by c_bands:
     init_us_2    :      0.15s CPU      0.28s WALL (    2021 calls)
     init_us_2:cp :      0.15s CPU      0.27s WALL (    2021 calls)
     cegterg      :     11.34s CPU     22.93s WALL (     987 calls)

     Called by *egterg:
     cdiaghg      :      0.10s CPU      0.13s WALL (    2192 calls)
     h_psi        :     11.82s CPU     23.90s WALL (    2239 calls)
     g_psi        :      0.01s CPU      0.01s WALL (    1205 calls)

     Called by h_psi:
     h_psi:calbec :      0.04s CPU      0.07s WALL (    2239 calls)
     vloc_psi     :      2.91s CPU      5.90s WALL (    2239 calls)
     add_vuspsi   :      0.04s CPU      0.11s WALL (    2239 calls)
     h_psi_meta   :      8.79s CPU     17.73s WALL (    2239 calls)

     General routines
     calbec       :      0.03s CPU      0.06s WALL (    2239 calls)
     fft          :      0.04s CPU      0.09s WALL (     261 calls)
     ffts         :      0.06s CPU      0.14s WALL (     410 calls)
     fftw         :     12.88s CPU     26.13s WALL (   89640 calls)
     interpolate  :      0.00s CPU      0.00s WALL (      22 calls)
 
     Parallel routines
 
     PWSCF        :     15.50s CPU     31.19s WALL

 
   This run was terminated on:  12:56:35  29Mar2023            

=------------------------------------------------------------------------------=
   JOB DONE.
=------------------------------------------------------------------------------=
