
     Program PWSCF v.7.0 starts on 29Mar2023 at 10:21:34 

     This program is part of the open-source Quantum ESPRESSO suite
     for quantum simulation of materials; please cite
         "P. Giannozzi et al., J. Phys.:Condens. Matter 21 395502 (2009);
         "P. Giannozzi et al., J. Phys.:Condens. Matter 29 465901 (2017);
         "P. Giannozzi et al., J. Chem. Phys. 152 154105 (2020);
          URL http://www.quantum-espresso.org", 
     in publications or presentations arising from this work. More details at
     http://www.quantum-espresso.org/quote

     Parallel version (MPI), running on     1 processors

     MPI processes distributed on     1 nodes
     23989 MiB available memory on the printing compute node when the environment starts
 
     Waiting for input...
     Reading input from standard input
Warning: card &CELL ignored
Warning: card / ignored

     Current dimensions of program PWSCF are:
     Max number of different atomic species (ntypx) = 10
     Max number of k-points (npk) =  40000
     Max angular momentum in pseudopotentials (lmaxx) =  4
     file Cl.SCAN.UPF2: wavefunction(s)  0D renormalized

     WARNING: the MGGA functional with ID    5 has been 
     read together with other dft terms, but it should 
     stand alone in order to work properly. The other 
     terms will be ignored.

     WARNING: the MGGA functional with ID    5 has been 
     read together with other dft terms, but it should 
     stand alone in order to work properly. The other 
     terms will be ignored.

     Subspace diagonalization in iterative solution of the eigenvalue problem:
     a serial algorithm will be used

 
     G-vector sticks info
     --------------------
     sticks:   dense  smooth     PW     G-vecs:    dense   smooth      PW
     Sum         793     793    241                14649    14649    2445
 
     Using Slab Decomposition
 


     bravais-lattice index     =            2
     lattice parameter (alat)  =      10.7147  a.u.
     unit-cell volume          =     307.5219 (a.u.)^3
     number of atoms/cell      =            2
     number of atomic types    =            2
     number of electrons       =         8.00
     number of Kohn-Sham states=            4
     kinetic-energy cutoff     =      50.0000  Ry
     charge density cutoff     =     200.0000  Ry
     scf convergence threshold =      1.0E-06
     mixing beta               =       0.0100
     number of iterations used =            8  local-TF  mixing
     Exchange-correlation= SLA  PW   SCAN SCAN
                           (   0   0   0   0   0 263 267)

     celldm(1)=  10.714667  celldm(2)=   0.000000  celldm(3)=   0.000000
     celldm(4)=   0.000000  celldm(5)=   0.000000  celldm(6)=   0.000000

     crystal axes: (cart. coord. in units of alat)
               a(1) = (  -0.500000   0.000000   0.500000 )  
               a(2) = (   0.000000   0.500000   0.500000 )  
               a(3) = (  -0.500000   0.500000   0.000000 )  

     reciprocal axes: (cart. coord. in units 2 pi/alat)
               b(1) = ( -1.000000 -1.000000  1.000000 )  
               b(2) = (  1.000000  1.000000  1.000000 )  
               b(3) = ( -1.000000  1.000000 -1.000000 )  


     PseudoPot. # 1 for Li read from file:
     ~/Documents/TA/PWDFT.jl/pseudopotentials/scan_upf/Li.SCAN.UPF2
     MD5 check sum: Not computed, couldn't open file
     Pseudo is Norm-conserving, Zval =  1.0
     Generated by new atomic code, or converted to UPF format
     Using radial grid of 1321 points,  1 beta functions with: 
                l(1) =   0

     PseudoPot. # 2 for Cl read from file:
     ~/Documents/TA/PWDFT.jl/pseudopotentials/scan_upf/Cl.SCAN.UPF2
     MD5 check sum: Not computed, couldn't open file
     Pseudo is Norm-conserving, Zval =  7.0
     Generated by new atomic code, or converted to UPF format
     Using radial grid of 1493 points,  2 beta functions with: 
                l(1) =   0
                l(2) =   1

     atomic species   valence    mass     pseudopotential
        Li             1.00     6.94100     Li( 1.00)
        Cl             7.00    35.45300     Cl( 1.00)

     48 Sym. Ops., with inversion, found



   Cartesian axes

     site n.     atom                  positions (alat units)
         1           Li  tau(   1) = (   0.0000000   0.0000000   0.0000000  )
         2           Cl  tau(   2) = (   0.5000000   0.5000000   0.5000000  )

     number of k points=    47
                       cart. coord. in units 2pi/alat
        k(    1) = (   0.0000000   0.0000000   0.0000000), wk =   0.0020000
        k(    2) = (  -0.1000000   0.1000000  -0.1000000), wk =   0.0160000
        k(    3) = (  -0.2000000   0.2000000  -0.2000000), wk =   0.0160000
        k(    4) = (  -0.3000000   0.3000000  -0.3000000), wk =   0.0160000
        k(    5) = (  -0.4000000   0.4000000  -0.4000000), wk =   0.0160000
        k(    6) = (   0.5000000  -0.5000000   0.5000000), wk =   0.0080000
        k(    7) = (   0.0000000   0.2000000   0.0000000), wk =   0.0120000
        k(    8) = (  -0.1000000   0.3000000  -0.1000000), wk =   0.0480000
        k(    9) = (  -0.2000000   0.4000000  -0.2000000), wk =   0.0480000
        k(   10) = (  -0.3000000   0.5000000  -0.3000000), wk =   0.0480000
        k(   11) = (   0.6000000  -0.4000000   0.6000000), wk =   0.0480000
        k(   12) = (   0.5000000  -0.3000000   0.5000000), wk =   0.0480000
        k(   13) = (   0.4000000  -0.2000000   0.4000000), wk =   0.0480000
        k(   14) = (   0.3000000  -0.1000000   0.3000000), wk =   0.0480000
        k(   15) = (   0.2000000   0.0000000   0.2000000), wk =   0.0240000
        k(   16) = (   0.0000000   0.4000000   0.0000000), wk =   0.0120000
        k(   17) = (  -0.1000000   0.5000000  -0.1000000), wk =   0.0480000
        k(   18) = (  -0.2000000   0.6000000  -0.2000000), wk =   0.0480000
        k(   19) = (   0.7000000  -0.3000000   0.7000000), wk =   0.0480000
        k(   20) = (   0.6000000  -0.2000000   0.6000000), wk =   0.0480000
        k(   21) = (   0.5000000  -0.1000000   0.5000000), wk =   0.0480000
        k(   22) = (   0.4000000   0.0000000   0.4000000), wk =   0.0240000
        k(   23) = (   0.0000000   0.6000000   0.0000000), wk =   0.0120000
        k(   24) = (  -0.1000000   0.7000000  -0.1000000), wk =   0.0480000
        k(   25) = (   0.8000000  -0.2000000   0.8000000), wk =   0.0480000
        k(   26) = (   0.7000000  -0.1000000   0.7000000), wk =   0.0480000
        k(   27) = (   0.6000000  -0.0000000   0.6000000), wk =   0.0240000
        k(   28) = (   0.0000000   0.8000000   0.0000000), wk =   0.0120000
        k(   29) = (   0.9000000  -0.1000000   0.9000000), wk =   0.0480000
        k(   30) = (   0.8000000   0.0000000   0.8000000), wk =   0.0240000
        k(   31) = (   0.0000000  -1.0000000   0.0000000), wk =   0.0060000
        k(   32) = (  -0.2000000   0.4000000   0.0000000), wk =   0.0480000
        k(   33) = (  -0.3000000   0.5000000  -0.1000000), wk =   0.0960000
        k(   34) = (   0.6000000  -0.4000000   0.8000000), wk =   0.0960000
        k(   35) = (   0.5000000  -0.3000000   0.7000000), wk =   0.0480000
        k(   36) = (  -0.2000000   0.6000000   0.0000000), wk =   0.0480000
        k(   37) = (   0.7000000  -0.3000000   0.9000000), wk =   0.0960000
        k(   38) = (   0.6000000  -0.2000000   0.8000000), wk =   0.0960000
        k(   39) = (   0.5000000  -0.1000000   0.7000000), wk =   0.0960000
        k(   40) = (   0.4000000   0.0000000   0.6000000), wk =   0.0480000
        k(   41) = (   0.8000000  -0.2000000   1.0000000), wk =   0.0480000
        k(   42) = (   0.7000000  -0.1000000   0.9000000), wk =   0.0960000
        k(   43) = (   0.6000000   0.0000000   0.8000000), wk =   0.0480000
        k(   44) = (  -0.2000000  -1.0000000   0.0000000), wk =   0.0240000
        k(   45) = (   0.6000000  -0.2000000   1.0000000), wk =   0.0480000
        k(   46) = (   0.5000000  -0.1000000   0.9000000), wk =   0.0480000
        k(   47) = (  -0.4000000  -1.0000000   0.0000000), wk =   0.0240000

     Dense  grid:    14649 G-vectors     FFT dimensions: (  36,  36,  36)

     Estimated max dynamical RAM per process >      28.10 MB

     WARNING: libxc functional with ID  263 depends
      on external parameters: check the user_guide of
      QE if you need to modify them or to check their
      default values.

     Initial potential from superposition of free atoms

     starting charge       7.9953, renormalised to       8.0000
     Starting wfcs are   13 randomized atomic wfcs

     total cpu time spent up to now is        6.4 secs

     Self-consistent Calculation

     iteration #  1     ecut=    50.00 Ry     beta= 0.01
     Davidson diagonalization with overlap
     ethr =  1.00E-02,  avg # of iterations =  1.0

     total cpu time spent up to now is       11.2 secs

     total energy              =     -30.64740477 Ry
     estimated scf accuracy    <       0.36144264 Ry

     iteration #  2     ecut=    50.00 Ry     beta= 0.01
     Davidson diagonalization with overlap
     ethr =  4.52E-03,  avg # of iterations =  1.0

     total cpu time spent up to now is       15.9 secs

     total energy              =     -30.68030293 Ry
     estimated scf accuracy    <       0.34402231 Ry

     iteration #  3     ecut=    50.00 Ry     beta= 0.01
     Davidson diagonalization with overlap
     ethr =  4.30E-03,  avg # of iterations =  1.0

     total cpu time spent up to now is       20.4 secs

     total energy              =     -30.72993302 Ry
     estimated scf accuracy    <       0.25398952 Ry

     iteration #  4     ecut=    50.00 Ry     beta= 0.01
     Davidson diagonalization with overlap
     ethr =  3.17E-03,  avg # of iterations =  1.0

     total cpu time spent up to now is       25.2 secs

     total energy              =     -30.73209779 Ry
     estimated scf accuracy    <       0.00643680 Ry

     iteration #  5     ecut=    50.00 Ry     beta= 0.01
     Davidson diagonalization with overlap
     ethr =  8.05E-05,  avg # of iterations =  1.0

     total cpu time spent up to now is       29.8 secs

     total energy              =     -30.73140165 Ry
     estimated scf accuracy    <       0.00619613 Ry

     iteration #  6     ecut=    50.00 Ry     beta= 0.01
     Davidson diagonalization with overlap
     ethr =  7.75E-05,  avg # of iterations =  1.0

     total cpu time spent up to now is       34.9 secs

     total energy              =     -30.72955937 Ry
     estimated scf accuracy    <       0.00466092 Ry

     iteration #  7     ecut=    50.00 Ry     beta= 0.01
     Davidson diagonalization with overlap
     ethr =  5.83E-05,  avg # of iterations =  2.0

     total cpu time spent up to now is       39.3 secs

     total energy              =     -30.73168893 Ry
     estimated scf accuracy    <       0.00321946 Ry

     iteration #  8     ecut=    50.00 Ry     beta= 0.01
     Davidson diagonalization with overlap
     ethr =  4.02E-05,  avg # of iterations =  1.0

     total cpu time spent up to now is       42.4 secs

     total energy              =     -30.73126646 Ry
     estimated scf accuracy    <       0.00306336 Ry

     iteration #  9     ecut=    50.00 Ry     beta= 0.01
     Davidson diagonalization with overlap
     ethr =  3.83E-05,  avg # of iterations =  1.0

     total cpu time spent up to now is       45.0 secs

     total energy              =     -30.73098802 Ry
     estimated scf accuracy    <       0.00156403 Ry

     iteration # 10     ecut=    50.00 Ry     beta= 0.01
     Davidson diagonalization with overlap
     ethr =  1.96E-05,  avg # of iterations =  1.9

     total cpu time spent up to now is       47.8 secs

     total energy              =     -30.73115075 Ry
     estimated scf accuracy    <       0.00001810 Ry

     iteration # 11     ecut=    50.00 Ry     beta= 0.01
     Davidson diagonalization with overlap
     ethr =  2.26E-07,  avg # of iterations =  2.0

     total cpu time spent up to now is       51.3 secs

     total energy              =     -30.73117738 Ry
     estimated scf accuracy    <       0.00003387 Ry

     iteration # 12     ecut=    50.00 Ry     beta= 0.01
     Davidson diagonalization with overlap
     ethr =  2.26E-07,  avg # of iterations =  2.0

     total cpu time spent up to now is       54.3 secs

     total energy              =     -30.73114393 Ry
     estimated scf accuracy    <       0.00008396 Ry

     iteration # 13     ecut=    50.00 Ry     beta= 0.01
     Davidson diagonalization with overlap
     ethr =  2.26E-07,  avg # of iterations =  2.0

     total cpu time spent up to now is       57.8 secs

     End of self-consistent calculation

          k = 0.0000 0.0000 0.0000 (  1837 PWs)   bands (ev):

   -14.0850  -1.0643  -1.0643  -1.0643

          k =-0.1000 0.1000-0.1000 (  1847 PWs)   bands (ev):

   -14.0591  -1.2867  -1.0805  -1.0805

          k =-0.2000 0.2000-0.2000 (  1847 PWs)   bands (ev):

   -13.9896  -1.8002  -1.1217  -1.1217

          k =-0.3000 0.3000-0.3000 (  1853 PWs)   bands (ev):

   -13.9009  -2.3453  -1.1708  -1.1708

          k =-0.4000 0.4000-0.4000 (  1850 PWs)   bands (ev):

   -13.8267  -2.7395  -1.2091  -1.2091

          k = 0.5000-0.5000 0.5000 (  1850 PWs)   bands (ev):

   -13.7977  -2.8819  -1.2234  -1.2234

          k = 0.0000 0.2000 0.0000 (  1848 PWs)   bands (ev):

   -14.0503  -1.2708  -1.1329  -1.1329

          k =-0.1000 0.3000-0.1000 (  1844 PWs)   bands (ev):

   -13.9950  -1.6607  -1.2028  -1.1625

          k =-0.2000 0.4000-0.2000 (  1848 PWs)   bands (ev):

   -13.9122  -2.1783  -1.2626  -1.2187

          k =-0.3000 0.5000-0.3000 (  1846 PWs)   bands (ev):

   -13.8324  -2.6052  -1.2999  -1.2902

          k = 0.6000-0.4000 0.6000 (  1837 PWs)   bands (ev):

   -13.7877  -2.8207  -1.3736  -1.2766

          k = 0.5000-0.3000 0.5000 (  1841 PWs)   bands (ev):

   -13.7975  -2.7724  -1.4113  -1.2270

          k = 0.4000-0.2000 0.4000 (  1854 PWs)   bands (ev):

   -13.8575  -2.4741  -1.3968  -1.1590

          k = 0.3000-0.1000 0.3000 (  1850 PWs)   bands (ev):

   -13.9421  -2.0088  -1.3278  -1.0977

          k = 0.2000 0.0000 0.2000 (  1847 PWs)   bands (ev):

   -14.0185  -1.5424  -1.2083  -1.0671

          k = 0.0000 0.4000 0.0000 (  1840 PWs)   bands (ev):

   -13.9565  -1.7579  -1.3068  -1.3068

          k =-0.1000 0.5000-0.1000 (  1846 PWs)   bands (ev):

   -13.8874  -2.1191  -1.4000  -1.3935

          k =-0.2000 0.6000-0.2000 (  1833 PWs)   bands (ev):

   -13.8125  -2.4744  -1.5378  -1.4322

          k = 0.7000-0.3000 0.7000 (  1830 PWs)   bands (ev):

   -13.7615  -2.6792  -1.6968  -1.4103

          k = 0.6000-0.2000 0.6000 (  1832 PWs)   bands (ev):

   -13.7556  -2.6796  -1.8083  -1.3352

          k = 0.5000-0.1000 0.5000 (  1840 PWs)   bands (ev):

   -13.7974  -2.4987  -1.8046  -1.2327

          k = 0.4000 0.0000 0.4000 (  1851 PWs)   bands (ev):

   -13.8691  -2.2433  -1.6279  -1.1411

          k = 0.0000 0.6000 0.0000 (  1840 PWs)   bands (ev):

   -13.8350  -2.2954  -1.5116  -1.5116

          k =-0.1000 0.7000-0.1000 (  1829 PWs)   bands (ev):

   -13.7741  -2.5281  -1.6498  -1.5758

          k = 0.8000-0.2000 0.8000 (  1829 PWs)   bands (ev):

   -13.7285  -2.6319  -1.8848  -1.5658

          k = 0.7000-0.1000 0.7000 (  1834 PWs)   bands (ev):

   -13.7166  -2.5442  -2.1464  -1.4846

          k = 0.6000-0.0000 0.6000 (  1820 PWs)   bands (ev):

   -13.7431  -2.4192  -2.1966  -1.3584

          k = 0.0000 0.8000 0.0000 (  1808 PWs)   bands (ev):

   -13.7312  -2.7002  -1.6698  -1.6698

          k = 0.9000-0.1000 0.9000 (  1820 PWs)   bands (ev):

   -13.7012  -2.7715  -1.7999  -1.6847

          k = 0.8000 0.0000 0.8000 (  1834 PWs)   bands (ev):

   -13.6957  -2.6698  -2.0394  -1.6160

          k = 0.0000-1.0000 0.0000 (  1804 PWs)   bands (ev):

   -13.6904  -2.8501  -1.7286  -1.7286

          k =-0.2000 0.4000 0.0000 (  1846 PWs)   bands (ev):

   -13.9328  -1.9584  -1.3987  -1.1832

          k =-0.3000 0.5000-0.1000 (  1844 PWs)   bands (ev):

   -13.8535  -2.3339  -1.5569  -1.2393

          k = 0.6000-0.4000 0.8000 (  1836 PWs)   bands (ev):

   -13.7875  -2.6325  -1.6364  -1.3118

          k = 0.5000-0.3000 0.7000 (  1830 PWs)   bands (ev):

   -13.7617  -2.7442  -1.6581  -1.3455

          k =-0.2000 0.6000 0.0000 (  1840 PWs)   bands (ev):

   -13.8220  -2.3579  -1.6214  -1.4268

          k = 0.7000-0.3000 0.9000 (  1838 PWs)   bands (ev):

   -13.7612  -2.5425  -1.8168  -1.4883

          k = 0.6000-0.2000 0.8000 (  1831 PWs)   bands (ev):

   -13.7292  -2.5982  -1.9835  -1.4950

          k = 0.5000-0.1000 0.7000 (  1833 PWs)   bands (ev):

   -13.7394  -2.5288  -2.0504  -1.4241

          k = 0.4000 0.0000 0.6000 (  1838 PWs)   bands (ev):

   -13.7874  -2.4360  -1.8917  -1.3180

          k = 0.8000-0.2000 1.0000 (  1825 PWs)   bands (ev):

   -13.7281  -2.6502  -1.7926  -1.6436

          k = 0.7000-0.1000 0.9000 (  1834 PWs)   bands (ev):

   -13.7021  -2.6213  -2.0231  -1.6499

          k = 0.6000 0.0000 0.8000 (  1833 PWs)   bands (ev):

   -13.7065  -2.4242  -2.2892  -1.5603

          k =-0.2000-1.0000 0.0000 (  1818 PWs)   bands (ev):

   -13.6911  -2.7589  -1.8560  -1.7271

          k = 0.6000-0.2000 1.0000 (  1834 PWs)   bands (ev):

   -13.7189  -2.5062  -2.0914  -1.5882

          k = 0.5000-0.1000 0.9000 (  1830 PWs)   bands (ev):

   -13.7026  -2.4265  -2.2496  -1.6416

          k =-0.4000-1.0000 0.0000 (  1840 PWs)   bands (ev):

   -13.6923  -2.5072  -2.1649  -1.7245

     highest occupied level (ev):    -1.0643

!    total energy              =     -30.73115507 Ry
     estimated scf accuracy    <       0.00000028 Ry

     The total energy is the sum of the following terms:
     one-electron contribution =      -8.89637898 Ry
     hartree contribution      =       7.26058958 Ry
     xc contribution           =      -6.27623632 Ry
     ewald contribution        =     -22.81912936 Ry

     convergence has been achieved in  13 iterations
     Writing meta-gga kinetic term

     Writing all to output data dir ./input_pw/LiCl/10/pwscf.save/
     Writing meta-gga kinetic term
 
     init_run     :      3.07s CPU      6.33s WALL (       1 calls)
     electrons    :     34.82s CPU     51.36s WALL (       1 calls)

     Called by init_run:
     wfcinit      :      2.92s CPU      6.01s WALL (       1 calls)
     potinit      :      0.03s CPU      0.11s WALL (       1 calls)
     hinit0       :      0.10s CPU      0.18s WALL (       1 calls)

     Called by electrons:
     c_bands      :     27.52s CPU     40.35s WALL (      13 calls)
     sum_band     :      6.50s CPU      9.80s WALL (      13 calls)
     v_of_rho     :      0.41s CPU      0.69s WALL (      14 calls)
     mix_rho      :      0.41s CPU      0.58s WALL (      13 calls)

     Called by c_bands:
     init_us_2    :      0.30s CPU      0.45s WALL (    1269 calls)
     init_us_2:cp :      0.29s CPU      0.45s WALL (    1269 calls)
     cegterg      :     27.24s CPU     39.92s WALL (     611 calls)

     Called by *egterg:
     cdiaghg      :      0.10s CPU      0.11s WALL (    1451 calls)
     h_psi        :     29.63s CPU     45.19s WALL (    1498 calls)
     g_psi        :      0.02s CPU      0.02s WALL (     840 calls)

     Called by h_psi:
     h_psi:calbec :      0.09s CPU      0.11s WALL (    1498 calls)
     vloc_psi     :      7.34s CPU     11.31s WALL (    1498 calls)
     add_vuspsi   :      0.08s CPU      0.13s WALL (    1498 calls)
     h_psi_meta   :     22.08s CPU     33.60s WALL (    1498 calls)

     General routines
     calbec       :      0.08s CPU      0.11s WALL (    1498 calls)
     fft          :      0.08s CPU      0.15s WALL (     165 calls)
     ffts         :      0.17s CPU      0.24s WALL (     320 calls)
     fftw         :     31.06s CPU     47.49s WALL (   59616 calls)
     interpolate  :      0.00s CPU      0.01s WALL (      14 calls)
 
     Parallel routines
 
     PWSCF        :     37.95s CPU     57.79s WALL

 
   This run was terminated on:  10:22:32  29Mar2023            

=------------------------------------------------------------------------------=
   JOB DONE.
=------------------------------------------------------------------------------=
