
     Program PWSCF v.7.0 starts on 14Mar2023 at 14:28:43 

     This program is part of the open-source Quantum ESPRESSO suite
     for quantum simulation of materials; please cite
         "P. Giannozzi et al., J. Phys.:Condens. Matter 21 395502 (2009);
         "P. Giannozzi et al., J. Phys.:Condens. Matter 29 465901 (2017);
         "P. Giannozzi et al., J. Chem. Phys. 152 154105 (2020);
          URL http://www.quantum-espresso.org", 
     in publications or presentations arising from this work. More details at
     http://www.quantum-espresso.org/quote

     Parallel version (MPI), running on     1 processors

     MPI processes distributed on     1 nodes
     26861 MiB available memory on the printing compute node when the environment starts
 
     Waiting for input...
     Reading input from standard input
Warning: card &CELL ignored
Warning: card / ignored

     Current dimensions of program PWSCF are:
     Max number of different atomic species (ntypx) = 10
     Max number of k-points (npk) =  40000
     Max angular momentum in pseudopotentials (lmaxx) =  4
     file Cl.SCAN.UPF2: wavefunction(s)  0D renormalized

     WARNING: the MGGA functional with ID    5 has been 
     read together with other dft terms, but it should 
     stand alone in order to work properly. The other 
     terms will be ignored.

     WARNING: the MGGA functional with ID    5 has been 
     read together with other dft terms, but it should 
     stand alone in order to work properly. The other 
     terms will be ignored.

     Subspace diagonalization in iterative solution of the eigenvalue problem:
     a serial algorithm will be used

 
     G-vector sticks info
     --------------------
     sticks:   dense  smooth     PW     G-vecs:    dense   smooth      PW
     Sum         649     649    199                10849    10849    1917
 
     Using Slab Decomposition
 


     bravais-lattice index     =            2
     lattice parameter (alat)  =       9.6820  a.u.
     unit-cell volume          =     226.9004 (a.u.)^3
     number of atoms/cell      =            2
     number of atomic types    =            2
     number of electrons       =         8.00
     number of Kohn-Sham states=            4
     kinetic-energy cutoff     =      50.0000  Ry
     charge density cutoff     =     200.0000  Ry
     scf convergence threshold =      1.0E-06
     mixing beta               =       0.0100
     number of iterations used =            8  local-TF  mixing
     Exchange-correlation= SLA  PW   SCAN SCAN
                           (   0   0   0   0   0 263 267)

     celldm(1)=   9.682000  celldm(2)=   0.000000  celldm(3)=   0.000000
     celldm(4)=   0.000000  celldm(5)=   0.000000  celldm(6)=   0.000000

     crystal axes: (cart. coord. in units of alat)
               a(1) = (  -0.500000   0.000000   0.500000 )  
               a(2) = (   0.000000   0.500000   0.500000 )  
               a(3) = (  -0.500000   0.500000   0.000000 )  

     reciprocal axes: (cart. coord. in units 2 pi/alat)
               b(1) = ( -1.000000 -1.000000  1.000000 )  
               b(2) = (  1.000000  1.000000  1.000000 )  
               b(3) = ( -1.000000  1.000000 -1.000000 )  


     PseudoPot. # 1 for Li read from file:
     ~/Documents/TA/PWDFT.jl/pseudopotentials/scan_upf/Li.SCAN.UPF2
     MD5 check sum: Not computed, couldn't open file
     Pseudo is Norm-conserving, Zval =  1.0
     Generated by new atomic code, or converted to UPF format
     Using radial grid of 1321 points,  1 beta functions with: 
                l(1) =   0

     PseudoPot. # 2 for Cl read from file:
     ~/Documents/TA/PWDFT.jl/pseudopotentials/scan_upf/Cl.SCAN.UPF2
     MD5 check sum: Not computed, couldn't open file
     Pseudo is Norm-conserving, Zval =  7.0
     Generated by new atomic code, or converted to UPF format
     Using radial grid of 1493 points,  2 beta functions with: 
                l(1) =   0
                l(2) =   1

     atomic species   valence    mass     pseudopotential
        Li             1.00     6.94100     Li( 1.00)
        Cl             7.00    35.45300     Cl( 1.00)

     48 Sym. Ops., with inversion, found



   Cartesian axes

     site n.     atom                  positions (alat units)
         1           Li  tau(   1) = (   0.0000000   0.0000000   0.0000000  )
         2           Cl  tau(   2) = (   0.5000000   0.5000000   0.5000000  )

     number of k points=    47
                       cart. coord. in units 2pi/alat
        k(    1) = (   0.0000000   0.0000000   0.0000000), wk =   0.0020000
        k(    2) = (  -0.1000000   0.1000000  -0.1000000), wk =   0.0160000
        k(    3) = (  -0.2000000   0.2000000  -0.2000000), wk =   0.0160000
        k(    4) = (  -0.3000000   0.3000000  -0.3000000), wk =   0.0160000
        k(    5) = (  -0.4000000   0.4000000  -0.4000000), wk =   0.0160000
        k(    6) = (   0.5000000  -0.5000000   0.5000000), wk =   0.0080000
        k(    7) = (   0.0000000   0.2000000   0.0000000), wk =   0.0120000
        k(    8) = (  -0.1000000   0.3000000  -0.1000000), wk =   0.0480000
        k(    9) = (  -0.2000000   0.4000000  -0.2000000), wk =   0.0480000
        k(   10) = (  -0.3000000   0.5000000  -0.3000000), wk =   0.0480000
        k(   11) = (   0.6000000  -0.4000000   0.6000000), wk =   0.0480000
        k(   12) = (   0.5000000  -0.3000000   0.5000000), wk =   0.0480000
        k(   13) = (   0.4000000  -0.2000000   0.4000000), wk =   0.0480000
        k(   14) = (   0.3000000  -0.1000000   0.3000000), wk =   0.0480000
        k(   15) = (   0.2000000   0.0000000   0.2000000), wk =   0.0240000
        k(   16) = (   0.0000000   0.4000000   0.0000000), wk =   0.0120000
        k(   17) = (  -0.1000000   0.5000000  -0.1000000), wk =   0.0480000
        k(   18) = (  -0.2000000   0.6000000  -0.2000000), wk =   0.0480000
        k(   19) = (   0.7000000  -0.3000000   0.7000000), wk =   0.0480000
        k(   20) = (   0.6000000  -0.2000000   0.6000000), wk =   0.0480000
        k(   21) = (   0.5000000  -0.1000000   0.5000000), wk =   0.0480000
        k(   22) = (   0.4000000   0.0000000   0.4000000), wk =   0.0240000
        k(   23) = (   0.0000000   0.6000000   0.0000000), wk =   0.0120000
        k(   24) = (  -0.1000000   0.7000000  -0.1000000), wk =   0.0480000
        k(   25) = (   0.8000000  -0.2000000   0.8000000), wk =   0.0480000
        k(   26) = (   0.7000000  -0.1000000   0.7000000), wk =   0.0480000
        k(   27) = (   0.6000000  -0.0000000   0.6000000), wk =   0.0240000
        k(   28) = (   0.0000000   0.8000000   0.0000000), wk =   0.0120000
        k(   29) = (   0.9000000  -0.1000000   0.9000000), wk =   0.0480000
        k(   30) = (   0.8000000   0.0000000   0.8000000), wk =   0.0240000
        k(   31) = (   0.0000000  -1.0000000   0.0000000), wk =   0.0060000
        k(   32) = (  -0.2000000   0.4000000   0.0000000), wk =   0.0480000
        k(   33) = (  -0.3000000   0.5000000  -0.1000000), wk =   0.0960000
        k(   34) = (   0.6000000  -0.4000000   0.8000000), wk =   0.0960000
        k(   35) = (   0.5000000  -0.3000000   0.7000000), wk =   0.0480000
        k(   36) = (  -0.2000000   0.6000000   0.0000000), wk =   0.0480000
        k(   37) = (   0.7000000  -0.3000000   0.9000000), wk =   0.0960000
        k(   38) = (   0.6000000  -0.2000000   0.8000000), wk =   0.0960000
        k(   39) = (   0.5000000  -0.1000000   0.7000000), wk =   0.0960000
        k(   40) = (   0.4000000   0.0000000   0.6000000), wk =   0.0480000
        k(   41) = (   0.8000000  -0.2000000   1.0000000), wk =   0.0480000
        k(   42) = (   0.7000000  -0.1000000   0.9000000), wk =   0.0960000
        k(   43) = (   0.6000000   0.0000000   0.8000000), wk =   0.0480000
        k(   44) = (  -0.2000000  -1.0000000   0.0000000), wk =   0.0240000
        k(   45) = (   0.6000000  -0.2000000   1.0000000), wk =   0.0480000
        k(   46) = (   0.5000000  -0.1000000   0.9000000), wk =   0.0480000
        k(   47) = (  -0.4000000  -1.0000000   0.0000000), wk =   0.0240000

     Dense  grid:    10849 G-vectors     FFT dimensions: (  32,  32,  32)

     Estimated max dynamical RAM per process >      20.64 MB

     WARNING: libxc functional with ID  263 depends
      on external parameters: check the user_guide of
      QE if you need to modify them or to check their
      default values.

     Initial potential from superposition of free atoms

     starting charge       7.9953, renormalised to       8.0000
     Starting wfcs are   13 randomized atomic wfcs

     total cpu time spent up to now is        3.7 secs

     Self-consistent Calculation

     iteration #  1     ecut=    50.00 Ry     beta= 0.01
     Davidson diagonalization with overlap
     ethr =  1.00E-02,  avg # of iterations =  1.0

     total cpu time spent up to now is        6.2 secs

     total energy              =     -30.65804256 Ry
     estimated scf accuracy    <       0.35420601 Ry

     iteration #  2     ecut=    50.00 Ry     beta= 0.01
     Davidson diagonalization with overlap
     ethr =  4.43E-03,  avg # of iterations =  1.0

     total cpu time spent up to now is        8.7 secs

     total energy              =     -30.68489358 Ry
     estimated scf accuracy    <       0.33773149 Ry

     iteration #  3     ecut=    50.00 Ry     beta= 0.01
     Davidson diagonalization with overlap
     ethr =  4.22E-03,  avg # of iterations =  1.0

     total cpu time spent up to now is       11.2 secs

     total energy              =     -30.74187455 Ry
     estimated scf accuracy    <       0.25317625 Ry

     iteration #  4     ecut=    50.00 Ry     beta= 0.01
     Davidson diagonalization with overlap
     ethr =  3.16E-03,  avg # of iterations =  1.0

     total cpu time spent up to now is       13.8 secs

     total energy              =     -30.74434212 Ry
     estimated scf accuracy    <       0.00413926 Ry

     iteration #  5     ecut=    50.00 Ry     beta= 0.01
     Davidson diagonalization with overlap
     ethr =  5.17E-05,  avg # of iterations =  1.0

     total cpu time spent up to now is       16.3 secs

     total energy              =     -30.74436307 Ry
     estimated scf accuracy    <       0.00417591 Ry

     iteration #  6     ecut=    50.00 Ry     beta= 0.01
     Davidson diagonalization with overlap
     ethr =  5.17E-05,  avg # of iterations =  1.0

     total cpu time spent up to now is       18.9 secs

     total energy              =     -30.74247419 Ry
     estimated scf accuracy    <       0.00389332 Ry

     iteration #  7     ecut=    50.00 Ry     beta= 0.01
     Davidson diagonalization with overlap
     ethr =  4.87E-05,  avg # of iterations =  2.0

     total cpu time spent up to now is       22.5 secs

     total energy              =     -30.74418337 Ry
     estimated scf accuracy    <       0.00281029 Ry

     iteration #  8     ecut=    50.00 Ry     beta= 0.01
     Davidson diagonalization with overlap
     ethr =  3.51E-05,  avg # of iterations =  1.0

     total cpu time spent up to now is       24.9 secs

     total energy              =     -30.74408261 Ry
     estimated scf accuracy    <       0.00331618 Ry

     iteration #  9     ecut=    50.00 Ry     beta= 0.01
     Davidson diagonalization with overlap
     ethr =  3.51E-05,  avg # of iterations =  1.0

     total cpu time spent up to now is       27.3 secs

     total energy              =     -30.74343558 Ry
     estimated scf accuracy    <       0.00283058 Ry

     iteration # 10     ecut=    50.00 Ry     beta= 0.01
     Davidson diagonalization with overlap
     ethr =  3.51E-05,  avg # of iterations =  1.0

     total cpu time spent up to now is       29.4 secs

     total energy              =     -30.74365043 Ry
     estimated scf accuracy    <       0.00010459 Ry

     iteration # 11     ecut=    50.00 Ry     beta= 0.01
     Davidson diagonalization with overlap
     ethr =  1.31E-06,  avg # of iterations =  2.0

     total cpu time spent up to now is       32.0 secs

     total energy              =     -30.74366352 Ry
     estimated scf accuracy    <       0.00003938 Ry

     iteration # 12     ecut=    50.00 Ry     beta= 0.01
     Davidson diagonalization with overlap
     ethr =  4.92E-07,  avg # of iterations =  1.0

     total cpu time spent up to now is       33.8 secs

     total energy              =     -30.74366057 Ry
     estimated scf accuracy    <       0.00003712 Ry

     iteration # 13     ecut=    50.00 Ry     beta= 0.01
     Davidson diagonalization with overlap
     ethr =  4.64E-07,  avg # of iterations =  1.0

     total cpu time spent up to now is       35.9 secs

     total energy              =     -30.74364910 Ry
     estimated scf accuracy    <       0.00002622 Ry

     iteration # 14     ecut=    50.00 Ry     beta= 0.01
     Davidson diagonalization with overlap
     ethr =  3.28E-07,  avg # of iterations =  2.0

     total cpu time spent up to now is       38.8 secs

     total energy              =     -30.74365450 Ry
     estimated scf accuracy    <       0.00000295 Ry

     iteration # 15     ecut=    50.00 Ry     beta= 0.01
     Davidson diagonalization with overlap
     ethr =  3.69E-08,  avg # of iterations =  1.0

     total cpu time spent up to now is       40.4 secs

     End of self-consistent calculation

          k = 0.0000 0.0000 0.0000 (  1363 PWs)   bands (ev):

   -12.8520   1.0395   1.0395   1.0395

          k =-0.1000 0.1000-0.1000 (  1369 PWs)   bands (ev):

   -12.7982   0.6905   1.0117   1.0117

          k =-0.2000 0.2000-0.2000 (  1369 PWs)   bands (ev):

   -12.6517  -0.1141   0.9416   0.9416

          k =-0.3000 0.3000-0.3000 (  1359 PWs)   bands (ev):

   -12.4587  -0.9751   0.8597   0.8597

          k =-0.4000 0.4000-0.4000 (  1362 PWs)   bands (ev):

   -12.2914  -1.6077   0.7971   0.7971

          k = 0.5000-0.5000 0.5000 (  1350 PWs)   bands (ev):

   -12.2243  -1.8392   0.7740   0.7740

          k = 0.0000 0.2000 0.0000 (  1371 PWs)   bands (ev):

   -12.7799   0.7336   0.9172   0.9172

          k =-0.1000 0.3000-0.1000 (  1350 PWs)   bands (ev):

   -12.6631   0.1151   0.7954   0.8709

          k =-0.2000 0.4000-0.2000 (  1360 PWs)   bands (ev):

   -12.4838  -0.7089   0.6948   0.7733

          k =-0.3000 0.5000-0.3000 (  1361 PWs)   bands (ev):

   -12.3047  -1.3985   0.6328   0.6515

          k = 0.6000-0.4000 0.6000 (  1361 PWs)   bands (ev):

   -12.2017  -1.7522   0.5062   0.6786

          k = 0.5000-0.3000 0.5000 (  1364 PWs)   bands (ev):

   -12.2245  -1.6725   0.4404   0.7658

          k = 0.4000-0.2000 0.4000 (  1355 PWs)   bands (ev):

   -12.3615  -1.1843   0.4616   0.8831

          k = 0.3000-0.1000 0.3000 (  1362 PWs)   bands (ev):

   -12.5493  -0.4346   0.5753   0.9881

          k = 0.2000 0.0000 0.2000 (  1367 PWs)   bands (ev):

   -12.7130   0.3008   0.7818   1.0388

          k = 0.0000 0.4000 0.0000 (  1351 PWs)   bands (ev):

   -12.5804  -0.0230   0.6139   0.6139

          k =-0.1000 0.5000-0.1000 (  1351 PWs)   bands (ev):

   -12.4284  -0.6128   0.4544   0.4673

          k =-0.2000 0.6000-0.2000 (  1349 PWs)   bands (ev):

   -12.2591  -1.2034   0.2169   0.4044

          k = 0.7000-0.3000 0.7000 (  1355 PWs)   bands (ev):

   -12.1403  -1.5542  -0.0487   0.4444

          k = 0.6000-0.2000 0.6000 (  1360 PWs)   bands (ev):

   -12.1266  -1.5581  -0.2321   0.5746

          k = 0.5000-0.1000 0.5000 (  1348 PWs)   bands (ev):

   -12.2243  -1.2400  -0.2361   0.7528

          k = 0.4000 0.0000 0.4000 (  1362 PWs)   bands (ev):

   -12.3879  -0.8004   0.0495   0.9134

          k = 0.0000 0.6000 0.0000 (  1351 PWs)   bands (ev):

   -12.3100  -0.9150   0.2680   0.2680

          k =-0.1000 0.7000-0.1000 (  1343 PWs)   bands (ev):

   -12.1690  -1.3186   0.0342   0.1624

          k = 0.8000-0.2000 0.8000 (  1349 PWs)   bands (ev):

   -12.0610  -1.5190  -0.3528   0.1806

          k = 0.7000-0.1000 0.7000 (  1350 PWs)   bands (ev):

   -12.0329  -1.4018  -0.7641   0.3176

          k = 0.6000-0.0000 0.6000 (  1344 PWs)   bands (ev):

   -12.0971  -1.1371  -0.8880   0.5332

          k = 0.0000 0.8000 0.0000 (  1351 PWs)   bands (ev):

   -12.0672  -1.6264   0.0078   0.0078

          k = 0.9000-0.1000 0.9000 (  1351 PWs)   bands (ev):

   -11.9939  -1.7678  -0.2064  -0.0159

          k = 0.8000 0.0000 0.8000 (  1348 PWs)   bands (ev):

   -11.9809  -1.6258  -0.5873   0.0975

          k = 0.0000-1.0000 0.0000 (  1362 PWs)   bands (ev):

   -11.9677  -1.8989  -0.0875  -0.0875

          k =-0.2000 0.4000 0.0000 (  1353 PWs)   bands (ev):

   -12.5287  -0.3471   0.4486   0.8360

          k =-0.3000 0.5000-0.1000 (  1354 PWs)   bands (ev):

   -12.3528  -0.9594   0.1801   0.7388

          k = 0.6000-0.4000 0.8000 (  1352 PWs)   bands (ev):

   -12.2013  -1.4621   0.0509   0.6151

          k = 0.5000-0.3000 0.7000 (  1356 PWs)   bands (ev):

   -12.1410  -1.6527   0.0160   0.5584

          k =-0.2000 0.6000 0.0000 (  1353 PWs)   bands (ev):

   -12.2806  -1.0130   0.0724   0.4138

          k = 0.7000-0.3000 0.9000 (  1356 PWs)   bands (ev):

   -12.1392  -1.3415  -0.2563   0.3139

          k = 0.6000-0.2000 0.8000 (  1360 PWs)   bands (ev):

   -12.0634  -1.4583  -0.5246   0.3053

          k = 0.5000-0.1000 0.7000 (  1351 PWs)   bands (ev):

   -12.0878  -1.3341  -0.6372   0.4237

          k = 0.4000 0.0000 0.6000 (  1348 PWs)   bands (ev):

   -12.2010  -1.1401  -0.3904   0.6034

          k = 0.8000-0.2000 1.0000 (  1349 PWs)   bands (ev):

   -12.0597  -1.5495  -0.2084   0.0580

          k = 0.7000-0.1000 0.9000 (  1348 PWs)   bands (ev):

   -11.9970  -1.5372  -0.5816   0.0523

          k = 0.6000 0.0000 0.8000 (  1354 PWs)   bands (ev):

   -12.0084  -1.2461  -0.9801   0.1979

          k =-0.2000-1.0000 0.0000 (  1358 PWs)   bands (ev):

   -11.9698  -1.7612  -0.3108  -0.0728

          k = 0.6000-0.2000 1.0000 (  1356 PWs)   bands (ev):

   -12.0385  -1.3241  -0.7126   0.1577

          k = 0.5000-0.1000 0.9000 (  1358 PWs)   bands (ev):

   -11.9991  -1.2242  -0.9641   0.0767

          k =-0.4000-1.0000 0.0000 (  1350 PWs)   bands (ev):

   -11.9731  -1.3744  -0.8290  -0.0490

     highest occupied level (ev):     1.0395

!    total energy              =     -30.74365475 Ry
     estimated scf accuracy    <       0.00000009 Ry

     The total energy is the sum of the following terms:
     one-electron contribution =      -4.93140366 Ry
     hartree contribution      =       5.80562799 Ry
     xc contribution           =      -6.36489783 Ry
     ewald contribution        =     -25.25298126 Ry

     convergence has been achieved in  15 iterations
     Writing meta-gga kinetic term

     Writing all to output data dir ./input_pw/LiCl/10/pwscf.save/
     Writing meta-gga kinetic term
 
     init_run     :      1.36s CPU      3.70s WALL (       1 calls)
     electrons    :     16.30s CPU     36.68s WALL (       1 calls)

     Called by init_run:
     wfcinit      :      1.23s CPU      3.27s WALL (       1 calls)
     potinit      :      0.02s CPU      0.09s WALL (       1 calls)
     hinit0       :      0.09s CPU      0.31s WALL (       1 calls)

     Called by electrons:
     c_bands      :     12.63s CPU     28.63s WALL (      15 calls)
     sum_band     :      3.15s CPU      6.82s WALL (      15 calls)
     v_of_rho     :      0.31s CPU      0.73s WALL (      16 calls)
     mix_rho      :      0.22s CPU      0.55s WALL (      15 calls)

     Called by c_bands:
     init_us_2    :      0.25s CPU      0.49s WALL (    1457 calls)
     init_us_2:cp :      0.24s CPU      0.48s WALL (    1457 calls)
     cegterg      :     12.40s CPU     28.04s WALL (     705 calls)

     Called by *egterg:
     cdiaghg      :      0.09s CPU      0.22s WALL (    1552 calls)
     h_psi        :     13.21s CPU     30.39s WALL (    1599 calls)
     g_psi        :      0.01s CPU      0.05s WALL (     847 calls)

     Called by h_psi:
     h_psi:calbec :      0.07s CPU      0.14s WALL (    1599 calls)
     vloc_psi     :      3.22s CPU      7.13s WALL (    1599 calls)
     add_vuspsi   :      0.06s CPU      0.11s WALL (    1599 calls)
     h_psi_meta   :      9.83s CPU     22.92s WALL (    1599 calls)

     General routines
     calbec       :      0.06s CPU      0.13s WALL (    1599 calls)
     fft          :      0.04s CPU      0.16s WALL (     189 calls)
     ffts         :      0.07s CPU      0.19s WALL (     358 calls)
     fftw         :     13.29s CPU     30.21s WALL (   65312 calls)
     interpolate  :      0.00s CPU      0.00s WALL (      16 calls)
 
     Parallel routines
 
     PWSCF        :     17.73s CPU     40.46s WALL

 
   This run was terminated on:  14:29:23  14Mar2023            

=------------------------------------------------------------------------------=
   JOB DONE.
=------------------------------------------------------------------------------=
