
     Program PWSCF v.7.0 starts on  7Jul2023 at 14:24:17 

     This program is part of the open-source Quantum ESPRESSO suite
     for quantum simulation of materials; please cite
         "P. Giannozzi et al., J. Phys.:Condens. Matter 21 395502 (2009);
         "P. Giannozzi et al., J. Phys.:Condens. Matter 29 465901 (2017);
         "P. Giannozzi et al., J. Chem. Phys. 152 154105 (2020);
          URL http://www.quantum-espresso.org", 
     in publications or presentations arising from this work. More details at
     http://www.quantum-espresso.org/quote

     Parallel version (MPI), running on     1 processors

     MPI processes distributed on     1 nodes
     27318 MiB available memory on the printing compute node when the environment starts
 
     Waiting for input...
     Reading input from standard input
Warning: card &CELL ignored
Warning: card / ignored

     Current dimensions of program PWSCF are:
     Max number of different atomic species (ntypx) = 10
     Max number of k-points (npk) =  40000
     Max angular momentum in pseudopotentials (lmaxx) =  4
     file Cl.SCAN.UPF2: wavefunction(s)  0D renormalized

     WARNING: the MGGA functional with ID    5 has been 
     read together with other dft terms, but it should 
     stand alone in order to work properly. The other 
     terms will be ignored.

     WARNING: the MGGA functional with ID    5 has been 
     read together with other dft terms, but it should 
     stand alone in order to work properly. The other 
     terms will be ignored.

     Subspace diagonalization in iterative solution of the eigenvalue problem:
     a serial algorithm will be used

 
     G-vector sticks info
     --------------------
     sticks:   dense  smooth     PW     G-vecs:    dense   smooth      PW
     Sum         793     793    241                14649    14649    2445
 
     Using Slab Decomposition
 


     bravais-lattice index     =            2
     lattice parameter (alat)  =      10.7146  a.u.
     unit-cell volume          =     307.5200 (a.u.)^3
     number of atoms/cell      =            2
     number of atomic types    =            2
     number of electrons       =         8.00
     number of Kohn-Sham states=            4
     kinetic-energy cutoff     =      50.0000  Ry
     charge density cutoff     =     200.0000  Ry
     scf convergence threshold =      2.0E-05
     mixing beta               =       0.2000
     number of iterations used =            8  local-TF  mixing
     Exchange-correlation= SLA  PW   SCAN SCAN
                           (   0   0   0   0   0 263 267)

     celldm(1)=  10.714645  celldm(2)=   0.000000  celldm(3)=   0.000000
     celldm(4)=   0.000000  celldm(5)=   0.000000  celldm(6)=   0.000000

     crystal axes: (cart. coord. in units of alat)
               a(1) = (  -0.500000   0.000000   0.500000 )  
               a(2) = (   0.000000   0.500000   0.500000 )  
               a(3) = (  -0.500000   0.500000   0.000000 )  

     reciprocal axes: (cart. coord. in units 2 pi/alat)
               b(1) = ( -1.000000 -1.000000  1.000000 )  
               b(2) = (  1.000000  1.000000  1.000000 )  
               b(3) = ( -1.000000  1.000000 -1.000000 )  


     PseudoPot. # 1 for Li read from file:
     ~/Documents/TA/PWDFT.jl/pseudopotentials/scan_upf/Li.SCAN.UPF2
     MD5 check sum: Not computed, couldn't open file
     Pseudo is Norm-conserving, Zval =  1.0
     Generated by new atomic code, or converted to UPF format
     Using radial grid of 1321 points,  1 beta functions with: 
                l(1) =   0

     PseudoPot. # 2 for Cl read from file:
     ~/Documents/TA/PWDFT.jl/pseudopotentials/scan_upf/Cl.SCAN.UPF2
     MD5 check sum: Not computed, couldn't open file
     Pseudo is Norm-conserving, Zval =  7.0
     Generated by new atomic code, or converted to UPF format
     Using radial grid of 1493 points,  2 beta functions with: 
                l(1) =   0
                l(2) =   1

     atomic species   valence    mass     pseudopotential
        Li             1.00     6.94100     Li( 1.00)
        Cl             7.00    35.45300     Cl( 1.00)

     48 Sym. Ops., with inversion, found



   Cartesian axes

     site n.     atom                  positions (alat units)
         1           Li  tau(   1) = (   0.0000000   0.0000000   0.0000000  )
         2           Cl  tau(   2) = (   0.5000000   0.5000000   0.5000000  )

     number of k points=    47
                       cart. coord. in units 2pi/alat
        k(    1) = (   0.0000000   0.0000000   0.0000000), wk =   0.0020000
        k(    2) = (  -0.1000000   0.1000000  -0.1000000), wk =   0.0160000
        k(    3) = (  -0.2000000   0.2000000  -0.2000000), wk =   0.0160000
        k(    4) = (  -0.3000000   0.3000000  -0.3000000), wk =   0.0160000
        k(    5) = (  -0.4000000   0.4000000  -0.4000000), wk =   0.0160000
        k(    6) = (   0.5000000  -0.5000000   0.5000000), wk =   0.0080000
        k(    7) = (   0.0000000   0.2000000   0.0000000), wk =   0.0120000
        k(    8) = (  -0.1000000   0.3000000  -0.1000000), wk =   0.0480000
        k(    9) = (  -0.2000000   0.4000000  -0.2000000), wk =   0.0480000
        k(   10) = (  -0.3000000   0.5000000  -0.3000000), wk =   0.0480000
        k(   11) = (   0.6000000  -0.4000000   0.6000000), wk =   0.0480000
        k(   12) = (   0.5000000  -0.3000000   0.5000000), wk =   0.0480000
        k(   13) = (   0.4000000  -0.2000000   0.4000000), wk =   0.0480000
        k(   14) = (   0.3000000  -0.1000000   0.3000000), wk =   0.0480000
        k(   15) = (   0.2000000   0.0000000   0.2000000), wk =   0.0240000
        k(   16) = (   0.0000000   0.4000000   0.0000000), wk =   0.0120000
        k(   17) = (  -0.1000000   0.5000000  -0.1000000), wk =   0.0480000
        k(   18) = (  -0.2000000   0.6000000  -0.2000000), wk =   0.0480000
        k(   19) = (   0.7000000  -0.3000000   0.7000000), wk =   0.0480000
        k(   20) = (   0.6000000  -0.2000000   0.6000000), wk =   0.0480000
        k(   21) = (   0.5000000  -0.1000000   0.5000000), wk =   0.0480000
        k(   22) = (   0.4000000   0.0000000   0.4000000), wk =   0.0240000
        k(   23) = (   0.0000000   0.6000000   0.0000000), wk =   0.0120000
        k(   24) = (  -0.1000000   0.7000000  -0.1000000), wk =   0.0480000
        k(   25) = (   0.8000000  -0.2000000   0.8000000), wk =   0.0480000
        k(   26) = (   0.7000000  -0.1000000   0.7000000), wk =   0.0480000
        k(   27) = (   0.6000000  -0.0000000   0.6000000), wk =   0.0240000
        k(   28) = (   0.0000000   0.8000000   0.0000000), wk =   0.0120000
        k(   29) = (   0.9000000  -0.1000000   0.9000000), wk =   0.0480000
        k(   30) = (   0.8000000   0.0000000   0.8000000), wk =   0.0240000
        k(   31) = (   0.0000000  -1.0000000   0.0000000), wk =   0.0060000
        k(   32) = (  -0.2000000   0.4000000   0.0000000), wk =   0.0480000
        k(   33) = (  -0.3000000   0.5000000  -0.1000000), wk =   0.0960000
        k(   34) = (   0.6000000  -0.4000000   0.8000000), wk =   0.0960000
        k(   35) = (   0.5000000  -0.3000000   0.7000000), wk =   0.0480000
        k(   36) = (  -0.2000000   0.6000000   0.0000000), wk =   0.0480000
        k(   37) = (   0.7000000  -0.3000000   0.9000000), wk =   0.0960000
        k(   38) = (   0.6000000  -0.2000000   0.8000000), wk =   0.0960000
        k(   39) = (   0.5000000  -0.1000000   0.7000000), wk =   0.0960000
        k(   40) = (   0.4000000   0.0000000   0.6000000), wk =   0.0480000
        k(   41) = (   0.8000000  -0.2000000   1.0000000), wk =   0.0480000
        k(   42) = (   0.7000000  -0.1000000   0.9000000), wk =   0.0960000
        k(   43) = (   0.6000000   0.0000000   0.8000000), wk =   0.0480000
        k(   44) = (  -0.2000000  -1.0000000   0.0000000), wk =   0.0240000
        k(   45) = (   0.6000000  -0.2000000   1.0000000), wk =   0.0480000
        k(   46) = (   0.5000000  -0.1000000   0.9000000), wk =   0.0480000
        k(   47) = (  -0.4000000  -1.0000000   0.0000000), wk =   0.0240000

     Dense  grid:    14649 G-vectors     FFT dimensions: (  36,  36,  36)

     Estimated max dynamical RAM per process >      28.10 MB

     WARNING: libxc functional with ID  263 depends
      on external parameters: check the user_guide of
      QE if you need to modify them or to check their
      default values.

     Initial potential from superposition of free atoms

     starting charge       7.9953, renormalised to       8.0000
     Starting wfcs are   13 randomized atomic wfcs

     total cpu time spent up to now is        6.3 secs

     Self-consistent Calculation

     iteration #  1     ecut=    50.00 Ry     beta= 0.20
     Davidson diagonalization with overlap
     ethr =  1.00E-02,  avg # of iterations =  1.0

     total cpu time spent up to now is       11.0 secs

     total energy              =     -30.69245827 Ry
     estimated scf accuracy    <       0.36144234 Ry

     iteration #  2     ecut=    50.00 Ry     beta= 0.20
     Davidson diagonalization with overlap
     ethr =  4.52E-03,  avg # of iterations =  1.0

     total cpu time spent up to now is       14.8 secs

     total energy              =     -30.72747533 Ry
     estimated scf accuracy    <       0.23645625 Ry

     iteration #  3     ecut=    50.00 Ry     beta= 0.20
     Davidson diagonalization with overlap
     ethr =  2.96E-03,  avg # of iterations =  1.0

     total cpu time spent up to now is       18.6 secs

     total energy              =     -30.73034510 Ry
     estimated scf accuracy    <       0.00361092 Ry

     iteration #  4     ecut=    50.00 Ry     beta= 0.20
     Davidson diagonalization with overlap
     ethr =  4.51E-05,  avg # of iterations =  1.9

     total cpu time spent up to now is       22.2 secs

     total energy              =     -30.73072817 Ry
     estimated scf accuracy    <       0.00163103 Ry

     iteration #  5     ecut=    50.00 Ry     beta= 0.20
     Davidson diagonalization with overlap
     ethr =  2.04E-05,  avg # of iterations =  2.0

     total cpu time spent up to now is       25.3 secs

     total energy              =     -30.73110686 Ry
     estimated scf accuracy    <       0.00029602 Ry

     iteration #  6     ecut=    50.00 Ry     beta= 0.20
     Davidson diagonalization with overlap
     ethr =  3.70E-06,  avg # of iterations =  2.0

     total cpu time spent up to now is       28.7 secs

     total energy              =     -30.73116020 Ry
     estimated scf accuracy    <       0.00011077 Ry

     iteration #  7     ecut=    50.00 Ry     beta= 0.20
     Davidson diagonalization with overlap
     ethr =  1.38E-06,  avg # of iterations =  1.0

     total cpu time spent up to now is       31.2 secs

     total energy              =     -30.73113942 Ry
     estimated scf accuracy    <       0.00004659 Ry

     iteration #  8     ecut=    50.00 Ry     beta= 0.20
     Davidson diagonalization with overlap
     ethr =  5.82E-07,  avg # of iterations =  2.0

     total cpu time spent up to now is       33.0 secs

     End of self-consistent calculation

          k = 0.0000 0.0000 0.0000 (  1837 PWs)   bands (ev):

   -14.0994  -1.0774  -1.0774  -1.0774

          k =-0.1000 0.1000-0.1000 (  1847 PWs)   bands (ev):

   -14.0736  -1.2994  -1.0935  -1.0935

          k =-0.2000 0.2000-0.2000 (  1847 PWs)   bands (ev):

   -14.0042  -1.8122  -1.1347  -1.1347

          k =-0.3000 0.3000-0.3000 (  1853 PWs)   bands (ev):

   -13.9158  -2.3567  -1.1838  -1.1838

          k =-0.4000 0.4000-0.4000 (  1850 PWs)   bands (ev):

   -13.8416  -2.7505  -1.2220  -1.2220

          k = 0.5000-0.5000 0.5000 (  1850 PWs)   bands (ev):

   -13.8127  -2.8927  -1.2363  -1.2363

          k = 0.0000 0.2000 0.0000 (  1848 PWs)   bands (ev):

   -14.0649  -1.2836  -1.1458  -1.1458

          k =-0.1000 0.3000-0.1000 (  1844 PWs)   bands (ev):

   -14.0096  -1.6730  -1.2156  -1.1754

          k =-0.2000 0.4000-0.2000 (  1848 PWs)   bands (ev):

   -13.9270  -2.1900  -1.2753  -1.2315

          k =-0.3000 0.5000-0.3000 (  1846 PWs)   bands (ev):

   -13.8474  -2.6163  -1.3126  -1.3030

          k = 0.6000-0.4000 0.6000 (  1837 PWs)   bands (ev):

   -13.8028  -2.8316  -1.3863  -1.2894

          k = 0.5000-0.3000 0.5000 (  1841 PWs)   bands (ev):

   -13.8125  -2.7833  -1.4239  -1.2399

          k = 0.4000-0.2000 0.4000 (  1854 PWs)   bands (ev):

   -13.8724  -2.4854  -1.4094  -1.1720

          k = 0.3000-0.1000 0.3000 (  1850 PWs)   bands (ev):

   -13.9569  -2.0207  -1.3405  -1.1107

          k = 0.2000 0.0000 0.2000 (  1847 PWs)   bands (ev):

   -14.0330  -1.5548  -1.2211  -1.0801

          k = 0.0000 0.4000 0.0000 (  1840 PWs)   bands (ev):

   -13.9712  -1.7701  -1.3195  -1.3195

          k =-0.1000 0.5000-0.1000 (  1846 PWs)   bands (ev):

   -13.9023  -2.1308  -1.4126  -1.4060

          k =-0.2000 0.6000-0.2000 (  1833 PWs)   bands (ev):

   -13.8275  -2.4857  -1.5502  -1.4447

          k = 0.7000-0.3000 0.7000 (  1830 PWs)   bands (ev):

   -13.7766  -2.6902  -1.7090  -1.4229

          k = 0.6000-0.2000 0.6000 (  1832 PWs)   bands (ev):

   -13.7708  -2.6906  -1.8203  -1.3479

          k = 0.5000-0.1000 0.5000 (  1840 PWs)   bands (ev):

   -13.8124  -2.5100  -1.8166  -1.2456

          k = 0.4000 0.0000 0.4000 (  1851 PWs)   bands (ev):

   -13.8840  -2.2549  -1.6402  -1.1541

          k = 0.0000 0.6000 0.0000 (  1840 PWs)   bands (ev):

   -13.8500  -2.3070  -1.5240  -1.5240

          k =-0.1000 0.7000-0.1000 (  1829 PWs)   bands (ev):

   -13.7892  -2.5394  -1.6620  -1.5882

          k = 0.8000-0.2000 0.8000 (  1829 PWs)   bands (ev):

   -13.7437  -2.6430  -1.8967  -1.5782

          k = 0.7000-0.1000 0.7000 (  1834 PWs)   bands (ev):

   -13.7319  -2.5553  -2.1580  -1.4971

          k = 0.6000-0.0000 0.6000 (  1820 PWs)   bands (ev):

   -13.7582  -2.4305  -2.2082  -1.3711

          k = 0.0000 0.8000 0.0000 (  1808 PWs)   bands (ev):

   -13.7465  -2.7112  -1.6820  -1.6820

          k = 0.9000-0.1000 0.9000 (  1820 PWs)   bands (ev):

   -13.7164  -2.7825  -1.8119  -1.6969

          k = 0.8000 0.0000 0.8000 (  1834 PWs)   bands (ev):

   -13.7110  -2.6809  -2.0512  -1.6283

          k = 0.0000-1.0000 0.0000 (  1804 PWs)   bands (ev):

   -13.7057  -2.8610  -1.7408  -1.7408

          k =-0.2000 0.4000 0.0000 (  1846 PWs)   bands (ev):

   -13.9475  -1.9703  -1.4112  -1.1961

          k =-0.3000 0.5000-0.1000 (  1844 PWs)   bands (ev):

   -13.8685  -2.3454  -1.5693  -1.2522

          k = 0.6000-0.4000 0.8000 (  1836 PWs)   bands (ev):

   -13.8026  -2.6436  -1.6487  -1.3245

          k = 0.5000-0.3000 0.7000 (  1830 PWs)   bands (ev):

   -13.7769  -2.7551  -1.6704  -1.3582

          k =-0.2000 0.6000 0.0000 (  1840 PWs)   bands (ev):

   -13.8370  -2.3693  -1.6337  -1.4393

          k = 0.7000-0.3000 0.9000 (  1838 PWs)   bands (ev):

   -13.7764  -2.5537  -1.8288  -1.5008

          k = 0.6000-0.2000 0.8000 (  1831 PWs)   bands (ev):

   -13.7444  -2.6093  -1.9953  -1.5074

          k = 0.5000-0.1000 0.7000 (  1833 PWs)   bands (ev):

   -13.7545  -2.5400  -2.0622  -1.4367

          k = 0.4000 0.0000 0.6000 (  1838 PWs)   bands (ev):

   -13.8025  -2.4474  -1.9035  -1.3307

          k = 0.8000-0.2000 1.0000 (  1825 PWs)   bands (ev):

   -13.7433  -2.6613  -1.8046  -1.6559

          k = 0.7000-0.1000 0.9000 (  1834 PWs)   bands (ev):

   -13.7174  -2.6324  -2.0349  -1.6621

          k = 0.6000 0.0000 0.8000 (  1833 PWs)   bands (ev):

   -13.7217  -2.4355  -2.3006  -1.5727

          k =-0.2000-1.0000 0.0000 (  1818 PWs)   bands (ev):

   -13.7064  -2.7699  -1.8679  -1.7392

          k = 0.6000-0.2000 1.0000 (  1834 PWs)   bands (ev):

   -13.7342  -2.5174  -2.1031  -1.6005

          k = 0.5000-0.1000 0.9000 (  1830 PWs)   bands (ev):

   -13.7179  -2.4378  -2.2611  -1.6538

          k =-0.4000-1.0000 0.0000 (  1840 PWs)   bands (ev):

   -13.7076  -2.5184  -2.1764  -1.7366

     highest occupied level (ev):    -1.0774

!    total energy              =     -30.73115383 Ry
     estimated scf accuracy    <       0.00001123 Ry

     The total energy is the sum of the following terms:
     one-electron contribution =      -8.90117925 Ry
     hartree contribution      =       7.26709999 Ry
     xc contribution           =      -6.27789842 Ry
     ewald contribution        =     -22.81917615 Ry

     convergence has been achieved in   8 iterations
     Writing meta-gga kinetic term

     Writing all to output data dir ./input_pw/LiCl/10/pwscf.save/
     Writing meta-gga kinetic term
 
     init_run     :      3.01s CPU      6.20s WALL (       1 calls)
     electrons    :     19.93s CPU     26.70s WALL (       1 calls)

     Called by init_run:
     wfcinit      :      2.86s CPU      5.90s WALL (       1 calls)
     potinit      :      0.04s CPU      0.09s WALL (       1 calls)
     hinit0       :      0.09s CPU      0.17s WALL (       1 calls)

     Called by electrons:
     c_bands      :     15.85s CPU     21.35s WALL (       8 calls)
     sum_band     :      3.63s CPU      4.77s WALL (       8 calls)
     v_of_rho     :      0.27s CPU      0.38s WALL (       9 calls)
     mix_rho      :      0.20s CPU      0.27s WALL (       8 calls)

     Called by c_bands:
     init_us_2    :      0.18s CPU      0.21s WALL (     799 calls)
     init_us_2:cp :      0.17s CPU      0.20s WALL (     799 calls)
     cegterg      :     15.68s CPU     21.10s WALL (     376 calls)

     Called by *egterg:
     cdiaghg      :      0.06s CPU      0.08s WALL (     935 calls)
     h_psi        :     18.20s CPU     26.51s WALL (     982 calls)
     g_psi        :      0.01s CPU      0.01s WALL (     559 calls)

     Called by h_psi:
     h_psi:calbec :      0.05s CPU      0.09s WALL (     982 calls)
     vloc_psi     :      4.52s CPU      6.54s WALL (     982 calls)
     add_vuspsi   :      0.05s CPU      0.05s WALL (     982 calls)
     h_psi_meta   :     13.55s CPU     19.80s WALL (     982 calls)

     General routines
     calbec       :      0.05s CPU      0.09s WALL (     982 calls)
     fft          :      0.05s CPU      0.10s WALL (     105 calls)
     ffts         :      0.10s CPU      0.15s WALL (     185 calls)
     fftw         :     18.93s CPU     27.28s WALL (   39408 calls)
     interpolate  :      0.00s CPU      0.00s WALL (       9 calls)
 
     Parallel routines
 
     PWSCF        :     22.98s CPU     32.98s WALL

 
   This run was terminated on:  14:24:50   7Jul2023            

=------------------------------------------------------------------------------=
   JOB DONE.
=------------------------------------------------------------------------------=
