
     Program PWSCF v.7.0 starts on  7Jul2023 at 14:30:57 

     This program is part of the open-source Quantum ESPRESSO suite
     for quantum simulation of materials; please cite
         "P. Giannozzi et al., J. Phys.:Condens. Matter 21 395502 (2009);
         "P. Giannozzi et al., J. Phys.:Condens. Matter 29 465901 (2017);
         "P. Giannozzi et al., J. Chem. Phys. 152 154105 (2020);
          URL http://www.quantum-espresso.org", 
     in publications or presentations arising from this work. More details at
     http://www.quantum-espresso.org/quote

     Parallel version (MPI), running on     1 processors

     MPI processes distributed on     1 nodes
     27182 MiB available memory on the printing compute node when the environment starts
 
     Waiting for input...
     Reading input from standard input
Warning: card &CELL ignored
Warning: card / ignored

     Current dimensions of program PWSCF are:
     Max number of different atomic species (ntypx) = 10
     Max number of k-points (npk) =  40000
     Max angular momentum in pseudopotentials (lmaxx) =  4
     file Si.SCAN.UPF2: wavefunction(s)  0D renormalized

     WARNING: the MGGA functional with ID    5 has been 
     read together with other dft terms, but it should 
     stand alone in order to work properly. The other 
     terms will be ignored.

     WARNING: the MGGA functional with ID    5 has been 
     read together with other dft terms, but it should 
     stand alone in order to work properly. The other 
     terms will be ignored.

     Subspace diagonalization in iterative solution of the eigenvalue problem:
     a serial algorithm will be used

 
     G-vector sticks info
     --------------------
     sticks:   dense  smooth     PW     G-vecs:    dense   smooth      PW
     Sum         421     421    139                 5577     5577    1037
 
     Using Slab Decomposition
 


     bravais-lattice index     =            2
     lattice parameter (alat)  =       7.7101  a.u.
     unit-cell volume          =     114.5822 (a.u.)^3
     number of atoms/cell      =            2
     number of atomic types    =            2
     number of electrons       =         8.00
     number of Kohn-Sham states=            4
     kinetic-energy cutoff     =      50.0000  Ry
     charge density cutoff     =     200.0000  Ry
     scf convergence threshold =      2.0E-05
     mixing beta               =       0.2000
     number of iterations used =            8  local-TF  mixing
     Exchange-correlation= SLA  PW   SCAN SCAN
                           (   0   0   0   0   0 263 267)

     celldm(1)=   7.710083  celldm(2)=   0.000000  celldm(3)=   0.000000
     celldm(4)=   0.000000  celldm(5)=   0.000000  celldm(6)=   0.000000

     crystal axes: (cart. coord. in units of alat)
               a(1) = (  -0.500000   0.000000   0.500000 )  
               a(2) = (   0.000000   0.500000   0.500000 )  
               a(3) = (  -0.500000   0.500000   0.000000 )  

     reciprocal axes: (cart. coord. in units 2 pi/alat)
               b(1) = ( -1.000000 -1.000000  1.000000 )  
               b(2) = (  1.000000  1.000000  1.000000 )  
               b(3) = ( -1.000000  1.000000 -1.000000 )  


     PseudoPot. # 1 for Si read from file:
     ~/Documents/TA/PWDFT.jl/pseudopotentials/scan_upf/Si.SCAN.UPF2
     MD5 check sum: Not computed, couldn't open file
     Pseudo is Norm-conserving, Zval =  4.0
     Generated by new atomic code, or converted to UPF format
     Using radial grid of 1475 points,  2 beta functions with: 
                l(1) =   0
                l(2) =   1

     PseudoPot. # 2 for C  read from file:
     ~/Documents/TA/PWDFT.jl/pseudopotentials/scan_upf/C.SCAN.UPF2
     MD5 check sum: Not computed, couldn't open file
     Pseudo is Norm-conserving, Zval =  4.0
     Generated by new atomic code, or converted to UPF format
     Using radial grid of 1389 points,  1 beta functions with: 
                l(1) =   0

     atomic species   valence    mass     pseudopotential
        Si             4.00    28.08550     Si( 1.00)
        C              4.00    12.01100     C ( 1.00)

     24 Sym. Ops. (no inversion) found



   Cartesian axes

     site n.     atom                  positions (alat units)
         1           Si  tau(   1) = (   0.0000000   0.0000000   0.0000000  )
         2           C   tau(   2) = (   0.2500000   0.2500000   0.2500000  )

     number of k points=    47
                       cart. coord. in units 2pi/alat
        k(    1) = (   0.0000000   0.0000000   0.0000000), wk =   0.0020000
        k(    2) = (  -0.1000000   0.1000000  -0.1000000), wk =   0.0160000
        k(    3) = (  -0.2000000   0.2000000  -0.2000000), wk =   0.0160000
        k(    4) = (  -0.3000000   0.3000000  -0.3000000), wk =   0.0160000
        k(    5) = (  -0.4000000   0.4000000  -0.4000000), wk =   0.0160000
        k(    6) = (   0.5000000  -0.5000000   0.5000000), wk =   0.0080000
        k(    7) = (   0.0000000   0.2000000   0.0000000), wk =   0.0120000
        k(    8) = (  -0.1000000   0.3000000  -0.1000000), wk =   0.0480000
        k(    9) = (  -0.2000000   0.4000000  -0.2000000), wk =   0.0480000
        k(   10) = (  -0.3000000   0.5000000  -0.3000000), wk =   0.0480000
        k(   11) = (   0.6000000  -0.4000000   0.6000000), wk =   0.0480000
        k(   12) = (   0.5000000  -0.3000000   0.5000000), wk =   0.0480000
        k(   13) = (   0.4000000  -0.2000000   0.4000000), wk =   0.0480000
        k(   14) = (   0.3000000  -0.1000000   0.3000000), wk =   0.0480000
        k(   15) = (   0.2000000   0.0000000   0.2000000), wk =   0.0240000
        k(   16) = (   0.0000000   0.4000000   0.0000000), wk =   0.0120000
        k(   17) = (  -0.1000000   0.5000000  -0.1000000), wk =   0.0480000
        k(   18) = (  -0.2000000   0.6000000  -0.2000000), wk =   0.0480000
        k(   19) = (   0.7000000  -0.3000000   0.7000000), wk =   0.0480000
        k(   20) = (   0.6000000  -0.2000000   0.6000000), wk =   0.0480000
        k(   21) = (   0.5000000  -0.1000000   0.5000000), wk =   0.0480000
        k(   22) = (   0.4000000   0.0000000   0.4000000), wk =   0.0240000
        k(   23) = (   0.0000000   0.6000000   0.0000000), wk =   0.0120000
        k(   24) = (  -0.1000000   0.7000000  -0.1000000), wk =   0.0480000
        k(   25) = (   0.8000000  -0.2000000   0.8000000), wk =   0.0480000
        k(   26) = (   0.7000000  -0.1000000   0.7000000), wk =   0.0480000
        k(   27) = (   0.6000000  -0.0000000   0.6000000), wk =   0.0240000
        k(   28) = (   0.0000000   0.8000000   0.0000000), wk =   0.0120000
        k(   29) = (   0.9000000  -0.1000000   0.9000000), wk =   0.0480000
        k(   30) = (   0.8000000   0.0000000   0.8000000), wk =   0.0240000
        k(   31) = (   0.0000000  -1.0000000   0.0000000), wk =   0.0060000
        k(   32) = (  -0.2000000   0.4000000   0.0000000), wk =   0.0480000
        k(   33) = (  -0.3000000   0.5000000  -0.1000000), wk =   0.0960000
        k(   34) = (   0.6000000  -0.4000000   0.8000000), wk =   0.0960000
        k(   35) = (   0.5000000  -0.3000000   0.7000000), wk =   0.0480000
        k(   36) = (  -0.2000000   0.6000000   0.0000000), wk =   0.0480000
        k(   37) = (   0.7000000  -0.3000000   0.9000000), wk =   0.0960000
        k(   38) = (   0.6000000  -0.2000000   0.8000000), wk =   0.0960000
        k(   39) = (   0.5000000  -0.1000000   0.7000000), wk =   0.0960000
        k(   40) = (   0.4000000   0.0000000   0.6000000), wk =   0.0480000
        k(   41) = (   0.8000000  -0.2000000   1.0000000), wk =   0.0480000
        k(   42) = (   0.7000000  -0.1000000   0.9000000), wk =   0.0960000
        k(   43) = (   0.6000000   0.0000000   0.8000000), wk =   0.0480000
        k(   44) = (  -0.2000000  -1.0000000   0.0000000), wk =   0.0240000
        k(   45) = (   0.6000000  -0.2000000   1.0000000), wk =   0.0480000
        k(   46) = (   0.5000000  -0.1000000   0.9000000), wk =   0.0480000
        k(   47) = (  -0.4000000  -1.0000000   0.0000000), wk =   0.0240000

     Dense  grid:     5577 G-vectors     FFT dimensions: (  25,  25,  25)

     Estimated max dynamical RAM per process >      10.53 MB

     WARNING: libxc functional with ID  263 depends
      on external parameters: check the user_guide of
      QE if you need to modify them or to check their
      default values.

     Initial potential from superposition of free atoms

     starting charge       7.9995, renormalised to       8.0000
     Starting wfcs are   13 randomized atomic wfcs

     total cpu time spent up to now is        2.4 secs

     Self-consistent Calculation

     iteration #  1     ecut=    50.00 Ry     beta= 0.20
     Davidson diagonalization with overlap
     ethr =  1.00E-02,  avg # of iterations =  2.0

     total cpu time spent up to now is        4.3 secs

     total energy              =     -19.35476153 Ry
     estimated scf accuracy    <       2.68444748 Ry

     iteration #  2     ecut=    50.00 Ry     beta= 0.20
     Davidson diagonalization with overlap
     ethr =  1.00E-02,  avg # of iterations =  1.0

     total cpu time spent up to now is        5.8 secs

     total energy              =     -19.18119859 Ry
     estimated scf accuracy    <       1.65700775 Ry

     iteration #  3     ecut=    50.00 Ry     beta= 0.20
     Davidson diagonalization with overlap
     ethr =  1.00E-02,  avg # of iterations =  1.1

     total cpu time spent up to now is        7.2 secs

     total energy              =     -19.24624307 Ry
     estimated scf accuracy    <       0.04529509 Ry

     iteration #  4     ecut=    50.00 Ry     beta= 0.20
     Davidson diagonalization with overlap
     ethr =  5.66E-04,  avg # of iterations =  2.0

     total cpu time spent up to now is        9.2 secs

     total energy              =     -19.25529847 Ry
     estimated scf accuracy    <       0.02031153 Ry

     iteration #  5     ecut=    50.00 Ry     beta= 0.20
     Davidson diagonalization with overlap
     ethr =  2.54E-04,  avg # of iterations =  1.0

     total cpu time spent up to now is       10.6 secs

     total energy              =     -19.25375270 Ry
     estimated scf accuracy    <       0.03673653 Ry

     iteration #  6     ecut=    50.00 Ry     beta= 0.20
     Davidson diagonalization with overlap
     ethr =  2.54E-04,  avg # of iterations =  1.3

     total cpu time spent up to now is       12.1 secs

     total energy              =     -19.25534553 Ry
     estimated scf accuracy    <       0.00225820 Ry

     iteration #  7     ecut=    50.00 Ry     beta= 0.20
     Davidson diagonalization with overlap
     ethr =  2.82E-05,  avg # of iterations =  1.9

     total cpu time spent up to now is       13.8 secs

     total energy              =     -19.25537880 Ry
     estimated scf accuracy    <       0.00378975 Ry

     iteration #  8     ecut=    50.00 Ry     beta= 0.20
     Davidson diagonalization with overlap
     ethr =  2.82E-05,  avg # of iterations =  1.0

     total cpu time spent up to now is       15.1 secs

     total energy              =     -19.25574203 Ry
     estimated scf accuracy    <       0.00087150 Ry

     iteration #  9     ecut=    50.00 Ry     beta= 0.20
     Davidson diagonalization with overlap
     ethr =  1.09E-05,  avg # of iterations =  3.0

     total cpu time spent up to now is       17.2 secs

     total energy              =     -19.25902789 Ry
     estimated scf accuracy    <       0.03266053 Ry

     iteration # 10     ecut=    50.00 Ry     beta= 0.20
     Davidson diagonalization with overlap
     ethr =  1.09E-05,  avg # of iterations =  2.0

     total cpu time spent up to now is       18.4 secs

     total energy              =     -19.26297772 Ry
     estimated scf accuracy    <       0.08809027 Ry

     iteration # 11     ecut=    50.00 Ry     beta= 0.20
     Davidson diagonalization with overlap
     ethr =  1.09E-05,  avg # of iterations =  2.8

     total cpu time spent up to now is       19.5 secs

     total energy              =     -19.25613972 Ry
     estimated scf accuracy    <       0.15813344 Ry

     iteration # 12     ecut=    50.00 Ry     beta= 0.20
     Davidson diagonalization with overlap
     ethr =  1.09E-05,  avg # of iterations =  3.0

     total cpu time spent up to now is       20.9 secs

     total energy              =     -19.25541682 Ry
     estimated scf accuracy    <       0.04245381 Ry

     iteration # 13     ecut=    50.00 Ry     beta= 0.20
     Davidson diagonalization with overlap
     ethr =  1.09E-05,  avg # of iterations =  2.0

     total cpu time spent up to now is       22.2 secs

     total energy              =     -19.25492549 Ry
     estimated scf accuracy    <       0.00805997 Ry

     iteration # 14     ecut=    50.00 Ry     beta= 0.20
     Davidson diagonalization with overlap
     ethr =  1.09E-05,  avg # of iterations =  3.0

     total cpu time spent up to now is       23.4 secs

     total energy              =     -19.25554192 Ry
     estimated scf accuracy    <       0.00783662 Ry

     iteration # 15     ecut=    50.00 Ry     beta= 0.20
     Davidson diagonalization with overlap
     ethr =  1.09E-05,  avg # of iterations =  2.0

     total cpu time spent up to now is       24.3 secs

     total energy              =     -19.25560901 Ry
     estimated scf accuracy    <       0.00062504 Ry

     iteration # 16     ecut=    50.00 Ry     beta= 0.20
     Davidson diagonalization with overlap
     ethr =  7.81E-06,  avg # of iterations =  1.0

     total cpu time spent up to now is       25.0 secs

     End of self-consistent calculation

          k = 0.0000 0.0000 0.0000 (   701 PWs)   bands (ev):

    -5.8758  11.9258  11.9258  11.9258

          k =-0.1000 0.1000-0.1000 (   685 PWs)   bands (ev):

    -5.6398  10.8513  11.7872  11.7872

          k =-0.2000 0.2000-0.2000 (   667 PWs)   bands (ev):

    -4.9412   8.4643  11.4622  11.4622

          k =-0.3000 0.3000-0.3000 (   682 PWs)   bands (ev):

    -3.8173   5.7616  11.1162  11.1162

          k =-0.4000 0.4000-0.4000 (   679 PWs)   bands (ev):

    -2.4004   3.2967  10.8792  10.8792

          k = 0.5000-0.5000 0.5000 (   700 PWs)   bands (ev):

    -1.4483   1.9795  10.7916  10.7916

          k = 0.0000 0.2000 0.0000 (   685 PWs)   bands (ev):

    -5.5612  11.2050  11.3879  11.3879

          k =-0.1000 0.3000-0.1000 (   679 PWs)   bands (ev):

    -5.0167   9.3178  10.8991  11.2978

          k =-0.2000 0.4000-0.2000 (   681 PWs)   bands (ev):

    -4.0323   6.7580  10.5201  10.9179

          k =-0.3000 0.5000-0.3000 (   691 PWs)   bands (ev):

    -2.6932   4.2191  10.3586  10.4187

          k = 0.6000-0.4000 0.6000 (   689 PWs)   bands (ev):

    -1.4146   2.3598   9.9966  10.4398

          k = 0.5000-0.3000 0.5000 (   680 PWs)   bands (ev):

    -1.7644   2.8292   9.7610  10.7399

          k = 0.4000-0.2000 0.4000 (   678 PWs)   bands (ev):

    -3.1690   5.0350   9.7781  11.1767

          k = 0.3000-0.1000 0.3000 (   675 PWs)   bands (ev):

    -4.4072   7.6126  10.0884  11.6186

          k = 0.2000 0.0000 0.2000 (   682 PWs)   bands (ev):

    -5.2495   9.8329  10.7997  11.8762

          k = 0.0000 0.4000 0.0000 (   681 PWs)   bands (ev):

    -4.6301   9.5089  10.2591  10.2591

          k =-0.1000 0.5000-0.1000 (   680 PWs)   bands (ev):

    -3.7993   7.6702   9.7785   9.8468

          k =-0.2000 0.6000-0.2000 (   682 PWs)   bands (ev):

    -2.5859   5.3754   9.0863   9.5705

          k = 0.7000-0.3000 0.7000 (   685 PWs)   bands (ev):

    -1.2345   3.3519   8.2959   9.6720

          k = 0.6000-0.2000 0.6000 (   687 PWs)   bands (ev):

    -0.9211   2.9501   7.7525  10.0597

          k = 0.5000-0.1000 0.5000 (   681 PWs)   bands (ev):

    -2.1415   4.6592   7.6139  10.6522

          k = 0.4000 0.0000 0.4000 (   670 PWs)   bands (ev):

    -3.4431   6.5919   8.2631  11.2698

          k = 0.0000 0.6000 0.0000 (   689 PWs)   bands (ev):

    -3.1292   7.3207   9.1830   9.1830

          k =-0.1000 0.7000-0.1000 (   683 PWs)   bands (ev):

    -2.0730   5.8770   8.2822   8.8782

          k = 0.8000-0.2000 0.8000 (   688 PWs)   bands (ev):

    -0.8091   4.3767   6.8748   8.9111

          k = 0.7000-0.1000 0.7000 (   691 PWs)   bands (ev):

    -0.1030   3.6757   5.8180   9.2779

          k = 0.6000-0.0000 0.6000 (   684 PWs)   bands (ev):

    -0.9013   4.4023   5.7845   9.9118

          k = 0.0000 0.8000 0.0000 (   684 PWs)   bands (ev):

    -1.2050   4.8817   8.4641   8.4641

          k = 0.9000-0.1000 0.9000 (   689 PWs)   bands (ev):

    -0.1837   3.8715   7.4285   8.3944

          k = 0.8000 0.0000 0.8000 (   688 PWs)   bands (ev):

     0.3284   3.7853   5.7815   8.6803

          k = 0.0000-1.0000 0.0000 (   692 PWs)   bands (ev):

     0.2145   3.2529   8.2137   8.2137

          k =-0.2000 0.4000 0.0000 (   677 PWs)   bands (ev):

    -4.3285   8.1835   9.5932  11.1235

          k =-0.3000 0.5000-0.1000 (   685 PWs)   bands (ev):

    -3.2250   6.0687   8.8512  10.6560

          k = 0.6000-0.4000 0.8000 (   683 PWs)   bands (ev):

    -1.8482   3.8084   8.6412  10.1073

          k = 0.5000-0.3000 0.7000 (   684 PWs)   bands (ev):

    -0.9461   2.5830   8.6242   9.8530

          k =-0.2000 0.6000 0.0000 (   680 PWs)   bands (ev):

    -2.8512   6.5840   8.4560   9.5101

          k = 0.7000-0.3000 0.9000 (   680 PWs)   bands (ev):

    -1.5872   4.9076   7.5930   8.9015

          k = 0.6000-0.2000 0.8000 (   687 PWs)   bands (ev):

    -0.4532   3.4653   6.9526   8.8046

          k = 0.5000-0.1000 0.7000 (   687 PWs)   bands (ev):

    -0.7737   3.8792   6.5893   9.2512

          k = 0.4000 0.0000 0.6000 (   684 PWs)   bands (ev):

    -2.0544   5.3235   7.0399   9.9874

          k = 0.8000-0.2000 1.0000 (   687 PWs)   bands (ev):

    -0.9865   4.8362   7.6970   8.0095

          k = 0.7000-0.1000 0.9000 (   686 PWs)   bands (ev):

     0.0589   4.0927   6.1785   7.9332

          k = 0.6000 0.0000 0.8000 (   689 PWs)   bands (ev):

     0.1433   4.2354   5.1971   8.4285

          k =-0.2000-1.0000 0.0000 (   690 PWs)   bands (ev):

     0.3193   3.5321   7.4351   7.4772

          k = 0.6000-0.2000 1.0000 (   696 PWs)   bands (ev):

    -0.4231   4.5264   6.2642   7.8386

          k = 0.5000-0.1000 0.9000 (   690 PWs)   bands (ev):

     0.2357   4.1509   5.8406   7.3561

          k =-0.4000-1.0000 0.0000 (   692 PWs)   bands (ev):

     0.5080   4.2580   6.1459   6.4827

     highest occupied level (ev):    11.9258

!    total energy              =     -19.25564476 Ry
     estimated scf accuracy    <       0.00001826 Ry

     The total energy is the sum of the following terms:
     one-electron contribution =       7.26781819 Ry
     hartree contribution      =       2.23808005 Ry
     xc contribution           =      -6.40412521 Ry
     ewald contribution        =     -22.35741779 Ry

     convergence has been achieved in  16 iterations
     Writing meta-gga kinetic term

     Writing all to output data dir ./input_pw/SiC/4/pwscf.save/
     Writing meta-gga kinetic term
 
     init_run     :      0.98s CPU      2.25s WALL (       1 calls)
     electrons    :     14.57s CPU     22.65s WALL (       1 calls)

     Called by init_run:
     wfcinit      :      0.87s CPU      1.95s WALL (       1 calls)
     potinit      :      0.01s CPU      0.06s WALL (       1 calls)
     hinit0       :      0.09s CPU      0.23s WALL (       1 calls)

     Called by electrons:
     c_bands      :     12.00s CPU     18.55s WALL (      16 calls)
     sum_band     :      2.32s CPU      3.69s WALL (      16 calls)
     v_of_rho     :      0.16s CPU      0.27s WALL (      17 calls)
     mix_rho      :      0.10s CPU      0.18s WALL (      16 calls)

     Called by c_bands:
     init_us_2    :      0.14s CPU      0.23s WALL (    1551 calls)
     init_us_2:cp :      0.13s CPU      0.23s WALL (    1551 calls)
     cegterg      :     11.87s CPU     18.33s WALL (     752 calls)

     Called by *egterg:
     cdiaghg      :      0.09s CPU      0.16s WALL (    2166 calls)
     h_psi        :     12.39s CPU     19.64s WALL (    2213 calls)
     g_psi        :      0.01s CPU      0.01s WALL (    1414 calls)

     Called by h_psi:
     h_psi:calbec :      0.04s CPU      0.07s WALL (    2213 calls)
     vloc_psi     :      3.05s CPU      4.87s WALL (    2213 calls)
     add_vuspsi   :      0.04s CPU      0.08s WALL (    2213 calls)
     h_psi_meta   :      9.22s CPU     14.54s WALL (    2213 calls)

     General routines
     calbec       :      0.04s CPU      0.05s WALL (    2213 calls)
     fft          :      0.03s CPU      0.04s WALL (     201 calls)
     ffts         :      0.05s CPU      0.08s WALL (     307 calls)
     fftw         :     12.99s CPU     20.58s WALL (   82184 calls)
     interpolate  :      0.00s CPU      0.00s WALL (      17 calls)
 
     Parallel routines
 
     PWSCF        :     15.62s CPU     25.03s WALL

 
   This run was terminated on:  14:31:22   7Jul2023            

=------------------------------------------------------------------------------=
   JOB DONE.
=------------------------------------------------------------------------------=
