
     Program PWSCF v.7.0 starts on 14Mar2023 at 12: 2:31 

     This program is part of the open-source Quantum ESPRESSO suite
     for quantum simulation of materials; please cite
         "P. Giannozzi et al., J. Phys.:Condens. Matter 21 395502 (2009);
         "P. Giannozzi et al., J. Phys.:Condens. Matter 29 465901 (2017);
         "P. Giannozzi et al., J. Chem. Phys. 152 154105 (2020);
          URL http://www.quantum-espresso.org", 
     in publications or presentations arising from this work. More details at
     http://www.quantum-espresso.org/quote

     Parallel version (MPI), running on     1 processors

     MPI processes distributed on     1 nodes
     26737 MiB available memory on the printing compute node when the environment starts
 
     Waiting for input...
     Reading input from standard input
Warning: card &CELL ignored
Warning: card / ignored

     Current dimensions of program PWSCF are:
     Max number of different atomic species (ntypx) = 10
     Max number of k-points (npk) =  40000
     Max angular momentum in pseudopotentials (lmaxx) =  4
     file Si.SCAN.UPF2: wavefunction(s)  0D renormalized

     WARNING: the MGGA functional with ID    5 has been 
     read together with other dft terms, but it should 
     stand alone in order to work properly. The other 
     terms will be ignored.

     WARNING: the MGGA functional with ID    5 has been 
     read together with other dft terms, but it should 
     stand alone in order to work properly. The other 
     terms will be ignored.

     Subspace diagonalization in iterative solution of the eigenvalue problem:
     a serial algorithm will be used

 
     G-vector sticks info
     --------------------
     sticks:   dense  smooth     PW     G-vecs:    dense   smooth      PW
     Sum         421     421    139                 5769     5769    1067
 
     Using Slab Decomposition
 


     bravais-lattice index     =            2
     lattice parameter (alat)  =       7.8270  a.u.
     unit-cell volume          =     119.8743 (a.u.)^3
     number of atoms/cell      =            2
     number of atomic types    =            2
     number of electrons       =         8.00
     number of Kohn-Sham states=            4
     kinetic-energy cutoff     =      50.0000  Ry
     charge density cutoff     =     200.0000  Ry
     scf convergence threshold =      1.0E-06
     mixing beta               =       0.0100
     number of iterations used =            8  local-TF  mixing
     Exchange-correlation= SLA  PW   SCAN SCAN
                           (   0   0   0   0   0 263 267)

     celldm(1)=   7.827000  celldm(2)=   0.000000  celldm(3)=   0.000000
     celldm(4)=   0.000000  celldm(5)=   0.000000  celldm(6)=   0.000000

     crystal axes: (cart. coord. in units of alat)
               a(1) = (  -0.500000   0.000000   0.500000 )  
               a(2) = (   0.000000   0.500000   0.500000 )  
               a(3) = (  -0.500000   0.500000   0.000000 )  

     reciprocal axes: (cart. coord. in units 2 pi/alat)
               b(1) = ( -1.000000 -1.000000  1.000000 )  
               b(2) = (  1.000000  1.000000  1.000000 )  
               b(3) = ( -1.000000  1.000000 -1.000000 )  


     PseudoPot. # 1 for Si read from file:
     ~/Documents/TA/PWDFT.jl/pseudopotentials/scan_upf/Si.SCAN.UPF2
     MD5 check sum: Not computed, couldn't open file
     Pseudo is Norm-conserving, Zval =  4.0
     Generated by new atomic code, or converted to UPF format
     Using radial grid of 1475 points,  2 beta functions with: 
                l(1) =   0
                l(2) =   1

     PseudoPot. # 2 for C  read from file:
     ~/Documents/TA/PWDFT.jl/pseudopotentials/scan_upf/C.SCAN.UPF2
     MD5 check sum: Not computed, couldn't open file
     Pseudo is Norm-conserving, Zval =  4.0
     Generated by new atomic code, or converted to UPF format
     Using radial grid of 1389 points,  1 beta functions with: 
                l(1) =   0

     atomic species   valence    mass     pseudopotential
        Si             4.00    28.08550     Si( 1.00)
        C              4.00    12.01100     C ( 1.00)

     24 Sym. Ops. (no inversion) found



   Cartesian axes

     site n.     atom                  positions (alat units)
         1           Si  tau(   1) = (   0.0000000   0.0000000   0.0000000  )
         2           C   tau(   2) = (   0.2500000   0.2500000   0.2500000  )

     number of k points=    47
                       cart. coord. in units 2pi/alat
        k(    1) = (   0.0000000   0.0000000   0.0000000), wk =   0.0020000
        k(    2) = (  -0.1000000   0.1000000  -0.1000000), wk =   0.0160000
        k(    3) = (  -0.2000000   0.2000000  -0.2000000), wk =   0.0160000
        k(    4) = (  -0.3000000   0.3000000  -0.3000000), wk =   0.0160000
        k(    5) = (  -0.4000000   0.4000000  -0.4000000), wk =   0.0160000
        k(    6) = (   0.5000000  -0.5000000   0.5000000), wk =   0.0080000
        k(    7) = (   0.0000000   0.2000000   0.0000000), wk =   0.0120000
        k(    8) = (  -0.1000000   0.3000000  -0.1000000), wk =   0.0480000
        k(    9) = (  -0.2000000   0.4000000  -0.2000000), wk =   0.0480000
        k(   10) = (  -0.3000000   0.5000000  -0.3000000), wk =   0.0480000
        k(   11) = (   0.6000000  -0.4000000   0.6000000), wk =   0.0480000
        k(   12) = (   0.5000000  -0.3000000   0.5000000), wk =   0.0480000
        k(   13) = (   0.4000000  -0.2000000   0.4000000), wk =   0.0480000
        k(   14) = (   0.3000000  -0.1000000   0.3000000), wk =   0.0480000
        k(   15) = (   0.2000000   0.0000000   0.2000000), wk =   0.0240000
        k(   16) = (   0.0000000   0.4000000   0.0000000), wk =   0.0120000
        k(   17) = (  -0.1000000   0.5000000  -0.1000000), wk =   0.0480000
        k(   18) = (  -0.2000000   0.6000000  -0.2000000), wk =   0.0480000
        k(   19) = (   0.7000000  -0.3000000   0.7000000), wk =   0.0480000
        k(   20) = (   0.6000000  -0.2000000   0.6000000), wk =   0.0480000
        k(   21) = (   0.5000000  -0.1000000   0.5000000), wk =   0.0480000
        k(   22) = (   0.4000000   0.0000000   0.4000000), wk =   0.0240000
        k(   23) = (   0.0000000   0.6000000   0.0000000), wk =   0.0120000
        k(   24) = (  -0.1000000   0.7000000  -0.1000000), wk =   0.0480000
        k(   25) = (   0.8000000  -0.2000000   0.8000000), wk =   0.0480000
        k(   26) = (   0.7000000  -0.1000000   0.7000000), wk =   0.0480000
        k(   27) = (   0.6000000  -0.0000000   0.6000000), wk =   0.0240000
        k(   28) = (   0.0000000   0.8000000   0.0000000), wk =   0.0120000
        k(   29) = (   0.9000000  -0.1000000   0.9000000), wk =   0.0480000
        k(   30) = (   0.8000000   0.0000000   0.8000000), wk =   0.0240000
        k(   31) = (   0.0000000  -1.0000000   0.0000000), wk =   0.0060000
        k(   32) = (  -0.2000000   0.4000000   0.0000000), wk =   0.0480000
        k(   33) = (  -0.3000000   0.5000000  -0.1000000), wk =   0.0960000
        k(   34) = (   0.6000000  -0.4000000   0.8000000), wk =   0.0960000
        k(   35) = (   0.5000000  -0.3000000   0.7000000), wk =   0.0480000
        k(   36) = (  -0.2000000   0.6000000   0.0000000), wk =   0.0480000
        k(   37) = (   0.7000000  -0.3000000   0.9000000), wk =   0.0960000
        k(   38) = (   0.6000000  -0.2000000   0.8000000), wk =   0.0960000
        k(   39) = (   0.5000000  -0.1000000   0.7000000), wk =   0.0960000
        k(   40) = (   0.4000000   0.0000000   0.6000000), wk =   0.0480000
        k(   41) = (   0.8000000  -0.2000000   1.0000000), wk =   0.0480000
        k(   42) = (   0.7000000  -0.1000000   0.9000000), wk =   0.0960000
        k(   43) = (   0.6000000   0.0000000   0.8000000), wk =   0.0480000
        k(   44) = (  -0.2000000  -1.0000000   0.0000000), wk =   0.0240000
        k(   45) = (   0.6000000  -0.2000000   1.0000000), wk =   0.0480000
        k(   46) = (   0.5000000  -0.1000000   0.9000000), wk =   0.0480000
        k(   47) = (  -0.4000000  -1.0000000   0.0000000), wk =   0.0240000

     Dense  grid:     5769 G-vectors     FFT dimensions: (  25,  25,  25)

     Estimated max dynamical RAM per process >      10.85 MB

     WARNING: libxc functional with ID  263 depends
      on external parameters: check the user_guide of
      QE if you need to modify them or to check their
      default values.

     Initial potential from superposition of free atoms

     starting charge       7.9995, renormalised to       8.0000
     Starting wfcs are   13 randomized atomic wfcs

     total cpu time spent up to now is        2.5 secs

     Self-consistent Calculation

     iteration #  1     ecut=    50.00 Ry     beta= 0.01
     Davidson diagonalization with overlap
     ethr =  1.00E-02,  avg # of iterations =  2.0

     total cpu time spent up to now is        4.8 secs

     total energy              =     -19.34950067 Ry
     estimated scf accuracy    <       2.55514263 Ry

     iteration #  2     ecut=    50.00 Ry     beta= 0.01
     Davidson diagonalization with overlap
     ethr =  1.00E-02,  avg # of iterations =  1.0

     total cpu time spent up to now is        6.6 secs

     total energy              =     -19.21482157 Ry
     estimated scf accuracy    <       2.49797847 Ry

     iteration #  3     ecut=    50.00 Ry     beta= 0.01
     Davidson diagonalization with overlap
     ethr =  1.00E-02,  avg # of iterations =  1.0

     total cpu time spent up to now is        8.3 secs

     total energy              =     -19.25468311 Ry
     estimated scf accuracy    <       0.06844664 Ry

     iteration #  4     ecut=    50.00 Ry     beta= 0.01
     Davidson diagonalization with overlap
     ethr =  8.56E-04,  avg # of iterations =  2.0

     total cpu time spent up to now is       10.5 secs

     total energy              =     -19.26280308 Ry
     estimated scf accuracy    <       0.04538524 Ry

     iteration #  5     ecut=    50.00 Ry     beta= 0.01
     Davidson diagonalization with overlap
     ethr =  5.67E-04,  avg # of iterations =  1.0

     total cpu time spent up to now is       12.1 secs

     total energy              =     -19.26356527 Ry
     estimated scf accuracy    <       0.06333215 Ry

     iteration #  6     ecut=    50.00 Ry     beta= 0.01
     Davidson diagonalization with overlap
     ethr =  5.67E-04,  avg # of iterations =  1.0

     total cpu time spent up to now is       13.7 secs

     total energy              =     -19.26985304 Ry
     estimated scf accuracy    <       0.05729965 Ry

     iteration #  7     ecut=    50.00 Ry     beta= 0.01
     Davidson diagonalization with overlap
     ethr =  5.67E-04,  avg # of iterations =  2.0

     total cpu time spent up to now is       15.8 secs

     total energy              =     -19.27441918 Ry
     estimated scf accuracy    <       0.12818658 Ry

     iteration #  8     ecut=    50.00 Ry     beta= 0.01
     Davidson diagonalization with overlap
     ethr =  5.67E-04,  avg # of iterations =  1.0

     total cpu time spent up to now is       17.4 secs

     total energy              =     -19.27494627 Ry
     estimated scf accuracy    <       0.01682254 Ry

     iteration #  9     ecut=    50.00 Ry     beta= 0.01
     Davidson diagonalization with overlap
     ethr =  2.10E-04,  avg # of iterations =  1.0

     total cpu time spent up to now is       19.1 secs

     total energy              =     -19.27434659 Ry
     estimated scf accuracy    <       0.01926038 Ry

     iteration # 10     ecut=    50.00 Ry     beta= 0.01
     Davidson diagonalization with overlap
     ethr =  2.10E-04,  avg # of iterations =  1.0

     total cpu time spent up to now is       20.6 secs

     total energy              =     -19.27346442 Ry
     estimated scf accuracy    <       0.00938022 Ry

     iteration # 11     ecut=    50.00 Ry     beta= 0.01
     Davidson diagonalization with overlap
     ethr =  1.17E-04,  avg # of iterations =  1.0

     total cpu time spent up to now is       22.2 secs

     total energy              =     -19.27395706 Ry
     estimated scf accuracy    <       0.00004222 Ry

     iteration # 12     ecut=    50.00 Ry     beta= 0.01
     Davidson diagonalization with overlap
     ethr =  5.28E-07,  avg # of iterations =  3.3

     total cpu time spent up to now is       25.1 secs

     total energy              =     -19.27402521 Ry
     estimated scf accuracy    <       0.00015391 Ry

     iteration # 13     ecut=    50.00 Ry     beta= 0.01
     Davidson diagonalization with overlap
     ethr =  5.28E-07,  avg # of iterations =  1.0

     total cpu time spent up to now is       26.9 secs

     total energy              =     -19.27401332 Ry
     estimated scf accuracy    <       0.00010621 Ry

     iteration # 14     ecut=    50.00 Ry     beta= 0.01
     Davidson diagonalization with overlap
     ethr =  5.28E-07,  avg # of iterations =  1.0

     total cpu time spent up to now is       28.7 secs

     total energy              =     -19.27403153 Ry
     estimated scf accuracy    <       0.00002695 Ry

     iteration # 15     ecut=    50.00 Ry     beta= 0.01
     Davidson diagonalization with overlap
     ethr =  3.37E-07,  avg # of iterations =  3.0

     total cpu time spent up to now is       31.7 secs

     total energy              =     -19.27406299 Ry
     estimated scf accuracy    <       0.00056090 Ry

     iteration # 16     ecut=    50.00 Ry     beta= 0.01
     Davidson diagonalization with overlap
     ethr =  3.37E-07,  avg # of iterations =  1.0

     total cpu time spent up to now is       33.5 secs

     total energy              =     -19.27405341 Ry
     estimated scf accuracy    <       0.00054954 Ry

     iteration # 17     ecut=    50.00 Ry     beta= 0.01
     Davidson diagonalization with overlap
     ethr =  3.37E-07,  avg # of iterations =  1.0

     total cpu time spent up to now is       35.3 secs

     total energy              =     -19.27408204 Ry
     estimated scf accuracy    <       0.00044827 Ry

     iteration # 18     ecut=    50.00 Ry     beta= 0.01
     Davidson diagonalization with overlap
     ethr =  3.37E-07,  avg # of iterations =  2.0

     total cpu time spent up to now is       37.6 secs

     total energy              =     -19.27402234 Ry
     estimated scf accuracy    <       0.00096854 Ry

     iteration # 19     ecut=    50.00 Ry     beta= 0.01
     Davidson diagonalization with overlap
     ethr =  3.37E-07,  avg # of iterations =  2.2

     total cpu time spent up to now is       40.3 secs

     total energy              =     -19.27403862 Ry
     estimated scf accuracy    <       0.00006182 Ry

     iteration # 20     ecut=    50.00 Ry     beta= 0.01
     Davidson diagonalization with overlap
     ethr =  3.37E-07,  avg # of iterations =  1.0

     total cpu time spent up to now is       42.0 secs

     total energy              =     -19.27403788 Ry
     estimated scf accuracy    <       0.00002880 Ry

     iteration # 21     ecut=    50.00 Ry     beta= 0.01
     Davidson diagonalization with overlap
     ethr =  3.37E-07,  avg # of iterations =  1.0

     total cpu time spent up to now is       43.8 secs

     End of self-consistent calculation

          k = 0.0000 0.0000 0.0000 (   725 PWs)   bands (ev):

    -6.1151  11.2989  11.2989  11.2989

          k =-0.1000 0.1000-0.1000 (   712 PWs)   bands (ev):

    -5.8869  10.2388  11.1582  11.1582

          k =-0.2000 0.2000-0.2000 (   718 PWs)   bands (ev):

    -5.2121   7.8898  10.8288  10.8288

          k =-0.3000 0.3000-0.3000 (   718 PWs)   bands (ev):

    -4.1287   5.2589  10.4876  10.4876

          k =-0.4000 0.4000-0.4000 (   721 PWs)   bands (ev):

    -2.7726   2.8765  10.2492  10.2492

          k = 0.5000-0.5000 0.5000 (   718 PWs)   bands (ev):

    -1.8804   1.6300  10.1657  10.1657

          k = 0.0000 0.2000 0.0000 (   713 PWs)   bands (ev):

    -5.8109  10.5714  10.7705  10.7705

          k =-0.1000 0.3000-0.1000 (   707 PWs)   bands (ev):

    -5.2848   8.7219  10.2901  10.6664

          k =-0.2000 0.4000-0.2000 (   713 PWs)   bands (ev):

    -4.3350   6.2222   9.9164  10.2827

          k =-0.3000 0.5000-0.3000 (   712 PWs)   bands (ev):

    -3.0491   3.7637   9.7528   9.7936

          k = 0.6000-0.4000 0.6000 (   721 PWs)   bands (ev):

    -1.8417   1.9891   9.3779   9.8242

          k = 0.5000-0.3000 0.5000 (   721 PWs)   bands (ev):

    -2.1683   2.4324   9.1509  10.1109

          k = 0.4000-0.2000 0.4000 (   724 PWs)   bands (ev):

    -3.5051   4.5520   9.1765  10.5345

          k = 0.3000-0.1000 0.3000 (   720 PWs)   bands (ev):

    -4.6966   7.0526   9.4895  10.9736

          k = 0.2000 0.0000 0.2000 (   711 PWs)   bands (ev):

    -5.5098   9.2284  10.1948  11.2368

          k = 0.0000 0.4000 0.0000 (   709 PWs)   bands (ev):

    -4.9110   8.8715   9.6667   9.6667

          k =-0.1000 0.5000-0.1000 (   714 PWs)   bands (ev):

    -4.1093   7.0877   9.1943   9.2403

          k =-0.2000 0.6000-0.2000 (   718 PWs)   bands (ev):

    -2.9422   4.8667   8.4899   8.9873

          k = 0.7000-0.3000 0.7000 (   714 PWs)   bands (ev):

    -1.6571   2.9290   7.7222   9.0821

          k = 0.6000-0.2000 0.6000 (   711 PWs)   bands (ev):

    -1.3656   2.5534   7.1986   9.4556

          k = 0.5000-0.1000 0.5000 (   714 PWs)   bands (ev):

    -2.5186   4.1821   7.0718  10.0278

          k = 0.4000 0.0000 0.4000 (   728 PWs)   bands (ev):

    -3.7676   6.0464   7.7113  10.6242

          k = 0.0000 0.6000 0.0000 (   717 PWs)   bands (ev):

    -3.4624   6.7137   8.6145   8.6145

          k =-0.1000 0.7000-0.1000 (   716 PWs)   bands (ev):

    -2.4461   5.3119   7.7371   8.3157

          k = 0.8000-0.2000 0.8000 (   714 PWs)   bands (ev):

    -1.2405   3.8743   6.3750   8.3468

          k = 0.7000-0.1000 0.7000 (   718 PWs)   bands (ev):

    -0.5827   3.2265   5.3510   8.6971

          k = 0.6000-0.0000 0.6000 (   718 PWs)   bands (ev):

    -1.3355   3.9161   5.3180   9.3111

          k = 0.0000 0.8000 0.0000 (   717 PWs)   bands (ev):

    -1.6117   4.3413   7.9125   7.9125

          k = 0.9000-0.1000 0.9000 (   714 PWs)   bands (ev):

    -0.6406   3.3729   6.9206   7.8451

          k = 0.8000 0.0000 0.8000 (   714 PWs)   bands (ev):

    -0.1660   3.2878   5.3540   8.1201

          k = 0.0000-1.0000 0.0000 (   724 PWs)   bands (ev):

    -0.2660   2.7893   7.6682   7.6682

          k =-0.2000 0.4000 0.0000 (   713 PWs)   bands (ev):

    -4.6202   7.5980   9.0127  10.4905

          k =-0.3000 0.5000-0.1000 (   718 PWs)   bands (ev):

    -3.5573   5.5446   8.2777  10.0335

          k = 0.6000-0.4000 0.8000 (   716 PWs)   bands (ev):

    -2.2405   3.3662   8.0609   9.5013

          k = 0.5000-0.3000 0.7000 (   714 PWs)   bands (ev):

    -1.3948   2.2057   8.0380   9.2582

          k =-0.2000 0.6000 0.0000 (   716 PWs)   bands (ev):

    -3.1957   6.0151   7.9017   8.9242

          k = 0.7000-0.3000 0.9000 (   717 PWs)   bands (ev):

    -1.9840   4.3996   7.0486   8.3434

          k = 0.6000-0.2000 0.8000 (   710 PWs)   bands (ev):

    -0.9145   3.0365   6.4227   8.2511

          k = 0.5000-0.1000 0.7000 (   714 PWs)   bands (ev):

    -1.2158   3.4287   6.0778   8.6783

          k = 0.4000 0.0000 0.6000 (   716 PWs)   bands (ev):

    -2.4330   4.8073   6.5250   9.3875

          k = 0.8000-0.2000 1.0000 (   723 PWs)   bands (ev):

    -1.4054   4.2965   7.1642   7.4920

          k = 0.7000-0.1000 0.9000 (   719 PWs)   bands (ev):

    -0.4181   3.5835   5.7236   7.4068

          k = 0.6000 0.0000 0.8000 (   715 PWs)   bands (ev):

    -0.3465   3.7120   4.7999   7.8845

          k =-0.2000-1.0000 0.0000 (   716 PWs)   bands (ev):

    -0.1694   3.0541   6.9336   6.9593

          k = 0.6000-0.2000 1.0000 (   708 PWs)   bands (ev):

    -0.8757   4.0110   5.7870   7.3312

          k = 0.5000-0.1000 0.9000 (   716 PWs)   bands (ev):

    -0.2580   3.6534   5.3801   6.8681

          k =-0.4000-1.0000 0.0000 (   712 PWs)   bands (ev):

     0.0028   3.7201   5.7063   6.0319

     highest occupied level (ev):    11.2989

!    total energy              =     -19.27403951 Ry
     estimated scf accuracy    <       0.00000052 Ry

     The total energy is the sum of the following terms:
     one-electron contribution =       6.81376691 Ry
     hartree contribution      =       2.26881268 Ry
     xc contribution           =      -6.33316981 Ry
     ewald contribution        =     -22.02344930 Ry

     convergence has been achieved in  21 iterations
     Writing meta-gga kinetic term

     Writing all to output data dir ./input_pw/SiC/4/pwscf.save/
     Writing meta-gga kinetic term
 
     init_run     :      0.99s CPU      2.38s WALL (       1 calls)
     electrons    :     17.05s CPU     41.28s WALL (       1 calls)

     Called by init_run:
     wfcinit      :      0.89s CPU      2.10s WALL (       1 calls)
     potinit      :      0.01s CPU      0.03s WALL (       1 calls)
     hinit0       :      0.08s CPU      0.23s WALL (       1 calls)

     Called by electrons:
     c_bands      :     13.67s CPU     32.96s WALL (      21 calls)
     sum_band     :      3.02s CPU      7.39s WALL (      21 calls)
     v_of_rho     :      0.21s CPU      0.52s WALL (      22 calls)
     mix_rho      :      0.15s CPU      0.37s WALL (      21 calls)

     Called by c_bands:
     init_us_2    :      0.19s CPU      0.41s WALL (    2021 calls)
     init_us_2:cp :      0.18s CPU      0.41s WALL (    2021 calls)
     cegterg      :     13.49s CPU     32.44s WALL (     987 calls)

     Called by *egterg:
     cdiaghg      :      0.13s CPU      0.31s WALL (    2419 calls)
     h_psi        :     13.94s CPU     33.46s WALL (    2466 calls)
     g_psi        :      0.01s CPU      0.01s WALL (    1432 calls)

     Called by h_psi:
     h_psi:calbec :      0.05s CPU      0.05s WALL (    2466 calls)
     vloc_psi     :      3.42s CPU      7.93s WALL (    2466 calls)
     add_vuspsi   :      0.06s CPU      0.21s WALL (    2466 calls)
     h_psi_meta   :     10.38s CPU     25.18s WALL (    2466 calls)

     General routines
     calbec       :      0.05s CPU      0.05s WALL (    2466 calls)
     fft          :      0.04s CPU      0.10s WALL (     261 calls)
     ffts         :      0.06s CPU      0.18s WALL (     408 calls)
     fftw         :     14.81s CPU     35.99s WALL (   95472 calls)
     interpolate  :      0.00s CPU      0.00s WALL (      22 calls)
 
     Parallel routines
 
     PWSCF        :     18.09s CPU     43.81s WALL

 
   This run was terminated on:  12: 3:15  14Mar2023            

=------------------------------------------------------------------------------=
   JOB DONE.
=------------------------------------------------------------------------------=
