
     Program PWSCF v.7.0 starts on 29Mar2023 at 12:56: 4 

     This program is part of the open-source Quantum ESPRESSO suite
     for quantum simulation of materials; please cite
         "P. Giannozzi et al., J. Phys.:Condens. Matter 21 395502 (2009);
         "P. Giannozzi et al., J. Phys.:Condens. Matter 29 465901 (2017);
         "P. Giannozzi et al., J. Chem. Phys. 152 154105 (2020);
          URL http://www.quantum-espresso.org", 
     in publications or presentations arising from this work. More details at
     http://www.quantum-espresso.org/quote

     Parallel version (MPI), running on     1 processors

     MPI processes distributed on     1 nodes
     23373 MiB available memory on the printing compute node when the environment starts
 
     Waiting for input...
     Reading input from standard input
Warning: card &CELL ignored
Warning: card / ignored

     Current dimensions of program PWSCF are:
     Max number of different atomic species (ntypx) = 10
     Max number of k-points (npk) =  40000
     Max angular momentum in pseudopotentials (lmaxx) =  4
     file Si.SCAN.UPF2: wavefunction(s)  0D renormalized

     WARNING: the MGGA functional with ID    5 has been 
     read together with other dft terms, but it should 
     stand alone in order to work properly. The other 
     terms will be ignored.

     WARNING: the MGGA functional with ID    5 has been 
     read together with other dft terms, but it should 
     stand alone in order to work properly. The other 
     terms will be ignored.

     Subspace diagonalization in iterative solution of the eigenvalue problem:
     a serial algorithm will be used

 
     G-vector sticks info
     --------------------
     sticks:   dense  smooth     PW     G-vecs:    dense   smooth      PW
     Sum         421     421    139                 5577     5577    1037
 
     Using Slab Decomposition
 


     bravais-lattice index     =            2
     lattice parameter (alat)  =       7.7101  a.u.
     unit-cell volume          =     114.5822 (a.u.)^3
     number of atoms/cell      =            2
     number of atomic types    =            2
     number of electrons       =         8.00
     number of Kohn-Sham states=            4
     kinetic-energy cutoff     =      50.0000  Ry
     charge density cutoff     =     200.0000  Ry
     scf convergence threshold =      1.0E-06
     mixing beta               =       0.0100
     number of iterations used =            8  local-TF  mixing
     Exchange-correlation= SLA  PW   SCAN SCAN
                           (   0   0   0   0   0 263 267)

     celldm(1)=   7.710083  celldm(2)=   0.000000  celldm(3)=   0.000000
     celldm(4)=   0.000000  celldm(5)=   0.000000  celldm(6)=   0.000000

     crystal axes: (cart. coord. in units of alat)
               a(1) = (  -0.500000   0.000000   0.500000 )  
               a(2) = (   0.000000   0.500000   0.500000 )  
               a(3) = (  -0.500000   0.500000   0.000000 )  

     reciprocal axes: (cart. coord. in units 2 pi/alat)
               b(1) = ( -1.000000 -1.000000  1.000000 )  
               b(2) = (  1.000000  1.000000  1.000000 )  
               b(3) = ( -1.000000  1.000000 -1.000000 )  


     PseudoPot. # 1 for Si read from file:
     ~/Documents/TA/PWDFT.jl/pseudopotentials/scan_upf/Si.SCAN.UPF2
     MD5 check sum: Not computed, couldn't open file
     Pseudo is Norm-conserving, Zval =  4.0
     Generated by new atomic code, or converted to UPF format
     Using radial grid of 1475 points,  2 beta functions with: 
                l(1) =   0
                l(2) =   1

     PseudoPot. # 2 for C  read from file:
     ~/Documents/TA/PWDFT.jl/pseudopotentials/scan_upf/C.SCAN.UPF2
     MD5 check sum: Not computed, couldn't open file
     Pseudo is Norm-conserving, Zval =  4.0
     Generated by new atomic code, or converted to UPF format
     Using radial grid of 1389 points,  1 beta functions with: 
                l(1) =   0

     atomic species   valence    mass     pseudopotential
        Si             4.00    28.08550     Si( 1.00)
        C              4.00    12.01100     C ( 1.00)

     24 Sym. Ops. (no inversion) found



   Cartesian axes

     site n.     atom                  positions (alat units)
         1           Si  tau(   1) = (   0.0000000   0.0000000   0.0000000  )
         2           C   tau(   2) = (   0.2500000   0.2500000   0.2500000  )

     number of k points=    47
                       cart. coord. in units 2pi/alat
        k(    1) = (   0.0000000   0.0000000   0.0000000), wk =   0.0020000
        k(    2) = (  -0.1000000   0.1000000  -0.1000000), wk =   0.0160000
        k(    3) = (  -0.2000000   0.2000000  -0.2000000), wk =   0.0160000
        k(    4) = (  -0.3000000   0.3000000  -0.3000000), wk =   0.0160000
        k(    5) = (  -0.4000000   0.4000000  -0.4000000), wk =   0.0160000
        k(    6) = (   0.5000000  -0.5000000   0.5000000), wk =   0.0080000
        k(    7) = (   0.0000000   0.2000000   0.0000000), wk =   0.0120000
        k(    8) = (  -0.1000000   0.3000000  -0.1000000), wk =   0.0480000
        k(    9) = (  -0.2000000   0.4000000  -0.2000000), wk =   0.0480000
        k(   10) = (  -0.3000000   0.5000000  -0.3000000), wk =   0.0480000
        k(   11) = (   0.6000000  -0.4000000   0.6000000), wk =   0.0480000
        k(   12) = (   0.5000000  -0.3000000   0.5000000), wk =   0.0480000
        k(   13) = (   0.4000000  -0.2000000   0.4000000), wk =   0.0480000
        k(   14) = (   0.3000000  -0.1000000   0.3000000), wk =   0.0480000
        k(   15) = (   0.2000000   0.0000000   0.2000000), wk =   0.0240000
        k(   16) = (   0.0000000   0.4000000   0.0000000), wk =   0.0120000
        k(   17) = (  -0.1000000   0.5000000  -0.1000000), wk =   0.0480000
        k(   18) = (  -0.2000000   0.6000000  -0.2000000), wk =   0.0480000
        k(   19) = (   0.7000000  -0.3000000   0.7000000), wk =   0.0480000
        k(   20) = (   0.6000000  -0.2000000   0.6000000), wk =   0.0480000
        k(   21) = (   0.5000000  -0.1000000   0.5000000), wk =   0.0480000
        k(   22) = (   0.4000000   0.0000000   0.4000000), wk =   0.0240000
        k(   23) = (   0.0000000   0.6000000   0.0000000), wk =   0.0120000
        k(   24) = (  -0.1000000   0.7000000  -0.1000000), wk =   0.0480000
        k(   25) = (   0.8000000  -0.2000000   0.8000000), wk =   0.0480000
        k(   26) = (   0.7000000  -0.1000000   0.7000000), wk =   0.0480000
        k(   27) = (   0.6000000  -0.0000000   0.6000000), wk =   0.0240000
        k(   28) = (   0.0000000   0.8000000   0.0000000), wk =   0.0120000
        k(   29) = (   0.9000000  -0.1000000   0.9000000), wk =   0.0480000
        k(   30) = (   0.8000000   0.0000000   0.8000000), wk =   0.0240000
        k(   31) = (   0.0000000  -1.0000000   0.0000000), wk =   0.0060000
        k(   32) = (  -0.2000000   0.4000000   0.0000000), wk =   0.0480000
        k(   33) = (  -0.3000000   0.5000000  -0.1000000), wk =   0.0960000
        k(   34) = (   0.6000000  -0.4000000   0.8000000), wk =   0.0960000
        k(   35) = (   0.5000000  -0.3000000   0.7000000), wk =   0.0480000
        k(   36) = (  -0.2000000   0.6000000   0.0000000), wk =   0.0480000
        k(   37) = (   0.7000000  -0.3000000   0.9000000), wk =   0.0960000
        k(   38) = (   0.6000000  -0.2000000   0.8000000), wk =   0.0960000
        k(   39) = (   0.5000000  -0.1000000   0.7000000), wk =   0.0960000
        k(   40) = (   0.4000000   0.0000000   0.6000000), wk =   0.0480000
        k(   41) = (   0.8000000  -0.2000000   1.0000000), wk =   0.0480000
        k(   42) = (   0.7000000  -0.1000000   0.9000000), wk =   0.0960000
        k(   43) = (   0.6000000   0.0000000   0.8000000), wk =   0.0480000
        k(   44) = (  -0.2000000  -1.0000000   0.0000000), wk =   0.0240000
        k(   45) = (   0.6000000  -0.2000000   1.0000000), wk =   0.0480000
        k(   46) = (   0.5000000  -0.1000000   0.9000000), wk =   0.0480000
        k(   47) = (  -0.4000000  -1.0000000   0.0000000), wk =   0.0240000

     Dense  grid:     5577 G-vectors     FFT dimensions: (  25,  25,  25)

     Estimated max dynamical RAM per process >      10.53 MB

     WARNING: libxc functional with ID  263 depends
      on external parameters: check the user_guide of
      QE if you need to modify them or to check their
      default values.

     Initial potential from superposition of free atoms

     starting charge       7.9995, renormalised to       8.0000
     Starting wfcs are   13 randomized atomic wfcs

     total cpu time spent up to now is        2.3 secs

     Self-consistent Calculation

     iteration #  1     ecut=    50.00 Ry     beta= 0.01
     Davidson diagonalization with overlap
     ethr =  1.00E-02,  avg # of iterations =  2.0

     total cpu time spent up to now is        4.3 secs

     total energy              =     -19.34164868 Ry
     estimated scf accuracy    <       2.68444748 Ry

     iteration #  2     ecut=    50.00 Ry     beta= 0.01
     Davidson diagonalization with overlap
     ethr =  1.00E-02,  avg # of iterations =  1.0

     total cpu time spent up to now is        5.8 secs

     total energy              =     -19.19868769 Ry
     estimated scf accuracy    <       2.62240529 Ry

     iteration #  3     ecut=    50.00 Ry     beta= 0.01
     Davidson diagonalization with overlap
     ethr =  1.00E-02,  avg # of iterations =  1.0

     total cpu time spent up to now is        7.3 secs

     total energy              =     -19.23435850 Ry
     estimated scf accuracy    <       0.08954220 Ry

     iteration #  4     ecut=    50.00 Ry     beta= 0.01
     Davidson diagonalization with overlap
     ethr =  1.12E-03,  avg # of iterations =  1.9

     total cpu time spent up to now is        9.0 secs

     total energy              =     -19.24437993 Ry
     estimated scf accuracy    <       0.04676015 Ry

     iteration #  5     ecut=    50.00 Ry     beta= 0.01
     Davidson diagonalization with overlap
     ethr =  5.85E-04,  avg # of iterations =  1.0

     total cpu time spent up to now is       10.5 secs

     total energy              =     -19.24685304 Ry
     estimated scf accuracy    <       0.04772957 Ry

     iteration #  6     ecut=    50.00 Ry     beta= 0.01
     Davidson diagonalization with overlap
     ethr =  5.85E-04,  avg # of iterations =  1.0

     total cpu time spent up to now is       11.9 secs

     total energy              =     -19.25584500 Ry
     estimated scf accuracy    <       0.03932405 Ry

     iteration #  7     ecut=    50.00 Ry     beta= 0.01
     Davidson diagonalization with overlap
     ethr =  4.92E-04,  avg # of iterations =  1.0

     total cpu time spent up to now is       13.3 secs

     total energy              =     -19.25163592 Ry
     estimated scf accuracy    <       0.07461782 Ry

     iteration #  8     ecut=    50.00 Ry     beta= 0.01
     Davidson diagonalization with overlap
     ethr =  4.92E-04,  avg # of iterations =  1.7

     total cpu time spent up to now is       14.9 secs

     total energy              =     -19.25497731 Ry
     estimated scf accuracy    <       0.00119533 Ry

     iteration #  9     ecut=    50.00 Ry     beta= 0.01
     Davidson diagonalization with overlap
     ethr =  1.49E-05,  avg # of iterations =  2.1

     total cpu time spent up to now is       16.7 secs

     total energy              =     -19.25525940 Ry
     estimated scf accuracy    <       0.00106360 Ry

     iteration # 10     ecut=    50.00 Ry     beta= 0.01
     Davidson diagonalization with overlap
     ethr =  1.33E-05,  avg # of iterations =  1.0

     total cpu time spent up to now is       18.2 secs

     total energy              =     -19.25620172 Ry
     estimated scf accuracy    <       0.00089108 Ry

     iteration # 11     ecut=    50.00 Ry     beta= 0.01
     Davidson diagonalization with overlap
     ethr =  1.11E-05,  avg # of iterations =  2.3

     total cpu time spent up to now is       20.2 secs

     total energy              =     -19.25665238 Ry
     estimated scf accuracy    <       0.00952946 Ry

     iteration # 12     ecut=    50.00 Ry     beta= 0.01
     Davidson diagonalization with overlap
     ethr =  1.11E-05,  avg # of iterations =  1.0

     total cpu time spent up to now is       21.7 secs

     total energy              =     -19.25658430 Ry
     estimated scf accuracy    <       0.00990020 Ry

     iteration # 13     ecut=    50.00 Ry     beta= 0.01
     Davidson diagonalization with overlap
     ethr =  1.11E-05,  avg # of iterations =  1.0

     total cpu time spent up to now is       23.2 secs

     total energy              =     -19.25695737 Ry
     estimated scf accuracy    <       0.00906844 Ry

     iteration # 14     ecut=    50.00 Ry     beta= 0.01
     Davidson diagonalization with overlap
     ethr =  1.11E-05,  avg # of iterations =  1.0

     total cpu time spent up to now is       24.7 secs

     total energy              =     -19.25575861 Ry
     estimated scf accuracy    <       0.01297993 Ry

     iteration # 15     ecut=    50.00 Ry     beta= 0.01
     Davidson diagonalization with overlap
     ethr =  1.11E-05,  avg # of iterations =  2.0

     total cpu time spent up to now is       26.8 secs

     total energy              =     -19.25578332 Ry
     estimated scf accuracy    <       0.00318243 Ry

     iteration # 16     ecut=    50.00 Ry     beta= 0.01
     Davidson diagonalization with overlap
     ethr =  1.11E-05,  avg # of iterations =  1.0

     total cpu time spent up to now is       28.3 secs

     total energy              =     -19.25582398 Ry
     estimated scf accuracy    <       0.00179653 Ry

     iteration # 17     ecut=    50.00 Ry     beta= 0.01
     Davidson diagonalization with overlap
     ethr =  1.11E-05,  avg # of iterations =  1.0

     total cpu time spent up to now is       29.8 secs

     total energy              =     -19.25574979 Ry
     estimated scf accuracy    <       0.00191793 Ry

     iteration # 18     ecut=    50.00 Ry     beta= 0.01
     Davidson diagonalization with overlap
     ethr =  1.11E-05,  avg # of iterations =  1.0

     total cpu time spent up to now is       31.3 secs

     total energy              =     -19.25559504 Ry
     estimated scf accuracy    <       0.00118710 Ry

     iteration # 19     ecut=    50.00 Ry     beta= 0.01
     Davidson diagonalization with overlap
     ethr =  1.11E-05,  avg # of iterations =  1.0

     total cpu time spent up to now is       32.7 secs

     total energy              =     -19.25564800 Ry
     estimated scf accuracy    <       0.00003229 Ry

     iteration # 20     ecut=    50.00 Ry     beta= 0.01
     Davidson diagonalization with overlap
     ethr =  4.04E-07,  avg # of iterations =  2.0

     total cpu time spent up to now is       34.1 secs

     total energy              =     -19.25565350 Ry
     estimated scf accuracy    <       0.00000813 Ry

     iteration # 21     ecut=    50.00 Ry     beta= 0.01
     Davidson diagonalization with overlap
     ethr =  1.02E-07,  avg # of iterations =  1.0

     total cpu time spent up to now is       35.2 secs

     total energy              =     -19.25565250 Ry
     estimated scf accuracy    <       0.00002344 Ry

     iteration # 22     ecut=    50.00 Ry     beta= 0.01
     Davidson diagonalization with overlap
     ethr =  1.02E-07,  avg # of iterations =  1.0

     total cpu time spent up to now is       36.2 secs

     total energy              =     -19.25565341 Ry
     estimated scf accuracy    <       0.00000778 Ry

     iteration # 23     ecut=    50.00 Ry     beta= 0.01
     Davidson diagonalization with overlap
     ethr =  9.72E-08,  avg # of iterations =  1.0

     total cpu time spent up to now is       37.3 secs

     total energy              =     -19.25565382 Ry
     estimated scf accuracy    <       0.00001933 Ry

     iteration # 24     ecut=    50.00 Ry     beta= 0.01
     Davidson diagonalization with overlap
     ethr =  9.72E-08,  avg # of iterations =  1.0

     total cpu time spent up to now is       38.4 secs

     total energy              =     -19.25565547 Ry
     estimated scf accuracy    <       0.00001878 Ry

     iteration # 25     ecut=    50.00 Ry     beta= 0.01
     Davidson diagonalization with overlap
     ethr =  9.72E-08,  avg # of iterations =  2.0

     total cpu time spent up to now is       40.0 secs

     total energy              =     -19.25565390 Ry
     estimated scf accuracy    <       0.00000896 Ry

     iteration # 26     ecut=    50.00 Ry     beta= 0.01
     Davidson diagonalization with overlap
     ethr =  9.72E-08,  avg # of iterations =  1.7

     total cpu time spent up to now is       41.0 secs

     total energy              =     -19.25565628 Ry
     estimated scf accuracy    <       0.00000147 Ry

     iteration # 27     ecut=    50.00 Ry     beta= 0.01
     Davidson diagonalization with overlap
     ethr =  1.84E-08,  avg # of iterations =  2.0

     total cpu time spent up to now is       42.4 secs

     total energy              =     -19.25565560 Ry
     estimated scf accuracy    <       0.00000238 Ry

     iteration # 28     ecut=    50.00 Ry     beta= 0.01
     Davidson diagonalization with overlap
     ethr =  1.84E-08,  avg # of iterations =  2.0

     total cpu time spent up to now is       44.0 secs

     total energy              =     -19.25565574 Ry
     estimated scf accuracy    <       0.00000203 Ry

     iteration # 29     ecut=    50.00 Ry     beta= 0.01
     Davidson diagonalization with overlap
     ethr =  1.84E-08,  avg # of iterations =  1.0

     total cpu time spent up to now is       44.8 secs

     total energy              =     -19.25565603 Ry
     estimated scf accuracy    <       0.00000177 Ry

     iteration # 30     ecut=    50.00 Ry     beta= 0.01
     Davidson diagonalization with overlap
     ethr =  1.84E-08,  avg # of iterations =  2.1

     total cpu time spent up to now is       46.0 secs

     total energy              =     -19.25565527 Ry
     estimated scf accuracy    <       0.00002424 Ry

     iteration # 31     ecut=    50.00 Ry     beta= 0.01
     Davidson diagonalization with overlap
     ethr =  1.84E-08,  avg # of iterations =  2.0

     total cpu time spent up to now is       47.1 secs

     total energy              =     -19.25565638 Ry
     estimated scf accuracy    <       0.00000146 Ry

     iteration # 32     ecut=    50.00 Ry     beta= 0.01
     Davidson diagonalization with overlap
     ethr =  1.82E-08,  avg # of iterations =  2.1

     total cpu time spent up to now is       48.2 secs

     total energy              =     -19.25565620 Ry
     estimated scf accuracy    <       0.00000951 Ry

     iteration # 33     ecut=    50.00 Ry     beta= 0.01
     Davidson diagonalization with overlap
     ethr =  1.82E-08,  avg # of iterations =  1.1

     total cpu time spent up to now is       49.0 secs

     total energy              =     -19.25565626 Ry
     estimated scf accuracy    <       0.00000131 Ry

     iteration # 34     ecut=    50.00 Ry     beta= 0.01
     Davidson diagonalization with overlap
     ethr =  1.64E-08,  avg # of iterations =  1.0

     total cpu time spent up to now is       49.8 secs

     End of self-consistent calculation

          k = 0.0000 0.0000 0.0000 (   701 PWs)   bands (ev):

    -5.8730  11.9258  11.9258  11.9258

          k =-0.1000 0.1000-0.1000 (   685 PWs)   bands (ev):

    -5.6370  10.8522  11.7873  11.7873

          k =-0.2000 0.2000-0.2000 (   667 PWs)   bands (ev):

    -4.9385   8.4662  11.4623  11.4623

          k =-0.3000 0.3000-0.3000 (   682 PWs)   bands (ev):

    -3.8148   5.7643  11.1164  11.1164

          k =-0.4000 0.4000-0.4000 (   679 PWs)   bands (ev):

    -2.3983   3.3001  10.8793  10.8793

          k = 0.5000-0.5000 0.5000 (   700 PWs)   bands (ev):

    -1.4468   1.9836  10.7917  10.7917

          k = 0.0000 0.2000 0.0000 (   685 PWs)   bands (ev):

    -5.5584  11.2055  11.3883  11.3883

          k =-0.1000 0.3000-0.1000 (   679 PWs)   bands (ev):

    -5.0140   9.3194  10.8997  11.2981

          k =-0.2000 0.4000-0.2000 (   681 PWs)   bands (ev):

    -4.0298   6.7604  10.5208  10.9183

          k =-0.3000 0.5000-0.3000 (   691 PWs)   bands (ev):

    -2.6910   4.2222  10.3592  10.4192

          k = 0.6000-0.4000 0.6000 (   689 PWs)   bands (ev):

    -1.4130   2.3637   9.9973  10.4403

          k = 0.5000-0.3000 0.5000 (   680 PWs)   bands (ev):

    -1.7626   2.8328   9.7619  10.7401

          k = 0.4000-0.2000 0.4000 (   678 PWs)   bands (ev):

    -3.1667   5.0379   9.7791  11.1766

          k = 0.3000-0.1000 0.3000 (   675 PWs)   bands (ev):

    -4.4046   7.6147  10.0894  11.6184

          k = 0.2000 0.0000 0.2000 (   682 PWs)   bands (ev):

    -5.2468   9.8343  10.8005  11.8760

          k = 0.0000 0.4000 0.0000 (   681 PWs)   bands (ev):

    -4.6274   9.5100  10.2601  10.2601

          k =-0.1000 0.5000-0.1000 (   680 PWs)   bands (ev):

    -3.7967   7.6720   9.7796   9.8478

          k =-0.2000 0.6000-0.2000 (   682 PWs)   bands (ev):

    -2.5836   5.3781   9.0876   9.5716

          k = 0.7000-0.3000 0.7000 (   685 PWs)   bands (ev):

    -1.2328   3.3555   8.2975   9.6730

          k = 0.6000-0.2000 0.6000 (   687 PWs)   bands (ev):

    -0.9197   2.9540   7.7543  10.0604

          k = 0.5000-0.1000 0.5000 (   681 PWs)   bands (ev):

    -2.1394   4.6623   7.6158  10.6525

          k = 0.4000 0.0000 0.4000 (   670 PWs)   bands (ev):

    -3.4407   6.5943   8.2650  11.2698

          k = 0.0000 0.6000 0.0000 (   689 PWs)   bands (ev):

    -3.1268   7.3223   9.1844   9.1844

          k =-0.1000 0.7000-0.1000 (   683 PWs)   bands (ev):

    -2.0708   5.8791   8.2841   8.8796

          k = 0.8000-0.2000 0.8000 (   688 PWs)   bands (ev):

    -0.8075   4.3796   6.8773   8.9125

          k = 0.7000-0.1000 0.7000 (   691 PWs)   bands (ev):

    -0.1019   3.6796   5.8205   9.2791

          k = 0.6000-0.0000 0.6000 (   684 PWs)   bands (ev):

    -0.8997   4.4059   5.7868   9.9127

          k = 0.0000 0.8000 0.0000 (   684 PWs)   bands (ev):

    -1.2031   4.8839   8.4657   8.4657

          k = 0.9000-0.1000 0.9000 (   689 PWs)   bands (ev):

    -0.1824   3.8744   7.4308   8.3960

          k = 0.8000 0.0000 0.8000 (   688 PWs)   bands (ev):

     0.3293   3.7887   5.7845   8.6818

          k = 0.0000-1.0000 0.0000 (   692 PWs)   bands (ev):

     0.2156   3.2561   8.2153   8.2153

          k =-0.2000 0.4000 0.0000 (   677 PWs)   bands (ev):

    -4.3259   8.1853   9.5946  11.1238

          k =-0.3000 0.5000-0.1000 (   685 PWs)   bands (ev):

    -3.2227   6.0712   8.8528  10.6564

          k = 0.6000-0.4000 0.8000 (   683 PWs)   bands (ev):

    -1.8463   3.8117   8.6426  10.1081

          k = 0.5000-0.3000 0.7000 (   684 PWs)   bands (ev):

    -0.9448   2.5870   8.6256   9.8540

          k =-0.2000 0.6000 0.0000 (   680 PWs)   bands (ev):

    -2.8489   6.5861   8.4577   9.5114

          k = 0.7000-0.3000 0.9000 (   680 PWs)   bands (ev):

    -1.5852   4.9104   7.5949   8.9033

          k = 0.6000-0.2000 0.8000 (   687 PWs)   bands (ev):

    -0.4520   3.4691   6.9546   8.8063

          k = 0.5000-0.1000 0.7000 (   687 PWs)   bands (ev):

    -0.7723   3.8828   6.5915   9.2526

          k = 0.4000 0.0000 0.6000 (   684 PWs)   bands (ev):

    -2.0523   5.3264   7.0421   9.9884

          k = 0.8000-0.2000 1.0000 (   687 PWs)   bands (ev):

    -0.9848   4.8386   7.6990   8.0117

          k = 0.7000-0.1000 0.9000 (   686 PWs)   bands (ev):

     0.0600   4.0959   6.1812   7.9354

          k = 0.6000 0.0000 0.8000 (   689 PWs)   bands (ev):

     0.1442   4.2396   5.1994   8.4304

          k =-0.2000-1.0000 0.0000 (   690 PWs)   bands (ev):

     0.3203   3.5353   7.4379   7.4789

          k = 0.6000-0.2000 1.0000 (   696 PWs)   bands (ev):

    -0.4217   4.5297   6.2665   7.8410

          k = 0.5000-0.1000 0.9000 (   690 PWs)   bands (ev):

     0.2365   4.1548   5.8428   7.3588

          k =-0.4000-1.0000 0.0000 (   692 PWs)   bands (ev):

     0.5087   4.2616   6.1474   6.4867

     highest occupied level (ev):    11.9258

!    total energy              =     -19.25565614 Ry
     estimated scf accuracy    <       0.00000081 Ry

     The total energy is the sum of the following terms:
     one-electron contribution =       7.26446258 Ry
     hartree contribution      =       2.24263669 Ry
     xc contribution           =      -6.40533763 Ry
     ewald contribution        =     -22.35741779 Ry

     convergence has been achieved in  34 iterations
     Writing meta-gga kinetic term

     Writing all to output data dir ./input_pw/SiC/4/pwscf.save/
     Writing meta-gga kinetic term
 
     init_run     :      0.99s CPU      2.17s WALL (       1 calls)
     electrons    :     27.61s CPU     47.46s WALL (       1 calls)

     Called by init_run:
     wfcinit      :      0.89s CPU      1.88s WALL (       1 calls)
     potinit      :      0.01s CPU      0.04s WALL (       1 calls)
     hinit0       :      0.09s CPU      0.24s WALL (       1 calls)

     Called by electrons:
     c_bands      :     22.10s CPU     37.94s WALL (      34 calls)
     sum_band     :      4.94s CPU      8.55s WALL (      34 calls)
     v_of_rho     :      0.32s CPU      0.57s WALL (      35 calls)
     mix_rho      :      0.24s CPU      0.44s WALL (      34 calls)

     Called by c_bands:
     init_us_2    :      0.29s CPU      0.49s WALL (    3243 calls)
     init_us_2:cp :      0.28s CPU      0.47s WALL (    3243 calls)
     cegterg      :     21.82s CPU     37.48s WALL (    1598 calls)

     Called by *egterg:
     cdiaghg      :      0.17s CPU      0.34s WALL (    3853 calls)
     h_psi        :     22.10s CPU     38.33s WALL (    3900 calls)
     g_psi        :      0.02s CPU      0.02s WALL (    2255 calls)

     Called by h_psi:
     h_psi:calbec :      0.08s CPU      0.10s WALL (    3900 calls)
     vloc_psi     :      5.44s CPU      9.60s WALL (    3900 calls)
     add_vuspsi   :      0.08s CPU      0.13s WALL (    3900 calls)
     h_psi_meta   :     16.45s CPU     28.40s WALL (    3900 calls)

     General routines
     calbec       :      0.06s CPU      0.09s WALL (    3900 calls)
     fft          :      0.06s CPU      0.12s WALL (     417 calls)
     ffts         :      0.11s CPU      0.22s WALL (     679 calls)
     fftw         :     23.82s CPU     41.20s WALL (  149704 calls)
     interpolate  :      0.00s CPU      0.00s WALL (      35 calls)
 
     Parallel routines
 
     PWSCF        :     28.65s CPU     49.80s WALL

 
   This run was terminated on:  12:56:54  29Mar2023            

=------------------------------------------------------------------------------=
   JOB DONE.
=------------------------------------------------------------------------------=
