
     Program PWSCF v.7.0 starts on 29Mar2023 at 11:45:51 

     This program is part of the open-source Quantum ESPRESSO suite
     for quantum simulation of materials; please cite
         "P. Giannozzi et al., J. Phys.:Condens. Matter 21 395502 (2009);
         "P. Giannozzi et al., J. Phys.:Condens. Matter 29 465901 (2017);
         "P. Giannozzi et al., J. Chem. Phys. 152 154105 (2020);
          URL http://www.quantum-espresso.org", 
     in publications or presentations arising from this work. More details at
     http://www.quantum-espresso.org/quote

     Parallel version (MPI), running on     1 processors

     MPI processes distributed on     1 nodes
     23332 MiB available memory on the printing compute node when the environment starts
 
     Waiting for input...
     Reading input from standard input
Warning: card &CELL ignored
Warning: card / ignored

     Current dimensions of program PWSCF are:
     Max number of different atomic species (ntypx) = 10
     Max number of k-points (npk) =  40000
     Max angular momentum in pseudopotentials (lmaxx) =  4
     file Ge.SCAN.UPF2: wavefunction(s)  0D renormalized

     WARNING: the MGGA functional with ID    5 has been 
     read together with other dft terms, but it should 
     stand alone in order to work properly. The other 
     terms will be ignored.

     Subspace diagonalization in iterative solution of the eigenvalue problem:
     a serial algorithm will be used

 
     G-vector sticks info
     --------------------
     sticks:   dense  smooth     PW     G-vecs:    dense   smooth      PW
     Sum        1159    1159    349                25749    25749    4111
 
     Using Slab Decomposition
 


     bravais-lattice index     =            2
     lattice parameter (alat)  =      12.9028  a.u.
     unit-cell volume          =     537.0190 (a.u.)^3
     number of atoms/cell      =            2
     number of atomic types    =            1
     number of electrons       =         8.00
     number of Kohn-Sham states=            4
     kinetic-energy cutoff     =      50.0000  Ry
     charge density cutoff     =     200.0000  Ry
     scf convergence threshold =      1.0E-06
     mixing beta               =       0.0100
     number of iterations used =            8  local-TF  mixing
     Exchange-correlation= SLA  PW  SCAN SCAN
                           (   0   0   0   0   0 263 267)

     celldm(1)=  12.902778  celldm(2)=   0.000000  celldm(3)=   0.000000
     celldm(4)=   0.000000  celldm(5)=   0.000000  celldm(6)=   0.000000

     crystal axes: (cart. coord. in units of alat)
               a(1) = (  -0.500000   0.000000   0.500000 )  
               a(2) = (   0.000000   0.500000   0.500000 )  
               a(3) = (  -0.500000   0.500000   0.000000 )  

     reciprocal axes: (cart. coord. in units 2 pi/alat)
               b(1) = ( -1.000000 -1.000000  1.000000 )  
               b(2) = (  1.000000  1.000000  1.000000 )  
               b(3) = ( -1.000000  1.000000 -1.000000 )  


     PseudoPot. # 1 for Ge read from file:
     ~/Documents/TA/PWDFT.jl/pseudopotentials/scan_upf/Ge.SCAN.UPF2
     MD5 check sum: Not computed, couldn't open file
     Pseudo is Norm-conserving, Zval =  4.0
     Generated by new atomic code, or converted to UPF format
     Using radial grid of 1557 points,  2 beta functions with: 
                l(1) =   0
                l(2) =   1

     atomic species   valence    mass     pseudopotential
        Ge             4.00    72.64000     Ge( 1.00)

     48 Sym. Ops., with inversion, found (24 have fractional translation)



   Cartesian axes

     site n.     atom                  positions (alat units)
         1           Ge  tau(   1) = (   0.0000000   0.0000000   0.0000000  )
         2           Ge  tau(   2) = (   0.2500000   0.2500000   0.2500000  )

     number of k points=    47
                       cart. coord. in units 2pi/alat
        k(    1) = (   0.0000000   0.0000000   0.0000000), wk =   0.0020000
        k(    2) = (  -0.1000000   0.1000000  -0.1000000), wk =   0.0160000
        k(    3) = (  -0.2000000   0.2000000  -0.2000000), wk =   0.0160000
        k(    4) = (  -0.3000000   0.3000000  -0.3000000), wk =   0.0160000
        k(    5) = (  -0.4000000   0.4000000  -0.4000000), wk =   0.0160000
        k(    6) = (   0.5000000  -0.5000000   0.5000000), wk =   0.0080000
        k(    7) = (   0.0000000   0.2000000   0.0000000), wk =   0.0120000
        k(    8) = (  -0.1000000   0.3000000  -0.1000000), wk =   0.0480000
        k(    9) = (  -0.2000000   0.4000000  -0.2000000), wk =   0.0480000
        k(   10) = (  -0.3000000   0.5000000  -0.3000000), wk =   0.0480000
        k(   11) = (   0.6000000  -0.4000000   0.6000000), wk =   0.0480000
        k(   12) = (   0.5000000  -0.3000000   0.5000000), wk =   0.0480000
        k(   13) = (   0.4000000  -0.2000000   0.4000000), wk =   0.0480000
        k(   14) = (   0.3000000  -0.1000000   0.3000000), wk =   0.0480000
        k(   15) = (   0.2000000   0.0000000   0.2000000), wk =   0.0240000
        k(   16) = (   0.0000000   0.4000000   0.0000000), wk =   0.0120000
        k(   17) = (  -0.1000000   0.5000000  -0.1000000), wk =   0.0480000
        k(   18) = (  -0.2000000   0.6000000  -0.2000000), wk =   0.0480000
        k(   19) = (   0.7000000  -0.3000000   0.7000000), wk =   0.0480000
        k(   20) = (   0.6000000  -0.2000000   0.6000000), wk =   0.0480000
        k(   21) = (   0.5000000  -0.1000000   0.5000000), wk =   0.0480000
        k(   22) = (   0.4000000   0.0000000   0.4000000), wk =   0.0240000
        k(   23) = (   0.0000000   0.6000000   0.0000000), wk =   0.0120000
        k(   24) = (  -0.1000000   0.7000000  -0.1000000), wk =   0.0480000
        k(   25) = (   0.8000000  -0.2000000   0.8000000), wk =   0.0480000
        k(   26) = (   0.7000000  -0.1000000   0.7000000), wk =   0.0480000
        k(   27) = (   0.6000000  -0.0000000   0.6000000), wk =   0.0240000
        k(   28) = (   0.0000000   0.8000000   0.0000000), wk =   0.0120000
        k(   29) = (   0.9000000  -0.1000000   0.9000000), wk =   0.0480000
        k(   30) = (   0.8000000   0.0000000   0.8000000), wk =   0.0240000
        k(   31) = (   0.0000000  -1.0000000   0.0000000), wk =   0.0060000
        k(   32) = (  -0.2000000   0.4000000   0.0000000), wk =   0.0480000
        k(   33) = (  -0.3000000   0.5000000  -0.1000000), wk =   0.0960000
        k(   34) = (   0.6000000  -0.4000000   0.8000000), wk =   0.0960000
        k(   35) = (   0.5000000  -0.3000000   0.7000000), wk =   0.0480000
        k(   36) = (  -0.2000000   0.6000000   0.0000000), wk =   0.0480000
        k(   37) = (   0.7000000  -0.3000000   0.9000000), wk =   0.0960000
        k(   38) = (   0.6000000  -0.2000000   0.8000000), wk =   0.0960000
        k(   39) = (   0.5000000  -0.1000000   0.7000000), wk =   0.0960000
        k(   40) = (   0.4000000   0.0000000   0.6000000), wk =   0.0480000
        k(   41) = (   0.8000000  -0.2000000   1.0000000), wk =   0.0480000
        k(   42) = (   0.7000000  -0.1000000   0.9000000), wk =   0.0960000
        k(   43) = (   0.6000000   0.0000000   0.8000000), wk =   0.0480000
        k(   44) = (  -0.2000000  -1.0000000   0.0000000), wk =   0.0240000
        k(   45) = (   0.6000000  -0.2000000   1.0000000), wk =   0.0480000
        k(   46) = (   0.5000000  -0.1000000   0.9000000), wk =   0.0480000
        k(   47) = (  -0.4000000  -1.0000000   0.0000000), wk =   0.0240000

     Dense  grid:    25749 G-vectors     FFT dimensions: (  48,  48,  48)

     Estimated max dynamical RAM per process >      51.71 MB

     WARNING: libxc functional with ID  263 depends
      on external parameters: check the user_guide of
      QE if you need to modify them or to check their
      default values.

     Initial potential from superposition of free atoms

     starting charge       7.9987, renormalised to       8.0000
     Starting wfcs are   18 randomized atomic wfcs

     total cpu time spent up to now is       23.5 secs

     Self-consistent Calculation

     iteration #  1     ecut=    50.00 Ry     beta= 0.01
     Davidson diagonalization with overlap
     ethr =  1.00E-02,  avg # of iterations =  1.0

     Threshold (ethr) on eigenvalues was too large:
     Diagonalizing with lowered threshold

     Davidson diagonalization with overlap
     ethr =  2.05E-04,  avg # of iterations =  5.9

     total cpu time spent up to now is       70.8 secs

     total energy              =     -15.65499886 Ry
     estimated scf accuracy    <       0.01974418 Ry

     iteration #  2     ecut=    50.00 Ry     beta= 0.01
     Davidson diagonalization with overlap
     ethr =  2.47E-04,  avg # of iterations =  1.0

     total cpu time spent up to now is       82.9 secs

     total energy              =     -15.65691461 Ry
     estimated scf accuracy    <       0.01973144 Ry

     iteration #  3     ecut=    50.00 Ry     beta= 0.01
     Davidson diagonalization with overlap
     ethr =  2.47E-04,  avg # of iterations =  1.0

     total cpu time spent up to now is       93.8 secs

     total energy              =     -15.68809954 Ry
     estimated scf accuracy    <       0.01919554 Ry

     iteration #  4     ecut=    50.00 Ry     beta= 0.01
     Davidson diagonalization with overlap
     ethr =  2.40E-04,  avg # of iterations =  2.0

     total cpu time spent up to now is      107.9 secs

     total energy              =     -15.68999749 Ry
     estimated scf accuracy    <       0.00124300 Ry

     iteration #  5     ecut=    50.00 Ry     beta= 0.01
     Davidson diagonalization with overlap
     ethr =  1.55E-05,  avg # of iterations =  6.5

     total cpu time spent up to now is      136.0 secs

     total energy              =     -15.69121696 Ry
     estimated scf accuracy    <       0.00159940 Ry

     iteration #  6     ecut=    50.00 Ry     beta= 0.01
     Davidson diagonalization with overlap
     ethr =  1.55E-05,  avg # of iterations =  1.1

     total cpu time spent up to now is      147.3 secs

     total energy              =     -15.69136587 Ry
     estimated scf accuracy    <       0.00171465 Ry

     iteration #  7     ecut=    50.00 Ry     beta= 0.01
     Davidson diagonalization with overlap
     ethr =  1.55E-05,  avg # of iterations =  1.1

     total cpu time spent up to now is      158.1 secs

     total energy              =     -15.69140568 Ry
     estimated scf accuracy    <       0.00027115 Ry

     iteration #  8     ecut=    50.00 Ry     beta= 0.01
     Davidson diagonalization with overlap
     ethr =  3.39E-06,  avg # of iterations =  5.9

     total cpu time spent up to now is      178.5 secs

     total energy              =     -15.69154928 Ry
     estimated scf accuracy    <       0.00014862 Ry

     iteration #  9     ecut=    50.00 Ry     beta= 0.01
     Davidson diagonalization with overlap
     ethr =  1.86E-06,  avg # of iterations =  4.4

     total cpu time spent up to now is      192.3 secs

     total energy              =     -15.69160306 Ry
     estimated scf accuracy    <       0.00008577 Ry

     iteration # 10     ecut=    50.00 Ry     beta= 0.01
     Davidson diagonalization with overlap
     ethr =  1.07E-06,  avg # of iterations =  3.9

     total cpu time spent up to now is      204.6 secs

     total energy              =     -15.69165469 Ry
     estimated scf accuracy    <       0.00004888 Ry

     iteration # 11     ecut=    50.00 Ry     beta= 0.01
     Davidson diagonalization with overlap
     ethr =  6.11E-07,  avg # of iterations =  4.5

     total cpu time spent up to now is      217.7 secs

     total energy              =     -15.69168029 Ry
     estimated scf accuracy    <       0.00000227 Ry

     iteration # 12     ecut=    50.00 Ry     beta= 0.01
     Davidson diagonalization with overlap
     c_bands:  1 eigenvalues not converged
     c_bands:  1 eigenvalues not converged
     c_bands:  1 eigenvalues not converged
     c_bands:  1 eigenvalues not converged
     c_bands:  1 eigenvalues not converged
     c_bands:  1 eigenvalues not converged
     c_bands:  3 eigenvalues not converged
     c_bands:  2 eigenvalues not converged
     c_bands:  2 eigenvalues not converged
     c_bands:  1 eigenvalues not converged
     c_bands:  2 eigenvalues not converged
     ethr =  2.83E-08,  avg # of iterations = 13.7

     total cpu time spent up to now is      242.4 secs

     total energy              =     -15.69169167 Ry
     estimated scf accuracy    <       0.00000290 Ry

     iteration # 13     ecut=    50.00 Ry     beta= 0.01
     Davidson diagonalization with overlap
     c_bands:  1 eigenvalues not converged
     c_bands:  1 eigenvalues not converged
     c_bands:  1 eigenvalues not converged
     c_bands:  1 eigenvalues not converged
     ethr =  2.83E-08,  avg # of iterations =  3.8

     total cpu time spent up to now is      247.1 secs

     total energy              =     -15.69167837 Ry
     estimated scf accuracy    <       0.00000317 Ry

     iteration # 14     ecut=    50.00 Ry     beta= 0.01
     Davidson diagonalization with overlap
     c_bands:  1 eigenvalues not converged
     c_bands:  1 eigenvalues not converged
     c_bands:  1 eigenvalues not converged
     ethr =  2.83E-08,  avg # of iterations =  6.4

     total cpu time spent up to now is      254.8 secs

     total energy              =     -15.69168225 Ry
     estimated scf accuracy    <       0.00000129 Ry

     iteration # 15     ecut=    50.00 Ry     beta= 0.01
     Davidson diagonalization with overlap
     c_bands:  1 eigenvalues not converged
     ethr =  1.61E-08,  avg # of iterations =  2.4

     total cpu time spent up to now is      258.5 secs

     total energy              =     -15.69168253 Ry
     estimated scf accuracy    <       0.00000130 Ry

     iteration # 16     ecut=    50.00 Ry     beta= 0.01
     Davidson diagonalization with overlap
     c_bands:  1 eigenvalues not converged
     ethr =  1.61E-08,  avg # of iterations =  1.4

     total cpu time spent up to now is      261.7 secs

     total energy              =     -15.69168221 Ry
     estimated scf accuracy    <       0.00000119 Ry

     iteration # 17     ecut=    50.00 Ry     beta= 0.01
     Davidson diagonalization with overlap
     c_bands:  1 eigenvalues not converged
     ethr =  1.49E-08,  avg # of iterations =  2.3

     total cpu time spent up to now is      265.3 secs

     End of self-consistent calculation

          k = 0.0000 0.0000 0.0000 (  3143 PWs)   bands (ev):

    -8.8256  -2.7929   1.1644   1.1644

          k =-0.1000 0.1000-0.1000 (  3203 PWs)   bands (ev):

    -8.7555  -3.0626   1.0550   1.0550

          k =-0.2000 0.2000-0.2000 (  3215 PWs)   bands (ev):

    -8.5525  -3.7100   0.8215   0.8215

          k =-0.3000 0.3000-0.3000 (  3212 PWs)   bands (ev):

    -8.2443  -4.4688   0.5953   0.5953

          k =-0.4000 0.4000-0.4000 (  3211 PWs)   bands (ev):

    -7.9100  -5.1166   0.4428   0.4429

          k = 0.5000-0.5000 0.5000 (  3214 PWs)   bands (ev):

    -7.7429  -5.3946   0.3898   0.3899

          k = 0.0000 0.2000 0.0000 (  3203 PWs)   bands (ev):

    -8.7317  -3.1419   0.8774   0.8774

          k =-0.1000 0.3000-0.1000 (  3211 PWs)   bands (ev):

    -8.5713  -3.6399   0.5692   0.6222

          k =-0.2000 0.4000-0.2000 (  3214 PWs)   bands (ev):

    -8.2929  -4.3359   0.1873   0.4069

          k =-0.3000 0.5000-0.3000 (  3213 PWs)   bands (ev):

    -7.9514  -5.0127  -0.1297   0.2854

          k = 0.6000-0.4000 0.6000 (  3200 PWs)   bands (ev):

    -7.6972  -5.4338  -0.3110   0.2759

          k = 0.5000-0.3000 0.5000 (  3204 PWs)   bands (ev):

    -7.7584  -5.3376  -0.3326   0.3772

          k = 0.4000-0.2000 0.4000 (  3206 PWs)   bands (ev):

    -8.0685  -4.7981  -0.1866   0.5719

          k = 0.3000-0.1000 0.3000 (  3215 PWs)   bands (ev):

    -8.3986  -4.0941   0.1247   0.8177

          k = 0.2000 0.0000 0.2000 (  3215 PWs)   bands (ev):

    -8.6405  -3.4424   0.5760   1.0244

          k = 0.0000 0.4000 0.0000 (  3207 PWs)   bands (ev):

    -8.4532  -3.9329   0.3551   0.3551

          k =-0.1000 0.5000-0.1000 (  3213 PWs)   bands (ev):

    -8.2095  -4.4744   0.0004   0.1347

          k =-0.2000 0.6000-0.2000 (  3209 PWs)   bands (ev):

    -7.8760  -5.0880  -0.4275   0.0159

          k = 0.7000-0.3000 0.7000 (  3203 PWs)   bands (ev):

    -7.5598  -5.5752  -0.7480   0.0182

          k = 0.6000-0.2000 0.6000 (  3200 PWs)   bands (ev):

    -7.5091  -5.6464  -0.8806   0.1394

          k = 0.5000-0.1000 0.5000 (  3193 PWs)   bands (ev):

    -7.7827  -5.2424  -0.7895   0.3572

          k = 0.4000 0.0000 0.4000 (  3194 PWs)   bands (ev):

    -8.1261  -4.6546  -0.4531   0.6185

          k = 0.0000 0.6000 0.0000 (  3198 PWs)   bands (ev):

    -7.9994  -4.8582  -0.1001  -0.1001

          k =-0.1000 0.7000-0.1000 (  3200 PWs)   bands (ev):

    -7.6840  -5.3661  -0.4217  -0.2350

          k = 0.8000-0.2000 0.8000 (  3205 PWs)   bands (ev):

    -7.3313  -5.8485  -0.8272  -0.2456

          k = 0.7000-0.1000 0.7000 (  3207 PWs)   bands (ev):

    -7.1817  -6.0308  -1.0865  -0.1312

          k = 0.6000-0.0000 0.6000 (  3206 PWs)   bands (ev):

    -7.4331  -5.7186  -1.0902   0.0875

          k = 0.0000 0.8000 0.0000 (  3218 PWs)   bands (ev):

    -7.3862  -5.7806  -0.3937  -0.3937

          k = 0.9000-0.1000 0.9000 (  3232 PWs)   bands (ev):

    -7.0176  -6.2260  -0.6419  -0.4294

          k = 0.8000 0.0000 0.8000 (  3216 PWs)   bands (ev):

    -6.8502  -6.4029  -0.9651  -0.3364

          k = 0.0000-1.0000 0.0000 (  3250 PWs)   bands (ev):

    -6.6366  -6.6366  -0.4943  -0.4943

          k =-0.2000 0.4000 0.0000 (  3216 PWs)   bands (ev):

    -8.3702  -4.1418   0.0508   0.5246

          k =-0.3000 0.5000-0.1000 (  3205 PWs)   bands (ev):

    -8.0625  -4.7735  -0.3793   0.3327

          k = 0.6000-0.4000 0.8000 (  3206 PWs)   bands (ev):

    -7.7216  -5.3501  -0.6456   0.1665

          k = 0.5000-0.3000 0.7000 (  3214 PWs)   bands (ev):

    -7.5453  -5.6116  -0.7348   0.1045

          k =-0.2000 0.6000 0.0000 (  3206 PWs)   bands (ev):

    -7.9318  -4.9797  -0.3767  -0.0259

          k = 0.7000-0.3000 0.9000 (  3205 PWs)   bands (ev):

    -7.5825  -5.5162  -0.7369  -0.1753

          k = 0.6000-0.2000 0.8000 (  3206 PWs)   bands (ev):

    -7.3106  -5.8789  -0.9730  -0.2019

          k = 0.5000-0.1000 0.7000 (  3204 PWs)   bands (ev):

    -7.4009  -5.7628  -1.0140  -0.0864

          k = 0.4000 0.0000 0.6000 (  3201 PWs)   bands (ev):

    -7.7361  -5.2971  -0.8186   0.1283

          k = 0.8000-0.2000 1.0000 (  3200 PWs)   bands (ev):

    -7.3437  -5.8302  -0.6129  -0.4280

          k = 0.7000-0.1000 0.9000 (  3209 PWs)   bands (ev):

    -7.0019  -6.2331  -0.9065  -0.4749

          k = 0.6000 0.0000 0.8000 (  3211 PWs)   bands (ev):

    -7.0524  -6.1733  -1.0918  -0.3359

          k =-0.2000-1.0000 0.0000 (  3218 PWs)   bands (ev):

    -6.6321  -6.6321  -0.6303  -0.6303

          k = 0.6000-0.2000 1.0000 (  3205 PWs)   bands (ev):

    -7.2249  -5.9702  -0.9478  -0.4305

          k = 0.5000-0.1000 0.9000 (  3204 PWs)   bands (ev):

    -6.9919  -6.2378  -1.0108  -0.5488

          k =-0.4000-1.0000 0.0000 (  3210 PWs)   bands (ev):

    -6.6247  -6.6247  -0.8137  -0.8137

     highest occupied level (ev):     1.1644

!    total energy              =     -15.69168226 Ry
     estimated scf accuracy    <       0.00000007 Ry

     The total energy is the sum of the following terms:
     one-electron contribution =       0.07431284 Ry
     hartree contribution      =       1.80827114 Ry
     xc contribution           =      -4.21454326 Ry
     ewald contribution        =     -13.35972298 Ry

     convergence has been achieved in  17 iterations
     Writing meta-gga kinetic term

     Writing all to output data dir ./input_pw/Ge/12/pwscf.save/
     Writing meta-gga kinetic term
 
     init_run     :     11.51s CPU     23.43s WALL (       1 calls)
     electrons    :    179.22s CPU    241.79s WALL (       1 calls)

     Called by init_run:
     wfcinit      :     11.33s CPU     22.98s WALL (       1 calls)
     potinit      :      0.08s CPU      0.34s WALL (       1 calls)
     hinit0       :      0.07s CPU      0.07s WALL (       1 calls)

     Called by electrons:
     c_bands      :    152.98s CPU    206.45s WALL (      18 calls)
     sum_band     :     23.83s CPU     32.26s WALL (      18 calls)
     v_of_rho     :      1.31s CPU      1.91s WALL (      18 calls)
     mix_rho      :      1.12s CPU      1.39s WALL (      18 calls)

     Called by c_bands:
     init_us_2    :      0.66s CPU      1.02s WALL (    1739 calls)
     init_us_2:cp :      0.65s CPU      1.01s WALL (    1739 calls)
     cegterg      :    152.17s CPU    205.15s WALL (     846 calls)

     Called by *egterg:
     cdiaghg      :      0.33s CPU      0.36s WALL (    4003 calls)
     h_psi        :    161.07s CPU    224.81s WALL (    4097 calls)
     g_psi        :      0.10s CPU      0.12s WALL (    3204 calls)

     Called by h_psi:
     h_psi:calbec :      0.56s CPU      0.78s WALL (    4097 calls)
     vloc_psi     :     39.93s CPU     55.58s WALL (    4097 calls)
     add_vuspsi   :      0.40s CPU      0.63s WALL (    4097 calls)
     h_psi_meta   :    120.01s CPU    167.63s WALL (    4097 calls)

     General routines
     calbec       :      0.54s CPU      0.76s WALL (    4097 calls)
     fft          :      0.25s CPU      0.39s WALL (     215 calls)
     ffts         :      0.42s CPU      0.54s WALL (     336 calls)
     fftw         :    146.50s CPU    204.00s WALL (  118664 calls)
     interpolate  :      0.00s CPU      0.00s WALL (      18 calls)
 
     Parallel routines
 
     PWSCF        :   3m10.76s CPU   4m25.30s WALL

 
   This run was terminated on:  11:50:16  29Mar2023            

=------------------------------------------------------------------------------=
   JOB DONE.
=------------------------------------------------------------------------------=
