
     Program PWSCF v.7.0 starts on  7Jul2023 at 14:25:49 

     This program is part of the open-source Quantum ESPRESSO suite
     for quantum simulation of materials; please cite
         "P. Giannozzi et al., J. Phys.:Condens. Matter 21 395502 (2009);
         "P. Giannozzi et al., J. Phys.:Condens. Matter 29 465901 (2017);
         "P. Giannozzi et al., J. Chem. Phys. 152 154105 (2020);
          URL http://www.quantum-espresso.org", 
     in publications or presentations arising from this work. More details at
     http://www.quantum-espresso.org/quote

     Parallel version (MPI), running on     1 processors

     MPI processes distributed on     1 nodes
     26917 MiB available memory on the printing compute node when the environment starts
 
     Waiting for input...
     Reading input from standard input
Warning: card &CELL ignored
Warning: card / ignored

     Current dimensions of program PWSCF are:
     Max number of different atomic species (ntypx) = 10
     Max number of k-points (npk) =  40000
     Max angular momentum in pseudopotentials (lmaxx) =  4
     file Ge.SCAN.UPF2: wavefunction(s)  0D renormalized

     WARNING: the MGGA functional with ID    5 has been 
     read together with other dft terms, but it should 
     stand alone in order to work properly. The other 
     terms will be ignored.

     Subspace diagonalization in iterative solution of the eigenvalue problem:
     a serial algorithm will be used

 
     G-vector sticks info
     --------------------
     sticks:   dense  smooth     PW     G-vecs:    dense   smooth      PW
     Sum        1159    1159    349                25749    25749    4111
 
     Using Slab Decomposition
 


     bravais-lattice index     =            2
     lattice parameter (alat)  =      12.9028  a.u.
     unit-cell volume          =     537.0190 (a.u.)^3
     number of atoms/cell      =            2
     number of atomic types    =            1
     number of electrons       =         8.00
     number of Kohn-Sham states=            4
     kinetic-energy cutoff     =      50.0000  Ry
     charge density cutoff     =     200.0000  Ry
     scf convergence threshold =      2.0E-05
     mixing beta               =       0.2000
     number of iterations used =            8  local-TF  mixing
     Exchange-correlation= SLA  PW  SCAN SCAN
                           (   0   0   0   0   0 263 267)

     celldm(1)=  12.902778  celldm(2)=   0.000000  celldm(3)=   0.000000
     celldm(4)=   0.000000  celldm(5)=   0.000000  celldm(6)=   0.000000

     crystal axes: (cart. coord. in units of alat)
               a(1) = (  -0.500000   0.000000   0.500000 )  
               a(2) = (   0.000000   0.500000   0.500000 )  
               a(3) = (  -0.500000   0.500000   0.000000 )  

     reciprocal axes: (cart. coord. in units 2 pi/alat)
               b(1) = ( -1.000000 -1.000000  1.000000 )  
               b(2) = (  1.000000  1.000000  1.000000 )  
               b(3) = ( -1.000000  1.000000 -1.000000 )  


     PseudoPot. # 1 for Ge read from file:
     ~/Documents/TA/PWDFT.jl/pseudopotentials/scan_upf/Ge.SCAN.UPF2
     MD5 check sum: Not computed, couldn't open file
     Pseudo is Norm-conserving, Zval =  4.0
     Generated by new atomic code, or converted to UPF format
     Using radial grid of 1557 points,  2 beta functions with: 
                l(1) =   0
                l(2) =   1

     atomic species   valence    mass     pseudopotential
        Ge             4.00    72.64000     Ge( 1.00)

     48 Sym. Ops., with inversion, found (24 have fractional translation)



   Cartesian axes

     site n.     atom                  positions (alat units)
         1           Ge  tau(   1) = (   0.0000000   0.0000000   0.0000000  )
         2           Ge  tau(   2) = (   0.2500000   0.2500000   0.2500000  )

     number of k points=    47
                       cart. coord. in units 2pi/alat
        k(    1) = (   0.0000000   0.0000000   0.0000000), wk =   0.0020000
        k(    2) = (  -0.1000000   0.1000000  -0.1000000), wk =   0.0160000
        k(    3) = (  -0.2000000   0.2000000  -0.2000000), wk =   0.0160000
        k(    4) = (  -0.3000000   0.3000000  -0.3000000), wk =   0.0160000
        k(    5) = (  -0.4000000   0.4000000  -0.4000000), wk =   0.0160000
        k(    6) = (   0.5000000  -0.5000000   0.5000000), wk =   0.0080000
        k(    7) = (   0.0000000   0.2000000   0.0000000), wk =   0.0120000
        k(    8) = (  -0.1000000   0.3000000  -0.1000000), wk =   0.0480000
        k(    9) = (  -0.2000000   0.4000000  -0.2000000), wk =   0.0480000
        k(   10) = (  -0.3000000   0.5000000  -0.3000000), wk =   0.0480000
        k(   11) = (   0.6000000  -0.4000000   0.6000000), wk =   0.0480000
        k(   12) = (   0.5000000  -0.3000000   0.5000000), wk =   0.0480000
        k(   13) = (   0.4000000  -0.2000000   0.4000000), wk =   0.0480000
        k(   14) = (   0.3000000  -0.1000000   0.3000000), wk =   0.0480000
        k(   15) = (   0.2000000   0.0000000   0.2000000), wk =   0.0240000
        k(   16) = (   0.0000000   0.4000000   0.0000000), wk =   0.0120000
        k(   17) = (  -0.1000000   0.5000000  -0.1000000), wk =   0.0480000
        k(   18) = (  -0.2000000   0.6000000  -0.2000000), wk =   0.0480000
        k(   19) = (   0.7000000  -0.3000000   0.7000000), wk =   0.0480000
        k(   20) = (   0.6000000  -0.2000000   0.6000000), wk =   0.0480000
        k(   21) = (   0.5000000  -0.1000000   0.5000000), wk =   0.0480000
        k(   22) = (   0.4000000   0.0000000   0.4000000), wk =   0.0240000
        k(   23) = (   0.0000000   0.6000000   0.0000000), wk =   0.0120000
        k(   24) = (  -0.1000000   0.7000000  -0.1000000), wk =   0.0480000
        k(   25) = (   0.8000000  -0.2000000   0.8000000), wk =   0.0480000
        k(   26) = (   0.7000000  -0.1000000   0.7000000), wk =   0.0480000
        k(   27) = (   0.6000000  -0.0000000   0.6000000), wk =   0.0240000
        k(   28) = (   0.0000000   0.8000000   0.0000000), wk =   0.0120000
        k(   29) = (   0.9000000  -0.1000000   0.9000000), wk =   0.0480000
        k(   30) = (   0.8000000   0.0000000   0.8000000), wk =   0.0240000
        k(   31) = (   0.0000000  -1.0000000   0.0000000), wk =   0.0060000
        k(   32) = (  -0.2000000   0.4000000   0.0000000), wk =   0.0480000
        k(   33) = (  -0.3000000   0.5000000  -0.1000000), wk =   0.0960000
        k(   34) = (   0.6000000  -0.4000000   0.8000000), wk =   0.0960000
        k(   35) = (   0.5000000  -0.3000000   0.7000000), wk =   0.0480000
        k(   36) = (  -0.2000000   0.6000000   0.0000000), wk =   0.0480000
        k(   37) = (   0.7000000  -0.3000000   0.9000000), wk =   0.0960000
        k(   38) = (   0.6000000  -0.2000000   0.8000000), wk =   0.0960000
        k(   39) = (   0.5000000  -0.1000000   0.7000000), wk =   0.0960000
        k(   40) = (   0.4000000   0.0000000   0.6000000), wk =   0.0480000
        k(   41) = (   0.8000000  -0.2000000   1.0000000), wk =   0.0480000
        k(   42) = (   0.7000000  -0.1000000   0.9000000), wk =   0.0960000
        k(   43) = (   0.6000000   0.0000000   0.8000000), wk =   0.0480000
        k(   44) = (  -0.2000000  -1.0000000   0.0000000), wk =   0.0240000
        k(   45) = (   0.6000000  -0.2000000   1.0000000), wk =   0.0480000
        k(   46) = (   0.5000000  -0.1000000   0.9000000), wk =   0.0480000
        k(   47) = (  -0.4000000  -1.0000000   0.0000000), wk =   0.0240000

     Dense  grid:    25749 G-vectors     FFT dimensions: (  48,  48,  48)

     Estimated max dynamical RAM per process >      51.71 MB

     WARNING: libxc functional with ID  263 depends
      on external parameters: check the user_guide of
      QE if you need to modify them or to check their
      default values.

     Initial potential from superposition of free atoms

     starting charge       7.9987, renormalised to       8.0000
     Starting wfcs are   18 randomized atomic wfcs

     total cpu time spent up to now is       23.9 secs

     Self-consistent Calculation

     iteration #  1     ecut=    50.00 Ry     beta= 0.20
     Davidson diagonalization with overlap
     ethr =  1.00E-02,  avg # of iterations =  1.0

     Threshold (ethr) on eigenvalues was too large:
     Diagonalizing with lowered threshold

     Davidson diagonalization with overlap
     ethr =  2.05E-04,  avg # of iterations =  5.9

     total cpu time spent up to now is       68.2 secs

     total energy              =     -15.66533270 Ry
     estimated scf accuracy    <       0.01974418 Ry

     iteration #  2     ecut=    50.00 Ry     beta= 0.20
     Davidson diagonalization with overlap
     ethr =  2.47E-04,  avg # of iterations =  1.4

     total cpu time spent up to now is       79.8 secs

     total energy              =     -15.68847056 Ry
     estimated scf accuracy    <       0.01431436 Ry

     iteration #  3     ecut=    50.00 Ry     beta= 0.20
     Davidson diagonalization with overlap
     ethr =  1.79E-04,  avg # of iterations =  1.7

     total cpu time spent up to now is       92.8 secs

     total energy              =     -15.68986810 Ry
     estimated scf accuracy    <       0.00078674 Ry

     iteration #  4     ecut=    50.00 Ry     beta= 0.20
     Davidson diagonalization with overlap
     ethr =  9.83E-06,  avg # of iterations =  9.1

     total cpu time spent up to now is      120.1 secs

     total energy              =     -15.69135720 Ry
     estimated scf accuracy    <       0.00078542 Ry

     iteration #  5     ecut=    50.00 Ry     beta= 0.20
     Davidson diagonalization with overlap
     ethr =  9.82E-06,  avg # of iterations =  2.6

     total cpu time spent up to now is      124.4 secs

     total energy              =     -15.69149532 Ry
     estimated scf accuracy    <       0.00025934 Ry

     iteration #  6     ecut=    50.00 Ry     beta= 0.20
     Davidson diagonalization with overlap
     ethr =  3.24E-06,  avg # of iterations =  5.6

     total cpu time spent up to now is      131.0 secs

     total energy              =     -15.69162072 Ry
     estimated scf accuracy    <       0.00013161 Ry

     iteration #  7     ecut=    50.00 Ry     beta= 0.20
     Davidson diagonalization with overlap
     ethr =  1.65E-06,  avg # of iterations =  3.2

     total cpu time spent up to now is      135.7 secs

     total energy              =     -15.69164122 Ry
     estimated scf accuracy    <       0.00004028 Ry

     iteration #  8     ecut=    50.00 Ry     beta= 0.20
     Davidson diagonalization with overlap
     ethr =  5.03E-07,  avg # of iterations =  6.2

     total cpu time spent up to now is      143.1 secs

     End of self-consistent calculation

          k = 0.0000 0.0000 0.0000 (  3143 PWs)   bands (ev):

    -8.8265  -2.7877   1.1650   1.1650

          k =-0.1000 0.1000-0.1000 (  3203 PWs)   bands (ev):

    -8.7563  -3.0580   1.0554   1.0557

          k =-0.2000 0.2000-0.2000 (  3215 PWs)   bands (ev):

    -8.5531  -3.7064   0.8216   0.8218

          k =-0.3000 0.3000-0.3000 (  3212 PWs)   bands (ev):

    -8.2447  -4.4662   0.5952   0.5956

          k =-0.4000 0.4000-0.4000 (  3211 PWs)   bands (ev):

    -7.9102  -5.1149   0.4426   0.4428

          k = 0.5000-0.5000 0.5000 (  3214 PWs)   bands (ev):

    -7.7428  -5.3931   0.3896   0.3899

          k = 0.0000 0.2000 0.0000 (  3203 PWs)   bands (ev):

    -8.7326  -3.1374   0.8776   0.8776

          k =-0.1000 0.3000-0.1000 (  3211 PWs)   bands (ev):

    -8.5720  -3.6361   0.5693   0.6222

          k =-0.2000 0.4000-0.2000 (  3214 PWs)   bands (ev):

    -8.2934  -4.3331   0.1873   0.4066

          k =-0.3000 0.5000-0.3000 (  3213 PWs)   bands (ev):

    -7.9516  -5.0107  -0.1298   0.2850

          k = 0.6000-0.4000 0.6000 (  3200 PWs)   bands (ev):

    -7.6971  -5.4322  -0.3111   0.2755

          k = 0.5000-0.3000 0.5000 (  3204 PWs)   bands (ev):

    -7.7584  -5.3360  -0.3328   0.3769

          k = 0.4000-0.2000 0.4000 (  3206 PWs)   bands (ev):

    -8.0687  -4.7959  -0.1869   0.5718

          k = 0.3000-0.1000 0.3000 (  3215 PWs)   bands (ev):

    -8.3992  -4.0910   0.1245   0.8179

          k = 0.2000 0.0000 0.2000 (  3215 PWs)   bands (ev):

    -8.6412  -3.4383   0.5759   1.0248

          k = 0.0000 0.4000 0.0000 (  3207 PWs)   bands (ev):

    -8.4538  -3.9295   0.3548   0.3548

          k =-0.1000 0.5000-0.1000 (  3213 PWs)   bands (ev):

    -8.2099  -4.4716  -0.0000   0.1342

          k =-0.2000 0.6000-0.2000 (  3209 PWs)   bands (ev):

    -7.8761  -5.0859  -0.4282   0.0153

          k = 0.7000-0.3000 0.7000 (  3203 PWs)   bands (ev):

    -7.5597  -5.5736  -0.7488   0.0176

          k = 0.6000-0.2000 0.6000 (  3200 PWs)   bands (ev):

    -7.5089  -5.6449  -0.8814   0.1389

          k = 0.5000-0.1000 0.5000 (  3193 PWs)   bands (ev):

    -7.7827  -5.2405  -0.7903   0.3569

          k = 0.4000 0.0000 0.4000 (  3194 PWs)   bands (ev):

    -8.1265  -4.6521  -0.4538   0.6185

          k = 0.0000 0.6000 0.0000 (  3198 PWs)   bands (ev):

    -7.9996  -4.8558  -0.1009  -0.1009

          k =-0.1000 0.7000-0.1000 (  3200 PWs)   bands (ev):

    -7.6840  -5.3642  -0.4226  -0.2358

          k = 0.8000-0.2000 0.8000 (  3205 PWs)   bands (ev):

    -7.3310  -5.8470  -0.8282  -0.2464

          k = 0.7000-0.1000 0.7000 (  3207 PWs)   bands (ev):

    -7.1812  -6.0295  -1.0876  -0.1319

          k = 0.6000-0.0000 0.6000 (  3206 PWs)   bands (ev):

    -7.4328  -5.7171  -1.0912   0.0870

          k = 0.0000 0.8000 0.0000 (  3218 PWs)   bands (ev):

    -7.3860  -5.7791  -0.3946  -0.3946

          k = 0.9000-0.1000 0.9000 (  3232 PWs)   bands (ev):

    -7.0171  -6.2248  -0.6429  -0.4303

          k = 0.8000 0.0000 0.8000 (  3216 PWs)   bands (ev):

    -6.8495  -6.4019  -0.9662  -0.3373

          k = 0.0000-1.0000 0.0000 (  3250 PWs)   bands (ev):

    -6.6358  -6.6358  -0.4953  -0.4953

          k =-0.2000 0.4000 0.0000 (  3216 PWs)   bands (ev):

    -8.3707  -4.1387   0.0504   0.5245

          k =-0.3000 0.5000-0.1000 (  3205 PWs)   bands (ev):

    -8.0628  -4.7711  -0.3799   0.3324

          k = 0.6000-0.4000 0.8000 (  3206 PWs)   bands (ev):

    -7.7216  -5.3483  -0.6463   0.1661

          k = 0.5000-0.3000 0.7000 (  3214 PWs)   bands (ev):

    -7.5451  -5.6101  -0.7354   0.1040

          k =-0.2000 0.6000 0.0000 (  3206 PWs)   bands (ev):

    -7.9319  -4.9774  -0.3774  -0.0265

          k = 0.7000-0.3000 0.9000 (  3205 PWs)   bands (ev):

    -7.5824  -5.5145  -0.7378  -0.1760

          k = 0.6000-0.2000 0.8000 (  3206 PWs)   bands (ev):

    -7.3103  -5.8775  -0.9740  -0.2026

          k = 0.5000-0.1000 0.7000 (  3204 PWs)   bands (ev):

    -7.4007  -5.7613  -1.0150  -0.0870

          k = 0.4000 0.0000 0.6000 (  3201 PWs)   bands (ev):

    -7.7362  -5.2952  -0.8195   0.1278

          k = 0.8000-0.2000 1.0000 (  3200 PWs)   bands (ev):

    -7.3434  -5.8287  -0.6138  -0.4289

          k = 0.7000-0.1000 0.9000 (  3209 PWs)   bands (ev):

    -7.0014  -6.2319  -0.9075  -0.4758

          k = 0.6000 0.0000 0.8000 (  3211 PWs)   bands (ev):

    -7.0518  -6.1721  -1.0930  -0.3366

          k =-0.2000-1.0000 0.0000 (  3218 PWs)   bands (ev):

    -6.6312  -6.6312  -0.6313  -0.6313

          k = 0.6000-0.2000 1.0000 (  3205 PWs)   bands (ev):

    -7.2245  -5.9688  -0.9489  -0.4313

          k = 0.5000-0.1000 0.9000 (  3204 PWs)   bands (ev):

    -6.9913  -6.2367  -1.0119  -0.5497

          k =-0.4000-1.0000 0.0000 (  3210 PWs)   bands (ev):

    -6.6238  -6.6238  -0.8148  -0.8148

     highest occupied level (ev):     1.1650

!    total energy              =     -15.69166982 Ry
     estimated scf accuracy    <       0.00000042 Ry

     The total energy is the sum of the following terms:
     one-electron contribution =       0.07342847 Ry
     hartree contribution      =       1.80976059 Ry
     xc contribution           =      -4.21513591 Ry
     ewald contribution        =     -13.35972298 Ry

     convergence has been achieved in   8 iterations
     Writing meta-gga kinetic term

     Writing all to output data dir ./input_pw/Ge/12/pwscf.save/
     Writing meta-gga kinetic term
 
     init_run     :     11.79s CPU     23.86s WALL (       1 calls)
     electrons    :     84.39s CPU    119.12s WALL (       1 calls)

     Called by init_run:
     wfcinit      :     11.59s CPU     23.42s WALL (       1 calls)
     potinit      :      0.09s CPU      0.24s WALL (       1 calls)
     hinit0       :      0.07s CPU      0.13s WALL (       1 calls)

     Called by electrons:
     c_bands      :     73.69s CPU    103.84s WALL (       9 calls)
     sum_band     :      9.84s CPU     14.09s WALL (       9 calls)
     v_of_rho     :      0.56s CPU      0.88s WALL (       9 calls)
     mix_rho      :      0.36s CPU      0.46s WALL (       9 calls)

     Called by c_bands:
     init_us_2    :      0.30s CPU      0.45s WALL (     893 calls)
     init_us_2:cp :      0.30s CPU      0.43s WALL (     893 calls)
     cegterg      :     73.32s CPU    103.23s WALL (     423 calls)

     Called by *egterg:
     cdiaghg      :      0.15s CPU      0.23s WALL (    2100 calls)
     h_psi        :     83.60s CPU    124.78s WALL (    2194 calls)
     g_psi        :      0.05s CPU      0.08s WALL (    1724 calls)

     Called by h_psi:
     h_psi:calbec :      0.28s CPU      0.49s WALL (    2194 calls)
     vloc_psi     :     20.75s CPU     31.02s WALL (    2194 calls)
     add_vuspsi   :      0.20s CPU      0.27s WALL (    2194 calls)
     h_psi_meta   :     62.28s CPU     92.88s WALL (    2194 calls)

     General routines
     calbec       :      0.27s CPU      0.49s WALL (    2194 calls)
     fft          :      0.11s CPU      0.20s WALL (     107 calls)
     ffts         :      0.15s CPU      0.17s WALL (     149 calls)
     fftw         :     74.04s CPU    110.85s WALL (   67616 calls)
     interpolate  :      0.00s CPU      0.00s WALL (       9 calls)
 
     Parallel routines
 
     PWSCF        :   1m36.22s CPU   2m23.07s WALL

 
   This run was terminated on:  14:28:12   7Jul2023            

=------------------------------------------------------------------------------=
   JOB DONE.
=------------------------------------------------------------------------------=
