
     Program PWSCF v.7.0 starts on 24Mar2023 at 10:44:59 

     This program is part of the open-source Quantum ESPRESSO suite
     for quantum simulation of materials; please cite
         "P. Giannozzi et al., J. Phys.:Condens. Matter 21 395502 (2009);
         "P. Giannozzi et al., J. Phys.:Condens. Matter 29 465901 (2017);
         "P. Giannozzi et al., J. Chem. Phys. 152 154105 (2020);
          URL http://www.quantum-espresso.org", 
     in publications or presentations arising from this work. More details at
     http://www.quantum-espresso.org/quote

     Parallel version (MPI), running on     1 processors

     MPI processes distributed on     1 nodes
     25525 MiB available memory on the printing compute node when the environment starts
 
     Waiting for input...
     Reading input from standard input

     Current dimensions of program PWSCF are:
     Max number of different atomic species (ntypx) = 10
     Max number of k-points (npk) =  40000
     Max angular momentum in pseudopotentials (lmaxx) =  4

     WARNING: the MGGA functional with ID    5 has been 
     read together with other dft terms, but it should 
     stand alone in order to work properly. The other 
     terms will be ignored.

     Subspace diagonalization in iterative solution of the eigenvalue problem:
     a serial algorithm will be used

 
     G-vector sticks info
     --------------------
     sticks:   dense  smooth     PW     G-vecs:    dense   smooth      PW
     Sum        1175    1175    345                25699    25699    4093
 
     Using Slab Decomposition
 


     bravais-lattice index     =            3
     lattice parameter (alat)  =      10.2631  a.u.
     unit-cell volume          =     540.5124 (a.u.)^3
     number of atoms/cell      =            1
     number of atomic types    =            1
     number of electrons       =         1.00
     number of Kohn-Sham states=            5
     kinetic-energy cutoff     =      50.0000  Ry
     charge density cutoff     =     200.0000  Ry
     scf convergence threshold =      1.0E-06
     mixing beta               =       0.0100
     number of iterations used =            8  local-TF  mixing
     energy convergence thresh.=      1.0E-04
     force convergence thresh. =      1.0E-03
     press convergence thresh. =      5.0E-01
     Exchange-correlation= SLA  PW   SCAN SCAN
                           (   0   0   0   0   0 263 267)
     nstep                     =           50


     celldm(1)=  10.263100  celldm(2)=   0.000000  celldm(3)=   0.000000
     celldm(4)=   0.000000  celldm(5)=   0.000000  celldm(6)=   0.000000

     crystal axes: (cart. coord. in units of alat)
               a(1) = (   0.500000   0.500000   0.500000 )  
               a(2) = (  -0.500000   0.500000   0.500000 )  
               a(3) = (  -0.500000  -0.500000   0.500000 )  

     reciprocal axes: (cart. coord. in units 2 pi/alat)
               b(1) = (  1.000000  0.000000  1.000000 )  
               b(2) = ( -1.000000  1.000000  0.000000 )  
               b(3) = (  0.000000 -1.000000  1.000000 )  


     PseudoPot. # 1 for Li read from file:
     ~/Documents/TA/PWDFT.jl/pseudopotentials/scan_upf/Li.SCAN.UPF2
     MD5 check sum: Not computed, couldn't open file
     Pseudo is Norm-conserving, Zval =  1.0
     Generated by new atomic code, or converted to UPF format
     Using radial grid of 1321 points,  1 beta functions with: 
                l(1) =   0

     atomic species   valence    mass     pseudopotential
        Li             1.00     6.94100     Li( 1.00)

     48 Sym. Ops., with inversion, found



   Cartesian axes

     site n.     atom                  positions (alat units)
         1           Li  tau(   1) = (   0.0000000   0.0000000   0.0000000  )

     number of k points=    47  Gaussian smearing, width (Ry)=  0.1000
                       cart. coord. in units 2pi/alat
        k(    1) = (   0.0000000   0.0000000   0.0000000), wk =   0.0020000
        k(    2) = (   0.0000000  -0.1000000   0.1000000), wk =   0.0240000
        k(    3) = (   0.0000000  -0.2000000   0.2000000), wk =   0.0240000
        k(    4) = (   0.0000000  -0.3000000   0.3000000), wk =   0.0240000
        k(    5) = (   0.0000000  -0.4000000   0.4000000), wk =   0.0240000
        k(    6) = (   0.0000000   0.5000000  -0.5000000), wk =   0.0120000
        k(    7) = (  -0.1000000  -0.1000000   0.2000000), wk =   0.0480000
        k(    8) = (  -0.1000000  -0.2000000   0.3000000), wk =   0.0960000
        k(    9) = (  -0.1000000  -0.3000000   0.4000000), wk =   0.0960000
        k(   10) = (  -0.1000000   0.6000000  -0.5000000), wk =   0.0960000
        k(   11) = (  -0.2000000  -0.2000000   0.4000000), wk =   0.0480000
        k(   12) = (  -0.2000000   0.7000000  -0.5000000), wk =   0.0960000
        k(   13) = (  -0.2000000   0.6000000  -0.4000000), wk =   0.0480000
        k(   14) = (  -0.3000000   0.7000000  -0.4000000), wk =   0.0480000
        k(   15) = (   0.0000000   0.0000000   0.2000000), wk =   0.0120000
        k(   16) = (   0.0000000  -0.1000000   0.3000000), wk =   0.0480000
        k(   17) = (   0.0000000  -0.2000000   0.4000000), wk =   0.0480000
        k(   18) = (   0.0000000  -0.3000000   0.5000000), wk =   0.0480000
        k(   19) = (   0.0000000   0.6000000  -0.4000000), wk =   0.0240000
        k(   20) = (  -0.1000000  -0.1000000   0.4000000), wk =   0.0480000
        k(   21) = (  -0.1000000  -0.2000000   0.5000000), wk =   0.0960000
        k(   22) = (  -0.1000000   0.7000000  -0.4000000), wk =   0.0960000
        k(   23) = (  -0.2000000   0.2000000   0.2000000), wk =   0.0160000
        k(   24) = (  -0.2000000   0.8000000  -0.4000000), wk =   0.0480000
        k(   25) = (  -0.2000000   0.7000000  -0.3000000), wk =   0.0480000
        k(   26) = (  -0.3000000   0.3000000   0.2000000), wk =   0.0480000
        k(   27) = (   0.6000000  -0.6000000   0.2000000), wk =   0.0480000
        k(   28) = (   0.6000000  -0.7000000   0.3000000), wk =   0.0480000
        k(   29) = (   0.5000000  -0.5000000   0.2000000), wk =   0.0240000
        k(   30) = (   0.5000000  -0.6000000   0.3000000), wk =   0.0960000
        k(   31) = (   0.4000000  -0.6000000   0.4000000), wk =   0.0160000
        k(   32) = (   0.0000000   0.0000000   0.4000000), wk =   0.0120000
        k(   33) = (   0.0000000  -0.1000000   0.5000000), wk =   0.0480000
        k(   34) = (   0.0000000  -0.2000000   0.6000000), wk =   0.0480000
        k(   35) = (   0.0000000   0.7000000  -0.3000000), wk =   0.0240000
        k(   36) = (  -0.1000000  -0.1000000   0.6000000), wk =   0.0480000
        k(   37) = (  -0.1000000   0.8000000  -0.3000000), wk =   0.0960000
        k(   38) = (  -0.2000000   0.8000000  -0.2000000), wk =   0.0160000
        k(   39) = (   0.6000000  -0.6000000   0.4000000), wk =   0.0160000
        k(   40) = (   0.5000000  -0.5000000   0.4000000), wk =   0.0240000
        k(   41) = (   0.0000000   0.0000000   0.6000000), wk =   0.0120000
        k(   42) = (   0.0000000  -0.1000000   0.7000000), wk =   0.0480000
        k(   43) = (   0.0000000   0.8000000  -0.2000000), wk =   0.0240000
        k(   44) = (  -0.1000000   0.9000000  -0.2000000), wk =   0.0480000
        k(   45) = (   0.0000000   0.0000000   0.8000000), wk =   0.0120000
        k(   46) = (   0.0000000   0.9000000  -0.1000000), wk =   0.0240000
        k(   47) = (   0.0000000   0.0000000  -1.0000000), wk =   0.0020000

     Dense  grid:    25699 G-vectors     FFT dimensions: (  40,  40,  40)

     Estimated max dynamical RAM per process >      48.33 MB

     WARNING: libxc functional with ID  263 depends
      on external parameters: check the user_guide of
      QE if you need to modify them or to check their
      default values.

     Initial potential from superposition of free atoms

     starting charge       0.9953, renormalised to       1.0000
     Starting wfcs are    4 randomized atomic wfcs +    1 random wfcs

     total cpu time spent up to now is        1.1 secs

     Self-consistent Calculation

     iteration #  1     ecut=    50.00 Ry     beta= 0.01
     Davidson diagonalization with overlap
     ethr =  1.00E-02,  avg # of iterations =  6.2

     Threshold (ethr) on eigenvalues was too large:
     Diagonalizing with lowered threshold

     Davidson diagonalization with overlap
     ethr =  1.08E-04,  avg # of iterations =  4.3

     total cpu time spent up to now is        6.6 secs

     total energy              =      -0.47344000 Ry
     estimated scf accuracy    <       0.00100553 Ry

     iteration #  2     ecut=    50.00 Ry     beta= 0.01
     Davidson diagonalization with overlap
     ethr =  1.01E-04,  avg # of iterations =  1.0

     total cpu time spent up to now is        8.5 secs

     total energy              =      -0.47389272 Ry
     estimated scf accuracy    <       0.00098392 Ry

     iteration #  3     ecut=    50.00 Ry     beta= 0.01
     Davidson diagonalization with overlap
     ethr =  9.84E-05,  avg # of iterations =  2.1

     total cpu time spent up to now is       10.9 secs

     total energy              =      -0.47359694 Ry
     estimated scf accuracy    <       0.00033205 Ry

     iteration #  4     ecut=    50.00 Ry     beta= 0.01
     Davidson diagonalization with overlap
     ethr =  3.32E-05,  avg # of iterations =  2.2

     total cpu time spent up to now is       13.5 secs

     total energy              =      -0.47400859 Ry
     estimated scf accuracy    <       0.00003125 Ry

     iteration #  5     ecut=    50.00 Ry     beta= 0.01
     Davidson diagonalization with overlap
     ethr =  3.12E-06,  avg # of iterations =  3.4

     total cpu time spent up to now is       15.8 secs

     total energy              =      -0.47406532 Ry
     estimated scf accuracy    <       0.00004329 Ry

     iteration #  6     ecut=    50.00 Ry     beta= 0.01
     Davidson diagonalization with overlap
     ethr =  3.12E-06,  avg # of iterations =  2.2

     total cpu time spent up to now is       18.1 secs

     total energy              =      -0.47487474 Ry
     estimated scf accuracy    <       0.00006829 Ry

     iteration #  7     ecut=    50.00 Ry     beta= 0.01
     Davidson diagonalization with overlap
     c_bands:  1 eigenvalues not converged
     c_bands:  1 eigenvalues not converged
     c_bands:  1 eigenvalues not converged
     ethr =  3.12E-06,  avg # of iterations =  6.4

     total cpu time spent up to now is       21.9 secs

     total energy              =      -0.47553824 Ry
     estimated scf accuracy    <       0.00001144 Ry

     iteration #  8     ecut=    50.00 Ry     beta= 0.01
     Davidson diagonalization with overlap
     ethr =  1.14E-06,  avg # of iterations =  3.2

     total cpu time spent up to now is       24.6 secs

     total energy              =      -0.47555246 Ry
     estimated scf accuracy    <       0.00000622 Ry

     iteration #  9     ecut=    50.00 Ry     beta= 0.01
     Davidson diagonalization with overlap
     ethr =  6.22E-07,  avg # of iterations =  1.0

     total cpu time spent up to now is       26.4 secs

     total energy              =      -0.47538912 Ry
     estimated scf accuracy    <       0.00000667 Ry

     iteration # 10     ecut=    50.00 Ry     beta= 0.01
     Davidson diagonalization with overlap
     ethr =  6.22E-07,  avg # of iterations =  2.4

     total cpu time spent up to now is       28.9 secs

     total energy              =      -0.47543952 Ry
     estimated scf accuracy    <       0.00001372 Ry

     iteration # 11     ecut=    50.00 Ry     beta= 0.01
     Davidson diagonalization with overlap
     ethr =  6.22E-07,  avg # of iterations =  3.9

     total cpu time spent up to now is       32.2 secs

     total energy              =      -0.47550572 Ry
     estimated scf accuracy    <       0.00000775 Ry

     iteration # 12     ecut=    50.00 Ry     beta= 0.01
     Davidson diagonalization with overlap
     ethr =  6.22E-07,  avg # of iterations =  3.8

     total cpu time spent up to now is       35.4 secs

     total energy              =      -0.47561144 Ry
     estimated scf accuracy    <       0.00000775 Ry

     iteration # 13     ecut=    50.00 Ry     beta= 0.01
     Davidson diagonalization with overlap
     ethr =  6.22E-07,  avg # of iterations =  2.0

     total cpu time spent up to now is       37.9 secs

     total energy              =      -0.47562086 Ry
     estimated scf accuracy    <       0.00000333 Ry

     iteration # 14     ecut=    50.00 Ry     beta= 0.01
     Davidson diagonalization with overlap
     ethr =  3.33E-07,  avg # of iterations =  2.7

     total cpu time spent up to now is       40.6 secs

     total energy              =      -0.47562477 Ry
     estimated scf accuracy    <       0.00000163 Ry

     iteration # 15     ecut=    50.00 Ry     beta= 0.01
     Davidson diagonalization with overlap
     ethr =  1.63E-07,  avg # of iterations =  4.4

     total cpu time spent up to now is       43.8 secs

     total energy              =      -0.47551483 Ry
     estimated scf accuracy    <       0.00000237 Ry

     iteration # 16     ecut=    50.00 Ry     beta= 0.01
     Davidson diagonalization with overlap
     ethr =  1.63E-07,  avg # of iterations =  5.1

     total cpu time spent up to now is       47.5 secs

     total energy              =      -0.47556918 Ry
     estimated scf accuracy    <       0.00000666 Ry

     iteration # 17     ecut=    50.00 Ry     beta= 0.01
     Davidson diagonalization with overlap
     ethr =  1.63E-07,  avg # of iterations =  4.3

     total cpu time spent up to now is       50.8 secs

     End of self-consistent calculation

          k = 0.0000 0.0000 0.0000 (  3151 PWs)   bands (ev):

    -3.6433   4.7217   4.7217   4.7217   7.5937

          k = 0.0000-0.1000 0.1000 (  3211 PWs)   bands (ev):

    -3.5354   4.2062   4.4554   4.6370   6.7775

          k = 0.0000-0.2000 0.2000 (  3224 PWs)   bands (ev):

    -3.2123   2.9605   3.9576   4.4098   6.0052

          k = 0.0000-0.3000 0.3000 (  3226 PWs)   bands (ev):

    -2.6756   1.5411   3.5208   4.1375   5.5656

          k = 0.0000-0.4000 0.4000 (  3202 PWs)   bands (ev):

    -1.9311   0.2186   3.2402   3.9319   5.2189

          k = 0.0000 0.5000-0.5000 (  3208 PWs)   bands (ev):

    -1.1373  -0.7733   3.1443   3.8571   5.1031

          k =-0.1000-0.1000 0.2000 (  3219 PWs)   bands (ev):

    -3.3199   3.5439   3.8547   4.3442   6.3593

          k =-0.1000-0.2000 0.3000 (  3225 PWs)   bands (ev):

    -2.8898   2.3117   3.1931   3.9888   5.9449

          k =-0.1000-0.3000 0.4000 (  3217 PWs)   bands (ev):

    -2.2480   0.9349   2.8024   3.6831   5.6158

          k =-0.1000 0.6000-0.5000 (  3213 PWs)   bands (ev):

    -1.4101  -0.2937   2.6062   3.5133   5.4449

          k =-0.2000-0.2000 0.4000 (  3222 PWs)   bands (ev):

    -2.3540   1.7891   1.8711   3.6182   6.0972

          k =-0.2000 0.7000-0.5000 (  3226 PWs)   bands (ev):

    -1.6099   0.5213   1.5253   3.3722   6.0041

          k =-0.2000 0.6000-0.4000 (  3225 PWs)   bands (ev):

    -0.7950  -0.4893   1.4237   3.2860   5.9425

          k =-0.3000 0.7000-0.4000 (  3229 PWs)   bands (ev):

    -0.7715   0.2231   0.4061   3.2123   6.3968

          k = 0.0000 0.0000 0.2000 (  3215 PWs)   bands (ev):

    -3.4276   4.1473   4.1473   4.2237   6.2904

          k = 0.0000-0.1000 0.3000 (  3225 PWs)   bands (ev):

    -3.1046   3.0233   3.6017   4.0639   5.6260

          k = 0.0000-0.2000 0.4000 (  3219 PWs)   bands (ev):

    -2.5681   1.6332   3.1378   3.8137   5.5081

          k = 0.0000-0.3000 0.5000 (  3225 PWs)   bands (ev):

    -1.8238   0.3183   2.8434   3.6022   5.5356

          k = 0.0000 0.6000-0.4000 (  3230 PWs)   bands (ev):

    -1.0237  -0.6781   2.7433   3.5244   5.5463

          k =-0.1000-0.1000 0.4000 (  3229 PWs)   bands (ev):

    -2.6749   2.4094   2.5469   3.9297   5.2374

          k =-0.1000-0.2000 0.5000 (  3228 PWs)   bands (ev):

    -2.0338   1.1271   2.0826   3.8086   5.3116

          k =-0.1000 0.7000-0.4000 (  3227 PWs)   bands (ev):

    -1.1948  -0.0939   1.8793   3.6953   5.4158

          k =-0.2000 0.2000 0.2000 (  3238 PWs)   bands (ev):

    -2.9972   2.8859   3.3137   3.3137   6.5109

          k =-0.2000 0.8000-0.4000 (  3230 PWs)   bands (ev):

    -1.2916   0.7709   0.8616   3.8993   5.4952

          k =-0.2000 0.7000-0.3000 (  3233 PWs)   bands (ev):

    -0.4569  -0.2146   0.7213   3.9063   5.6758

          k =-0.3000 0.3000 0.2000 (  3226 PWs)   bands (ev):

    -2.4610   1.7333   2.5846   2.8423   6.6338

          k = 0.6000-0.6000 0.2000 (  3228 PWs)   bands (ev):

    -1.7165   0.4227   2.2881   2.5402   6.5616

          k = 0.6000-0.7000 0.3000 (  3220 PWs)   bands (ev):

    -1.8206   1.3312   1.3413   2.3300   6.9829

          k = 0.5000-0.5000 0.2000 (  3224 PWs)   bands (ev):

    -0.9084  -0.5825   2.1920   2.4372   6.5248

          k = 0.5000-0.6000 0.3000 (  3225 PWs)   bands (ev):

    -0.9793   0.1101   1.1337   2.1284   7.1206

          k = 0.4000-0.6000 0.4000 (  3220 PWs)   bands (ev):

    -0.1119  -0.1119   0.1963   2.0282   7.3652

          k = 0.0000 0.0000 0.4000 (  3231 PWs)   bands (ev):

    -2.7820   3.0100   3.0100   3.3771   4.6045

          k = 0.0000-0.1000 0.5000 (  3226 PWs)   bands (ev):

    -2.2463   1.8889   2.5226   3.2467   4.3713

          k = 0.0000-0.2000 0.6000 (  3241 PWs)   bands (ev):

    -1.5027   0.6133   2.2170   3.0728   4.7988

          k = 0.0000 0.7000-0.3000 (  3240 PWs)   bands (ev):

    -0.6847  -0.3939   2.1136   2.9970   5.2020

          k =-0.1000-0.1000 0.6000 (  3237 PWs)   bands (ev):

    -1.6069   1.4821   1.4891   3.3159   4.1475

          k =-0.1000 0.8000-0.3000 (  3246 PWs)   bands (ev):

    -0.7680   0.3007   1.2800   3.3379   4.5850

          k =-0.2000 0.8000-0.2000 (  3225 PWs)   bands (ev):

     0.0979   0.0979   0.3557   3.6450   4.8645

          k = 0.6000-0.6000 0.4000 (  3223 PWs)   bands (ev):

    -1.0782   1.0143   1.0143   1.0671   7.9008

          k = 0.5000-0.5000 0.4000 (  3224 PWs)   bands (ev):

    -0.2242  -0.0213   0.9043   0.9613   8.1249

          k = 0.0000 0.0000 0.6000 (  3248 PWs)   bands (ev):

    -1.7124   2.0239   2.0239   2.6811   3.3985

          k = 0.0000-0.1000 0.7000 (  3243 PWs)   bands (ev):

    -0.9720   1.0754   1.7129   2.6205   3.4901

          k = 0.0000 0.8000-0.2000 (  3232 PWs)   bands (ev):

    -0.1280   0.0734   1.6079   2.5658   4.0558

          k =-0.1000 0.9000-0.2000 (  3239 PWs)   bands (ev):

    -0.1414   0.8324   0.9010   2.8599   3.4647

          k = 0.0000 0.0000 0.8000 (  3256 PWs)   bands (ev):

    -0.2418   1.3995   1.3995   2.2461   2.6745

          k = 0.0000 0.9000-0.1000 (  3260 PWs)   bands (ev):

     0.6111   0.6951   1.2937   2.2697   2.9476

          k = 0.0000 0.0000-1.0000 (  3300 PWs)   bands (ev):

     1.1878   1.1878   1.1878   2.0211   2.4330

     the Fermi energy is    -1.7131 ev

!    total energy              =      -0.47560480 Ry
     estimated scf accuracy    <       0.00000049 Ry
     smearing contrib. (-TS)   =      -0.04628949 Ry
     internal energy E=F+TS    =      -0.42931531 Ry

     The total energy is F=E-TS. E is the sum of the following terms:
     one-electron contribution =       0.16091342 Ry
     hartree contribution      =       0.00031586 Ry
     xc contribution           =      -0.23595061 Ry
     ewald contribution        =      -0.35459398 Ry

     convergence has been achieved in  17 iterations
     Writing meta-gga kinetic term


     Computing stress (Cartesian axis) and pressure

          total   stress  (Ry/bohr**3)                   (kbar)     P=      -15.81
  -0.00010745   0.00000000  -0.00000000          -15.81        0.00       -0.00
   0.00000000  -0.00010745   0.00000000            0.00      -15.81        0.00
  -0.00000000   0.00000000  -0.00010745           -0.00        0.00      -15.81


     BFGS Geometry Optimization
     Energy error            =      0.0E+00 Ry
     Gradient error          =      0.0E+00 Ry/Bohr
     Cell gradient error     =      1.6E+01 kbar

     number of scf cycles    =   1
     number of bfgs steps    =   0

     enthalpy           new  =      -0.4756047982 Ry

     new trust radius        =       0.0124902203 bohr
     new conv_thr            =       0.0000010000 Ry

     new unit-cell volume =    536.16836 a.u.^3 (    79.45195 Ang^3 )
     density =      0.14507 g/cm^3

CELL_PARAMETERS (alat= 10.26310000)
   0.498656903   0.498656903   0.498656903
  -0.498656903   0.498656903   0.498656903
  -0.498656903  -0.498656903   0.498656903

ATOMIC_POSITIONS (alat)
Li            0.0000000000        0.0000000000        0.0000000000    0   0   0



     Writing config-only to output data dir ./pwscf.save/
     NEW-OLD atomic charge density approx. for the potential
     extrapolated charge    0.99194, renormalised to    1.00000

     total cpu time spent up to now is       51.8 secs

     Self-consistent Calculation

     iteration #  1     ecut=    50.00 Ry     beta= 0.01
     Davidson diagonalization with overlap
     ethr =  1.00E-06,  avg # of iterations =  3.4

     total cpu time spent up to now is       54.7 secs

     total energy              =      -0.47612760 Ry
     estimated scf accuracy    <       0.00000204 Ry

     iteration #  2     ecut=    50.00 Ry     beta= 0.01
     Davidson diagonalization with overlap
     ethr =  2.04E-07,  avg # of iterations =  2.4

     total cpu time spent up to now is       57.0 secs

     total energy              =      -0.47614953 Ry
     estimated scf accuracy    <       0.00000244 Ry

     iteration #  3     ecut=    50.00 Ry     beta= 0.01
     Davidson diagonalization with overlap
     ethr =  2.04E-07,  avg # of iterations =  1.9

     total cpu time spent up to now is       59.0 secs

     total energy              =      -0.47603627 Ry
     estimated scf accuracy    <       0.00000307 Ry

     iteration #  4     ecut=    50.00 Ry     beta= 0.01
     Davidson diagonalization with overlap
     ethr =  2.04E-07,  avg # of iterations =  3.9

     total cpu time spent up to now is       62.1 secs

     End of self-consistent calculation

          k = 0.0000 0.0000 0.0000 (  3151 PWs)   bands (ev):

    -3.6421   4.7623   4.7623   4.7623   7.6372

          k = 0.0000-0.1003 0.1003 (  3211 PWs)   bands (ev):

    -3.5340   4.2419   4.4931   4.6764   6.8079

          k = 0.0000-0.2005 0.2005 (  3224 PWs)   bands (ev):

    -3.2100   2.9866   3.9909   4.4461   6.0370

          k = 0.0000-0.3008 0.3008 (  3226 PWs)   bands (ev):

    -2.6717   1.5596   3.5510   4.1707   5.5935

          k = 0.0000-0.4011 0.4011 (  3202 PWs)   bands (ev):

    -1.9251   0.2318   3.2683   3.9631   5.2456

          k = 0.0000 0.5013-0.5013 (  3208 PWs)   bands (ev):

    -1.1286  -0.7637   3.1719   3.8877   5.1294

          k =-0.1003-0.1003 0.2005 (  3219 PWs)   bands (ev):

    -3.3179   3.5752   3.8851   4.3801   6.3912

          k =-0.1003-0.2005 0.3008 (  3225 PWs)   bands (ev):

    -2.8866   2.3341   3.2199   4.0207   5.9788

          k =-0.1003-0.3008 0.4011 (  3217 PWs)   bands (ev):

    -2.2429   0.9509   2.8272   3.7124   5.6497

          k =-0.1003 0.6016-0.5013 (  3213 PWs)   bands (ev):

    -1.4024  -0.2823   2.6299   3.5413   5.4782

          k =-0.2005-0.2005 0.4011 (  3222 PWs)   bands (ev):

    -2.3492   1.8099   1.8895   3.6473   6.1361

          k =-0.2005 0.7019-0.5013 (  3226 PWs)   bands (ev):

    -1.6029   0.5356   1.5437   3.3996   6.0422

          k =-0.2005 0.6016-0.4011 (  3225 PWs)   bands (ev):

    -0.7854  -0.4786   1.4417   3.3129   5.9801

          k =-0.3008 0.7019-0.4011 (  3229 PWs)   bands (ev):

    -0.7619   0.2358   0.4206   3.2388   6.4413

          k = 0.0000 0.0000 0.2005 (  3215 PWs)   bands (ev):

    -3.4259   4.1817   4.1817   4.2607   6.3135

          k = 0.0000-0.1003 0.3008 (  3225 PWs)   bands (ev):

    -3.1020   3.0498   3.6315   4.0983   5.6522

          k = 0.0000-0.2005 0.4011 (  3219 PWs)   bands (ev):

    -2.5639   1.6521   3.1644   3.8451   5.5400

          k = 0.0000-0.3008 0.5013 (  3225 PWs)   bands (ev):

    -1.8174   0.3319   2.8681   3.6317   5.5712

          k = 0.0000 0.6016-0.4011 (  3230 PWs)   bands (ev):

    -1.0147  -0.6682   2.7674   3.5533   5.5830

          k =-0.1003-0.1003 0.4011 (  3229 PWs)   bands (ev):

    -2.6711   2.4333   2.5687   3.9636   5.2635

          k =-0.1003-0.2005 0.5013 (  3228 PWs)   bands (ev):

    -2.0280   1.1438   2.1033   3.8409   5.3409

          k =-0.1003 0.7019-0.4011 (  3227 PWs)   bands (ev):

    -1.1864  -0.0819   1.8991   3.7263   5.4477

          k =-0.2005 0.2005 0.2005 (  3238 PWs)   bands (ev):

    -2.9943   2.9137   3.3394   3.3394   6.5506

          k =-0.2005 0.8022-0.4011 (  3230 PWs)   bands (ev):

    -1.2836   0.7853   0.8780   3.9328   5.5242

          k =-0.2005 0.7019-0.3008 (  3233 PWs)   bands (ev):

    -0.4463  -0.2030   0.7365   3.9396   5.7068

          k =-0.3008 0.3008 0.2005 (  3226 PWs)   bands (ev):

    -2.4565   1.7529   2.6087   2.8652   6.6769

          k = 0.6016-0.6016 0.2005 (  3228 PWs)   bands (ev):

    -1.7098   0.4367   2.3110   2.5616   6.6047

          k = 0.6016-0.7019 0.3008 (  3220 PWs)   bands (ev):

    -1.8142   1.3499   1.3578   2.3515   7.0312

          k = 0.5013-0.5013 0.2005 (  3224 PWs)   bands (ev):

    -0.8990  -0.5721   2.2145   2.4581   6.5681

          k = 0.5013-0.6016 0.3008 (  3225 PWs)   bands (ev):

    -0.9703   0.1228   1.1506   2.1492   7.1702

          k = 0.4011-0.6016 0.4011 (  3220 PWs)   bands (ev):

    -0.1001  -0.1001   0.2102   2.0487   7.4192

          k = 0.0000 0.0000 0.4011 (  3231 PWs)   bands (ev):

    -2.7785   3.0354   3.0354   3.4092   4.6252

          k = 0.0000-0.1003 0.5013 (  3226 PWs)   bands (ev):

    -2.2412   1.9088   2.5450   3.2764   4.3950

          k = 0.0000-0.2005 0.6016 (  3241 PWs)   bands (ev):

    -1.4954   0.6278   2.2377   3.1002   4.8281

          k = 0.0000 0.7019-0.3008 (  3240 PWs)   bands (ev):

    -0.6748  -0.3829   2.1337   3.0238   5.2361

          k =-0.1003-0.1003 0.6016 (  3237 PWs)   bands (ev):

    -1.5999   1.5008   1.5060   3.3467   4.1705

          k =-0.1003 0.8022-0.3008 (  3246 PWs)   bands (ev):

    -0.7584   0.3140   1.2970   3.3677   4.6125

          k =-0.2005 0.8022-0.2005 (  3225 PWs)   bands (ev):

     0.1100   0.1100   0.3700   3.6791   4.8908

          k = 0.6016-0.6016 0.4011 (  3223 PWs)   bands (ev):

    -1.0694   1.0297   1.0297   1.0853   7.9571

          k = 0.5013-0.5013 0.4011 (  3224 PWs)   bands (ev):

    -0.2128  -0.0088   0.9193   0.9784   8.1845

          k = 0.0000 0.0000 0.6016 (  3248 PWs)   bands (ev):

    -1.7057   2.0434   2.0434   2.7100   3.4178

          k = 0.0000-0.1003 0.7019 (  3243 PWs)   bands (ev):

    -0.9631   1.0914   1.7309   2.6471   3.5125

          k = 0.0000 0.8022-0.2005 (  3232 PWs)   bands (ev):

    -0.1166   0.0860   1.6253   2.5913   4.0838

          k =-0.1003 0.9024-0.2005 (  3239 PWs)   bands (ev):

    -0.1299   0.8468   0.9169   2.8891   3.4860

          k = 0.0000 0.0000 0.8022 (  3256 PWs)   bands (ev):

    -0.2306   1.4158   1.4158   2.2732   2.6928

          k = 0.0000 0.9024-0.1003 (  3260 PWs)   bands (ev):

     0.6248   0.7098   1.3096   2.2955   2.9697

          k = 0.0000 0.0000-1.0027 (  3300 PWs)   bands (ev):

     1.2031   1.2031   1.2031   2.0491   2.4511

     the Fermi energy is    -1.7054 ev

!    total energy              =      -0.47607764 Ry
     estimated scf accuracy    <       0.00000006 Ry
     smearing contrib. (-TS)   =      -0.04616814 Ry
     internal energy E=F+TS    =      -0.42990951 Ry

     The total energy is F=E-TS. E is the sum of the following terms:
     one-electron contribution =       0.16186082 Ry
     hartree contribution      =       0.00030558 Ry
     xc contribution           =      -0.23652685 Ry
     ewald contribution        =      -0.35554906 Ry

     convergence has been achieved in   4 iterations
     Writing meta-gga kinetic term


     Computing stress (Cartesian axis) and pressure

          total   stress  (Ry/bohr**3)                   (kbar)     P=      -15.91
  -0.00010812  -0.00000000   0.00000000          -15.91       -0.00        0.00
  -0.00000000  -0.00010812  -0.00000000           -0.00      -15.91       -0.00
   0.00000000  -0.00000000  -0.00010812            0.00       -0.00      -15.91

     Energy error            =      4.7E-04 Ry
     Gradient error          =      0.0E+00 Ry/Bohr
     Cell gradient error     =      1.6E+01 kbar

     number of scf cycles    =   2
     number of bfgs steps    =   1

     enthalpy           old  =      -0.4756047982 Ry
     enthalpy           new  =      -0.4760776444 Ry

     CASE: enthalpy          _new < enthalpy          _old


     WARNING: bfgs curvature condition failed, Theta= 0.799
     new trust radius        =       0.0187101502 bohr
     new conv_thr            =       0.0000000100 Ry

     new unit-cell volume =    529.69599 a.u.^3 (    78.49285 Ang^3 )
     density =      0.14684 g/cm^3

CELL_PARAMETERS (alat= 10.26310000)
   0.496642258   0.496642258   0.496642258
  -0.496642258   0.496642258   0.496642258
  -0.496642258  -0.496642258   0.496642258

ATOMIC_POSITIONS (alat)
Li            0.0000000000        0.0000000000        0.0000000000    0   0   0



     Writing config-only to output data dir ./pwscf.save/
     NEW-OLD atomic charge density approx. for the potential
     extrapolated charge    0.98784, renormalised to    1.00000

     total cpu time spent up to now is       63.1 secs

     Self-consistent Calculation

     iteration #  1     ecut=    50.00 Ry     beta= 0.01
     Davidson diagonalization with overlap
     ethr =  1.00E-06,  avg # of iterations =  3.2

     total cpu time spent up to now is       66.0 secs

     total energy              =      -0.47684803 Ry
     estimated scf accuracy    <       0.00000340 Ry

     iteration #  2     ecut=    50.00 Ry     beta= 0.01
     Davidson diagonalization with overlap
     ethr =  3.40E-07,  avg # of iterations =  2.4

     total cpu time spent up to now is       68.6 secs

     total energy              =      -0.47688167 Ry
     estimated scf accuracy    <       0.00000449 Ry

     iteration #  3     ecut=    50.00 Ry     beta= 0.01
     Davidson diagonalization with overlap
     ethr =  3.40E-07,  avg # of iterations =  1.6

     total cpu time spent up to now is       70.5 secs

     total energy              =      -0.47672914 Ry
     estimated scf accuracy    <       0.00000530 Ry

     iteration #  4     ecut=    50.00 Ry     beta= 0.01
     Davidson diagonalization with overlap
     ethr =  3.40E-07,  avg # of iterations =  3.8

     total cpu time spent up to now is       73.6 secs

     total energy              =      -0.47678951 Ry
     estimated scf accuracy    <       0.00000022 Ry

     iteration #  5     ecut=    50.00 Ry     beta= 0.01
     Davidson diagonalization with overlap
     ethr =  2.18E-08,  avg # of iterations =  1.7

     total cpu time spent up to now is       75.5 secs

     total energy              =      -0.47679506 Ry
     estimated scf accuracy    <       0.00000025 Ry

     iteration #  6     ecut=    50.00 Ry     beta= 0.01
     Davidson diagonalization with overlap
     ethr =  2.18E-08,  avg # of iterations =  3.3

     total cpu time spent up to now is       77.9 secs

     total energy              =      -0.47678401 Ry
     estimated scf accuracy    <       0.00000004 Ry

     iteration #  7     ecut=    50.00 Ry     beta= 0.01
     Davidson diagonalization with overlap
     ethr =  4.48E-09,  avg # of iterations =  4.3

     total cpu time spent up to now is       80.8 secs

     End of self-consistent calculation

          k = 0.0000 0.0000 0.0000 (  3151 PWs)   bands (ev):

    -3.6429   4.8048   4.8048   4.8048   7.7273

          k = 0.0000-0.1007 0.1007 (  3211 PWs)   bands (ev):

    -3.5342   4.2850   4.5375   4.7167   6.8610

          k = 0.0000-0.2014 0.2014 (  3224 PWs)   bands (ev):

    -3.2084   3.0245   4.0367   4.4810   6.0833

          k = 0.0000-0.3020 0.3020 (  3226 PWs)   bands (ev):

    -2.6673   1.5893   3.5966   4.2001   5.6603

          k = 0.0000-0.4027 0.4027 (  3202 PWs)   bands (ev):

    -1.9169   0.2539   3.3136   3.9888   5.3111

          k = 0.0000 0.5034-0.5034 (  3208 PWs)   bands (ev):

    -1.1196  -0.7437   3.2169   3.9122   5.1945

          k =-0.1007-0.1007 0.2014 (  3219 PWs)   bands (ev):

    -3.3169   3.6178   3.9262   4.4190   6.4369

          k =-0.1007-0.2014 0.3020 (  3225 PWs)   bands (ev):

    -2.8833   2.3687   3.2597   4.0564   6.0330

          k =-0.1007-0.3020 0.4027 (  3217 PWs)   bands (ev):

    -2.2363   0.9770   2.8661   3.7454   5.7046

          k =-0.1007 0.6041-0.5034 (  3213 PWs)   bands (ev):

    -1.3920  -0.2626   2.6682   3.5729   5.5335

          k =-0.2014-0.2014 0.4027 (  3222 PWs)   bands (ev):

    -2.3431   1.8446   1.9177   3.6828   6.2015

          k =-0.2014 0.7047-0.5034 (  3226 PWs)   bands (ev):

    -1.5929   0.5591   1.5737   3.4341   6.1033

          k =-0.2014 0.6041-0.4027 (  3225 PWs)   bands (ev):

    -0.7742  -0.4576   1.4712   3.3469   6.0403

          k =-0.3020 0.7047-0.4027 (  3229 PWs)   bands (ev):

    -0.7479   0.2533   0.4488   3.2731   6.5115

          k = 0.0000 0.0000 0.2014 (  3215 PWs)   bands (ev):

    -3.4255   4.2277   4.2277   4.2987   6.3477

          k = 0.0000-0.1007 0.3020 (  3225 PWs)   bands (ev):

    -3.0999   3.0892   3.6783   4.1342   5.6855

          k = 0.0000-0.2014 0.4027 (  3219 PWs)   bands (ev):

    -2.5589   1.6829   3.2106   3.8746   5.5791

          k = 0.0000-0.3020 0.5034 (  3225 PWs)   bands (ev):

    -1.8085   0.3548   2.9138   3.6575   5.6149

          k = 0.0000 0.6041-0.4027 (  3230 PWs)   bands (ev):

    -1.0048  -0.6476   2.8129   3.5778   5.6284

          k =-0.1007-0.1007 0.4027 (  3229 PWs)   bands (ev):

    -2.6666   2.4713   2.6050   4.0014   5.2965

          k =-0.1007-0.2014 0.5034 (  3228 PWs)   bands (ev):

    -2.0201   1.1719   2.1386   3.8761   5.3797

          k =-0.1007 0.7047-0.4027 (  3227 PWs)   bands (ev):

    -1.1744  -0.0609   1.9337   3.7596   5.4945

          k =-0.2014 0.2014 0.2014 (  3238 PWs)   bands (ev):

    -2.9916   2.9557   3.3740   3.3740   6.6079

          k =-0.2014 0.8054-0.4027 (  3230 PWs)   bands (ev):

    -1.2716   0.8077   0.9085   3.9698   5.5647

          k =-0.2014 0.7047-0.3020 (  3233 PWs)   bands (ev):

    -0.4325  -0.1810   0.7636   3.9766   5.7548

          k =-0.3020 0.3020 0.2014 (  3226 PWs)   bands (ev):

    -2.4511   1.7839   2.6457   2.8954   6.7396

          k = 0.6041-0.6041 0.2014 (  3228 PWs)   bands (ev):

    -1.7005   0.4596   2.3482   2.5894   6.6641

          k = 0.6041-0.7047 0.3020 (  3220 PWs)   bands (ev):

    -1.8054   1.3811   1.3822   2.3824   7.1000

          k = 0.5034-0.5034 0.2014 (  3224 PWs)   bands (ev):

    -0.8887  -0.5516   2.2516   2.4851   6.6282

          k = 0.5034-0.6041 0.3020 (  3225 PWs)   bands (ev):

    -0.9575   0.1436   1.1777   2.1794   7.2413

          k = 0.4027-0.6041 0.4027 (  3220 PWs)   bands (ev):

    -0.0853  -0.0853   0.2391   2.0787   7.4955

          k = 0.0000 0.0000 0.4027 (  3231 PWs)   bands (ev):

    -2.7746   3.0819   3.0819   3.4409   4.6463

          k = 0.0000-0.1007 0.5034 (  3226 PWs)   bands (ev):

    -2.2343   1.9438   2.5906   3.3059   4.4214

          k = 0.0000-0.2014 0.6041 (  3241 PWs)   bands (ev):

    -1.4844   0.6535   2.2825   3.1243   4.8642

          k = 0.0000 0.7047-0.3020 (  3240 PWs)   bands (ev):

    -0.6622  -0.3605   2.1783   3.0464   5.2774

          k =-0.1007-0.1007 0.6041 (  3237 PWs)   bands (ev):

    -1.5893   1.5360   1.5372   3.3830   4.1971

          k =-0.1007 0.8054-0.3020 (  3246 PWs)   bands (ev):

    -0.7431   0.3381   1.3296   3.4023   4.6475

          k =-0.2014 0.8054-0.2014 (  3225 PWs)   bands (ev):

     0.1288   0.1288   0.4013   3.7199   4.9273

          k = 0.6041-0.6041 0.4027 (  3223 PWs)   bands (ev):

    -1.0569   1.0505   1.0505   1.1201   8.0325

          k = 0.5034-0.5034 0.4027 (  3224 PWs)   bands (ev):

    -0.1989   0.0126   0.9392   1.0098   8.2651

          k = 0.0000 0.0000 0.6041 (  3248 PWs)   bands (ev):

    -1.6956   2.0879   2.0879   2.7373   3.4295

          k = 0.0000-0.1007 0.7047 (  3243 PWs)   bands (ev):

    -0.9483   1.1230   1.7745   2.6711   3.5358

          k = 0.0000 0.8054-0.2014 (  3232 PWs)   bands (ev):

    -0.0990   0.1120   1.6686   2.6122   4.1182

          k =-0.1007 0.9061-0.2014 (  3239 PWs)   bands (ev):

    -0.1095   0.8745   0.9506   2.9248   3.5086

          k = 0.0000 0.0000 0.8054 (  3256 PWs)   bands (ev):

    -0.2103   1.4585   1.4585   2.2986   2.6989

          k = 0.0000 0.9061-0.1007 (  3260 PWs)   bands (ev):

     0.6512   0.7419   1.3520   2.3188   2.9914

          k = 0.0000 0.0000-1.0068 (  3300 PWs)   bands (ev):

     1.2452   1.2452   1.2452   2.0784   2.4553

     the Fermi energy is    -1.6941 ev

!    total energy              =      -0.47678631 Ry
     estimated scf accuracy    <          7.8E-09 Ry
     smearing contrib. (-TS)   =      -0.04593707 Ry
     internal energy E=F+TS    =      -0.43084924 Ry

     The total energy is F=E-TS. E is the sum of the following terms:
     one-electron contribution =       0.16328300 Ry
     hartree contribution      =       0.00028720 Ry
     xc contribution           =      -0.23742809 Ry
     ewald contribution        =      -0.35699135 Ry

     convergence has been achieved in   7 iterations
     Writing meta-gga kinetic term


     Computing stress (Cartesian axis) and pressure

          total   stress  (Ry/bohr**3)                   (kbar)     P=      -16.09
  -0.00010936  -0.00000000   0.00000000          -16.09       -0.00        0.00
  -0.00000000  -0.00010936  -0.00000000           -0.00      -16.09       -0.00
   0.00000000  -0.00000000  -0.00010936            0.00       -0.00      -16.09

     Energy error            =      7.1E-04 Ry
     Gradient error          =      0.0E+00 Ry/Bohr
     Cell gradient error     =      1.6E+01 kbar

     number of scf cycles    =   3
     number of bfgs steps    =   2

     enthalpy           old  =      -0.4760776444 Ry
     enthalpy           new  =      -0.4767863068 Ry

     CASE: enthalpy          _new < enthalpy          _old


     WARNING: bfgs curvature condition failed, Theta= 0.007
     new trust radius        =       0.0280084742 bohr
     new conv_thr            =       0.0000000100 Ry

     new unit-cell volume =    520.08543 a.u.^3 (    77.06871 Ang^3 )
     density =      0.14955 g/cm^3

CELL_PARAMETERS (alat= 10.26310000)
   0.493620291   0.493620291   0.493620291
  -0.493620291   0.493620291   0.493620291
  -0.493620291  -0.493620291   0.493620291

ATOMIC_POSITIONS (alat)
Li            0.0000000000        0.0000000000        0.0000000000    0   0   0



     Writing config-only to output data dir ./pwscf.save/
     NEW-OLD atomic charge density approx. for the potential
     extrapolated charge    0.98161, renormalised to    1.00000

     total cpu time spent up to now is       81.8 secs

     Self-consistent Calculation

     iteration #  1     ecut=    50.00 Ry     beta= 0.01
     Davidson diagonalization with overlap
     ethr =  1.00E-06,  avg # of iterations =  3.1

     total cpu time spent up to now is       84.7 secs

     total energy              =      -0.47795781 Ry
     estimated scf accuracy    <       0.00000774 Ry

     iteration #  2     ecut=    50.00 Ry     beta= 0.01
     Davidson diagonalization with overlap
     ethr =  7.74E-07,  avg # of iterations =  2.3

     total cpu time spent up to now is       87.2 secs

     total energy              =      -0.47802650 Ry
     estimated scf accuracy    <       0.00001198 Ry

     iteration #  3     ecut=    50.00 Ry     beta= 0.01
     Davidson diagonalization with overlap
     ethr =  7.74E-07,  avg # of iterations =  1.0

     total cpu time spent up to now is       89.0 secs

     total energy              =      -0.47780967 Ry
     estimated scf accuracy    <       0.00001368 Ry

     iteration #  4     ecut=    50.00 Ry     beta= 0.01
     Davidson diagonalization with overlap
     ethr =  7.74E-07,  avg # of iterations =  2.9

     total cpu time spent up to now is       91.7 secs

     total energy              =      -0.47784181 Ry
     estimated scf accuracy    <       0.00000233 Ry

     iteration #  5     ecut=    50.00 Ry     beta= 0.01
     Davidson diagonalization with overlap
     ethr =  2.33E-07,  avg # of iterations =  2.1

     total cpu time spent up to now is       94.1 secs

     total energy              =      -0.47784557 Ry
     estimated scf accuracy    <       0.00000074 Ry

     iteration #  6     ecut=    50.00 Ry     beta= 0.01
     Davidson diagonalization with overlap
     ethr =  7.38E-08,  avg # of iterations =  1.0

     total cpu time spent up to now is       95.9 secs

     total energy              =      -0.47784560 Ry
     estimated scf accuracy    <       0.00000066 Ry

     iteration #  7     ecut=    50.00 Ry     beta= 0.01
     Davidson diagonalization with overlap
     ethr =  6.61E-08,  avg # of iterations =  1.0

     total cpu time spent up to now is       97.7 secs

     total energy              =      -0.47784341 Ry
     estimated scf accuracy    <       0.00000063 Ry

     iteration #  8     ecut=    50.00 Ry     beta= 0.01
     Davidson diagonalization with overlap
     ethr =  6.26E-08,  avg # of iterations =  2.6

     total cpu time spent up to now is       99.9 secs

     total energy              =      -0.47784682 Ry
     estimated scf accuracy    <       0.00000006 Ry

     iteration #  9     ecut=    50.00 Ry     beta= 0.01
     Davidson diagonalization with overlap
     ethr =  5.91E-09,  avg # of iterations =  3.4

     total cpu time spent up to now is      102.3 secs

     total energy              =      -0.47784255 Ry
     estimated scf accuracy    <       0.00000042 Ry

     iteration # 10     ecut=    50.00 Ry     beta= 0.01
     Davidson diagonalization with overlap
     ethr =  5.91E-09,  avg # of iterations =  3.4

     total cpu time spent up to now is      104.6 secs

     total energy              =      -0.47784404 Ry
     estimated scf accuracy    <       0.00000013 Ry

     iteration # 11     ecut=    50.00 Ry     beta= 0.01
     Davidson diagonalization with overlap
     ethr =  5.91E-09,  avg # of iterations =  2.0

     total cpu time spent up to now is      106.6 secs

     total energy              =      -0.47784430 Ry
     estimated scf accuracy    <       0.00000004 Ry

     iteration # 12     ecut=    50.00 Ry     beta= 0.01
     Davidson diagonalization with overlap
     ethr =  4.26E-09,  avg # of iterations =  3.0

     total cpu time spent up to now is      108.8 secs

     End of self-consistent calculation

          k = 0.0000 0.0000 0.0000 (  3151 PWs)   bands (ev):

    -3.6351   4.8708   4.8708   4.8708   7.7979

          k = 0.0000-0.1013 0.1013 (  3211 PWs)   bands (ev):

    -3.5258   4.3459   4.5997   4.7812   6.9184

          k = 0.0000-0.2026 0.2026 (  3224 PWs)   bands (ev):

    -3.1986   3.0733   4.0929   4.5416   6.1437

          k = 0.0000-0.3039 0.3039 (  3226 PWs)   bands (ev):

    -2.6549   1.6272   3.6484   4.2564   5.7105

          k = 0.0000-0.4052 0.4052 (  3202 PWs)   bands (ev):

    -1.9011   0.2839   3.3628   4.0424   5.3593

          k = 0.0000 0.5065-0.5065 (  3208 PWs)   bands (ev):

    -1.1046  -0.7145   3.2652   3.9649   5.2420

          k =-0.1013-0.1013 0.2026 (  3219 PWs)   bands (ev):

    -3.3076   3.6742   3.9783   4.4789   6.4951

          k =-0.1013-0.2026 0.3039 (  3225 PWs)   bands (ev):

    -2.8719   2.4125   3.3078   4.1108   6.0946

          k =-0.1013-0.3039 0.4052 (  3217 PWs)   bands (ev):

    -2.2219   1.0110   2.9118   3.7960   5.7665

          k =-0.1013 0.6078-0.5065 (  3213 PWs)   bands (ev):

    -1.3744  -0.2349   2.7126   3.6217   5.5952

          k =-0.2026-0.2026 0.4052 (  3222 PWs)   bands (ev):

    -2.3292   1.8892   1.9513   3.7333   6.2694

          k =-0.2026 0.7090-0.5065 (  3226 PWs)   bands (ev):

    -1.5755   0.5901   1.6112   3.4824   6.1708

          k =-0.2026 0.6078-0.4052 (  3225 PWs)   bands (ev):

    -0.7573  -0.4278   1.5082   3.3945   6.1075

          k =-0.3039 0.7090-0.4052 (  3229 PWs)   bands (ev):

    -0.7271   0.2763   0.4869   3.3203   6.5872

          k = 0.0000 0.0000 0.2026 (  3215 PWs)   bands (ev):

    -3.4166   4.2853   4.2853   4.3629   6.3970

          k = 0.0000-0.1013 0.3039 (  3225 PWs)   bands (ev):

    -3.0895   3.1383   3.7295   4.1943   5.7364

          k = 0.0000-0.2026 0.4052 (  3219 PWs)   bands (ev):

    -2.5460   1.7213   3.2574   3.9310   5.6368

          k = 0.0000-0.3039 0.5065 (  3225 PWs)   bands (ev):

    -1.7922   0.3852   2.9579   3.7115   5.6786

          k = 0.0000 0.6078-0.4052 (  3230 PWs)   bands (ev):

    -0.9892  -0.6180   2.8561   3.6311   5.6943

          k =-0.1013-0.1013 0.4052 (  3229 PWs)   bands (ev):

    -2.6542   2.5186   2.6443   4.0604   5.3461

          k =-0.1013-0.2026 0.5065 (  3228 PWs)   bands (ev):

    -2.0046   1.2066   2.1786   3.9327   5.4332

          k =-0.1013 0.7090-0.4052 (  3227 PWs)   bands (ev):

    -1.1556  -0.0326   1.9724   3.8142   5.5525

          k =-0.2026 0.2026 0.2026 (  3238 PWs)   bands (ev):

    -2.9807   3.0095   3.4193   3.4193   6.6745

          k =-0.2026 0.8103-0.4052 (  3230 PWs)   bands (ev):

    -1.2527   0.8341   0.9477   4.0270   5.6178

          k =-0.2026 0.7090-0.3039 (  3233 PWs)   bands (ev):

    -0.4136  -0.1513   0.7974   4.0335   5.8119

          k =-0.3039 0.3039 0.2026 (  3226 PWs)   bands (ev):

    -2.4376   1.8236   2.6918   2.9363   6.8098

          k = 0.6078-0.6078 0.2026 (  3228 PWs)   bands (ev):

    -1.6837   0.4904   2.3938   2.6278   6.7384

          k = 0.6078-0.7090 0.3039 (  3220 PWs)   bands (ev):

    -1.7889   1.4111   1.4244   2.4230   7.1774

          k = 0.5065-0.5065 0.2026 (  3224 PWs)   bands (ev):

    -0.8724  -0.5218   2.2968   2.5227   6.7032

          k = 0.5065-0.6078 0.3039 (  3225 PWs)   bands (ev):

    -0.9376   0.1722   1.2134   2.2193   7.3212

          k = 0.4052-0.6078 0.4052 (  3220 PWs)   bands (ev):

    -0.0643  -0.0643   0.2792   2.1184   7.5801

          k = 0.0000 0.0000 0.4052 (  3231 PWs)   bands (ev):

    -2.7626   3.1269   3.1269   3.5030   4.6879

          k = 0.0000-0.1013 0.5065 (  3226 PWs)   bands (ev):

    -2.2198   1.9831   2.6313   3.3631   4.4661

          k = 0.0000-0.2026 0.6078 (  3241 PWs)   bands (ev):

    -1.4664   0.6850   2.3206   3.1780   4.9166

          k = 0.0000 0.7090-0.3039 (  3240 PWs)   bands (ev):

    -0.6447  -0.3299   2.2156   3.0993   5.3360

          k =-0.1013-0.1013 0.6078 (  3237 PWs)   bands (ev):

    -1.5717   1.5685   1.5764   3.4410   4.2401

          k =-0.1013 0.8103-0.3039 (  3246 PWs)   bands (ev):

    -0.7219   0.3675   1.3645   3.4582   4.6973

          k =-0.2026 0.8103-0.2026 (  3225 PWs)   bands (ev):

     0.1509   0.1509   0.4412   3.7817   4.9758

          k = 0.6078-0.6078 0.4052 (  3223 PWs)   bands (ev):

    -1.0370   1.0784   1.0784   1.1663   8.1186

          k = 0.5065-0.5065 0.4052 (  3224 PWs)   bands (ev):

    -0.1785   0.0425   0.9664   1.0517   8.3547

          k = 0.0000 0.0000 0.6078 (  3248 PWs)   bands (ev):

    -1.6784   2.1243   2.1243   2.7984   3.4657

          k = 0.0000-0.1013 0.7090 (  3243 PWs)   bands (ev):

    -0.9275   1.1560   1.8085   2.7264   3.5778

          k = 0.0000 0.8103-0.2026 (  3232 PWs)   bands (ev):

    -0.0783   0.1439   1.7018   2.6650   4.1692

          k =-0.1013 0.9116-0.2026 (  3239 PWs)   bands (ev):

    -0.0849   0.9014   0.9871   2.9838   3.5479

          k = 0.0000 0.0000 0.8103 (  3256 PWs)   bands (ev):

    -0.1857   1.4901   1.4901   2.3601   2.7319

          k = 0.0000 0.9116-0.1013 (  3260 PWs)   bands (ev):

     0.6766   0.7751   1.3828   2.3751   3.0337

          k = 0.0000 0.0000-1.0129 (  3300 PWs)   bands (ev):

     1.2752   1.2752   1.2752   2.1470   2.4873

     the Fermi energy is    -1.6756 ev

!    total energy              =      -0.47784348 Ry
     estimated scf accuracy    <          2.3E-09 Ry
     smearing contrib. (-TS)   =      -0.04572998 Ry
     internal energy E=F+TS    =      -0.43211349 Ry

     The total energy is F=E-TS. E is the sum of the following terms:
     one-electron contribution =       0.16555087 Ry
     hartree contribution      =       0.00026444 Ry
     xc contribution           =      -0.23875194 Ry
     ewald contribution        =      -0.35917687 Ry

     convergence has been achieved in  12 iterations
     Writing meta-gga kinetic term


     Computing stress (Cartesian axis) and pressure

          total   stress  (Ry/bohr**3)                   (kbar)     P=      -16.34
  -0.00011110  -0.00000000   0.00000000          -16.34       -0.00        0.00
  -0.00000000  -0.00011110  -0.00000000           -0.00      -16.34       -0.00
   0.00000000  -0.00000000  -0.00011110            0.00       -0.00      -16.34

     Energy error            =      1.1E-03 Ry
     Gradient error          =      0.0E+00 Ry/Bohr
     Cell gradient error     =      1.6E+01 kbar

     number of scf cycles    =   4
     number of bfgs steps    =   3

     enthalpy           old  =      -0.4767863068 Ry
     enthalpy           new  =      -0.4778434773 Ry

     CASE: enthalpy          _new < enthalpy          _old


     WARNING: bfgs curvature condition failed, Theta= 0.010
     new trust radius        =       0.0418846968 bohr
     new conv_thr            =       0.0000000100 Ry

     new unit-cell volume =    505.88865 a.u.^3 (    74.96496 Ang^3 )
     density =      0.15375 g/cm^3

CELL_PARAMETERS (alat= 10.26310000)
   0.489087340   0.489087340   0.489087340
  -0.489087340   0.489087340   0.489087340
  -0.489087340  -0.489087340   0.489087340

ATOMIC_POSITIONS (alat)
Li            0.0000000000        0.0000000000        0.0000000000    0   0   0



     Writing config-only to output data dir ./pwscf.save/
     NEW-OLD atomic charge density approx. for the potential
     extrapolated charge    0.97207, renormalised to    1.00000

     total cpu time spent up to now is      109.8 secs

     Self-consistent Calculation

     iteration #  1     ecut=    50.00 Ry     beta= 0.01
     Davidson diagonalization with overlap
     ethr =  1.00E-06,  avg # of iterations =  4.0

     total cpu time spent up to now is      113.0 secs

     total energy              =      -0.47972336 Ry
     estimated scf accuracy    <       0.00001788 Ry

     iteration #  2     ecut=    50.00 Ry     beta= 0.01
     Davidson diagonalization with overlap
     ethr =  1.79E-06,  avg # of iterations =  2.5

     total cpu time spent up to now is      115.6 secs

     total energy              =      -0.47988181 Ry
     estimated scf accuracy    <       0.00003124 Ry

     iteration #  3     ecut=    50.00 Ry     beta= 0.01
     Davidson diagonalization with overlap
     ethr =  1.79E-06,  avg # of iterations =  1.0

     total cpu time spent up to now is      117.4 secs

     total energy              =      -0.47960066 Ry
     estimated scf accuracy    <       0.00003514 Ry

     iteration #  4     ecut=    50.00 Ry     beta= 0.01
     Davidson diagonalization with overlap
     ethr =  1.79E-06,  avg # of iterations =  2.1

     total cpu time spent up to now is      119.9 secs

     total energy              =      -0.47950674 Ry
     estimated scf accuracy    <       0.00001778 Ry

     iteration #  5     ecut=    50.00 Ry     beta= 0.01
     Davidson diagonalization with overlap
     ethr =  1.78E-06,  avg # of iterations =  2.1

     total cpu time spent up to now is      122.4 secs

     total energy              =      -0.47941574 Ry
     estimated scf accuracy    <       0.00000910 Ry

     iteration #  6     ecut=    50.00 Ry     beta= 0.01
     Davidson diagonalization with overlap
     ethr =  9.10E-07,  avg # of iterations =  2.5

     total cpu time spent up to now is      125.0 secs

     total energy              =      -0.47943848 Ry
     estimated scf accuracy    <       0.00000167 Ry

     iteration #  7     ecut=    50.00 Ry     beta= 0.01
     Davidson diagonalization with overlap
     ethr =  1.67E-07,  avg # of iterations =  2.5

     total cpu time spent up to now is      127.4 secs

     total energy              =      -0.47944818 Ry
     estimated scf accuracy    <       0.00000060 Ry

     iteration #  8     ecut=    50.00 Ry     beta= 0.01
     Davidson diagonalization with overlap
     ethr =  5.98E-08,  avg # of iterations =  2.9

     total cpu time spent up to now is      129.7 secs

     total energy              =      -0.47944720 Ry
     estimated scf accuracy    <       0.00000153 Ry

     iteration #  9     ecut=    50.00 Ry     beta= 0.01
     Davidson diagonalization with overlap
     ethr =  5.98E-08,  avg # of iterations =  1.7

     total cpu time spent up to now is      131.7 secs

     total energy              =      -0.47943856 Ry
     estimated scf accuracy    <       0.00000073 Ry

     iteration # 10     ecut=    50.00 Ry     beta= 0.01
     Davidson diagonalization with overlap
     ethr =  5.98E-08,  avg # of iterations =  2.8

     total cpu time spent up to now is      133.9 secs

     total energy              =      -0.47944007 Ry
     estimated scf accuracy    <       0.00000012 Ry

     iteration # 11     ecut=    50.00 Ry     beta= 0.01
     Davidson diagonalization with overlap
     ethr =  1.23E-08,  avg # of iterations =  1.4

     total cpu time spent up to now is      135.7 secs

     total energy              =      -0.47943528 Ry
     estimated scf accuracy    <       0.00000013 Ry

     iteration # 12     ecut=    50.00 Ry     beta= 0.01
     Davidson diagonalization with overlap
     ethr =  1.23E-08,  avg # of iterations =  3.5

     total cpu time spent up to now is      138.2 secs

     End of self-consistent calculation

          k = 0.0000 0.0000 0.0000 (  3151 PWs)   bands (ev):

    -3.6281   4.9836   4.9836   4.9836   7.9219

          k = 0.0000-0.1022 0.1022 (  3211 PWs)   bands (ev):

    -3.5178   4.4494   4.7056   4.8906   7.0244

          k = 0.0000-0.2045 0.2045 (  3224 PWs)   bands (ev):

    -3.1876   3.1553   4.1882   4.6429   6.2540

          k = 0.0000-0.3067 0.3067 (  3226 PWs)   bands (ev):

    -2.6390   1.6900   3.7355   4.3497   5.8054

          k = 0.0000-0.4089 0.4089 (  3202 PWs)   bands (ev):

    -1.8787   0.3319   3.4450   4.1305   5.4507

          k = 0.0000 0.5112-0.5112 (  3208 PWs)   bands (ev):

    -1.0809  -0.6703   3.3458   4.0511   5.3323

          k =-0.1022-0.1022 0.2045 (  3219 PWs)   bands (ev):

    -3.2976   3.7692   4.0672   4.5798   6.6018

          k =-0.1022-0.2045 0.3067 (  3225 PWs)   bands (ev):

    -2.8580   2.4856   3.3893   4.2021   6.2070

          k =-0.1022-0.3067 0.4089 (  3217 PWs)   bands (ev):

    -2.2021   1.0665   2.9887   3.8806   5.8790

          k =-0.1022 0.6134-0.5112 (  3213 PWs)   bands (ev):

    -1.3480  -0.1914   2.7869   3.7030   5.7071

          k =-0.2045-0.2045 0.4089 (  3222 PWs)   bands (ev):

    -2.3103   1.9622   2.0087   3.8180   6.3936

          k =-0.2045 0.7156-0.5112 (  3226 PWs)   bands (ev):

    -1.5500   0.6403   1.6734   3.5632   6.2934

          k =-0.2045 0.6134-0.4089 (  3225 PWs)   bands (ev):

    -0.7300  -0.3820   1.5693   3.4741   6.2294

          k =-0.3067 0.7156-0.4089 (  3229 PWs)   bands (ev):

    -0.6947   0.3145   0.5470   3.3993   6.7251

          k = 0.0000 0.0000 0.2045 (  3215 PWs)   bands (ev):

    -3.4076   4.3834   4.3834   4.4710   6.4866

          k = 0.0000-0.1022 0.3067 (  3225 PWs)   bands (ev):

    -3.0775   3.2210   3.8167   4.2949   5.8280

          k = 0.0000-0.2045 0.4089 (  3219 PWs)   bands (ev):

    -2.5291   1.7850   3.3367   4.0248   5.7393

          k = 0.0000-0.3067 0.5112 (  3225 PWs)   bands (ev):

    -1.7687   0.4340   3.0325   3.8009   5.7909

          k = 0.0000 0.6134-0.4089 (  3230 PWs)   bands (ev):

    -0.9643  -0.5731   2.9292   3.7192   5.8104

          k =-0.1022-0.1022 0.4089 (  3229 PWs)   bands (ev):

    -2.6382   2.5971   2.7114   4.1589   5.4349

          k =-0.1022-0.2045 0.5112 (  3228 PWs)   bands (ev):

    -1.9828   1.2637   2.2456   4.0267   5.5286

          k =-0.1022 0.7156-0.4089 (  3227 PWs)   bands (ev):

    -1.1269   0.0124   2.0372   3.9048   5.6563

          k =-0.2045 0.2045 0.2045 (  3238 PWs)   bands (ev):

    -2.9678   3.0989   3.4965   3.4965   6.7967

          k =-0.2045 0.8178-0.4089 (  3230 PWs)   bands (ev):

    -1.2241   0.8785   1.0104   4.1215   5.7128

          k =-0.2045 0.7156-0.3067 (  3233 PWs)   bands (ev):

    -0.3828  -0.1051   0.8526   4.1272   5.9147

          k =-0.3067 0.3067 0.2045 (  3226 PWs)   bands (ev):

    -2.4197   1.8892   2.7690   3.0058   6.9379

          k = 0.6134-0.6134 0.2045 (  3228 PWs)   bands (ev):

    -1.6591   0.5401   2.4693   2.6930   6.8724

          k = 0.6134-0.7156 0.3067 (  3220 PWs)   bands (ev):

    -1.7651   1.4619   1.4927   2.4913   7.3186

          k = 0.5112-0.5112 0.2045 (  3224 PWs)   bands (ev):

    -0.8464  -0.4764   2.3714   2.5865   6.8384

          k = 0.5112-0.6134 0.3067 (  3225 PWs)   bands (ev):

    -0.9068   0.2179   1.2719   2.2860   7.4664

          k = 0.4089-0.6134 0.4089 (  3220 PWs)   bands (ev):

    -0.0298  -0.0298   0.3412   2.1846   7.7347

          k = 0.0000 0.0000 0.4089 (  3231 PWs)   bands (ev):

    -2.7477   3.2037   3.2037   3.6053   4.7630

          k = 0.0000-0.1022 0.5112 (  3226 PWs)   bands (ev):

    -2.1998   2.0487   2.7006   3.4577   4.5456

          k = 0.0000-0.2045 0.6134 (  3241 PWs)   bands (ev):

    -1.4397   0.7363   2.3856   3.2671   5.0085

          k = 0.0000 0.7156-0.3067 (  3240 PWs)   bands (ev):

    -0.6162  -0.2829   2.2790   3.1868   5.4381

          k =-0.1022-0.1022 0.6134 (  3237 PWs)   bands (ev):

    -1.5458   1.6218   1.6426   3.5373   4.3167

          k =-0.1022 0.8178-0.3067 (  3246 PWs)   bands (ev):

    -0.6888   0.4151   1.4225   3.5512   4.7851

          k =-0.2045 0.8178-0.2045 (  3225 PWs)   bands (ev):

     0.1878   0.1878   0.5034   3.8841   5.0626

          k = 0.6134-0.6134 0.4089 (  3223 PWs)   bands (ev):

    -1.0065   1.1253   1.1253   1.2395   8.2765

          k = 0.5112-0.5112 0.4089 (  3224 PWs)   bands (ev):

    -0.1452   0.0895   1.0121   1.1188   8.5194

          k = 0.0000 0.0000 0.6134 (  3248 PWs)   bands (ev):

    -1.6534   2.1865   2.1865   2.8977   3.5305

          k = 0.0000-0.1022 0.7156 (  3243 PWs)   bands (ev):

    -0.8955   1.2106   1.8664   2.8168   3.6517

          k = 0.0000 0.8178-0.2045 (  3232 PWs)   bands (ev):

    -0.0438   0.1943   1.7583   2.7518   4.2579

          k =-0.1022 0.9201-0.2045 (  3239 PWs)   bands (ev):

    -0.0454   0.9468   1.0463   3.0809   3.6176

          k = 0.0000 0.0000 0.8178 (  3256 PWs)   bands (ev):

    -0.1465   1.5439   1.5439   2.4589   2.7906

          k = 0.0000 0.9201-0.1022 (  3260 PWs)   bands (ev):

     0.7196   0.8288   1.4351   2.4661   3.1077

          k = 0.0000 0.0000-1.0223 (  3300 PWs)   bands (ev):

     1.3261   1.3261   1.3261   2.2555   2.5439

     the Fermi energy is    -1.6481 ev

!    total energy              =      -0.47943667 Ry
     estimated scf accuracy    <          2.0E-09 Ry
     smearing contrib. (-TS)   =      -0.04534752 Ry
     internal energy E=F+TS    =      -0.43408915 Ry

     The total energy is F=E-TS. E is the sum of the following terms:
     one-electron contribution =       0.16894773 Ry
     hartree contribution      =       0.00023476 Ry
     xc contribution           =      -0.24076585 Ry
     ewald contribution        =      -0.36250578 Ry

     convergence has been achieved in  12 iterations
     Writing meta-gga kinetic term


     Computing stress (Cartesian axis) and pressure

          total   stress  (Ry/bohr**3)                   (kbar)     P=      -16.73
  -0.00011375  -0.00000000   0.00000000          -16.73       -0.00        0.00
  -0.00000000  -0.00011375  -0.00000000           -0.00      -16.73       -0.00
   0.00000000  -0.00000000  -0.00011375            0.00       -0.00      -16.73

     Energy error            =      1.6E-03 Ry
     Gradient error          =      0.0E+00 Ry/Bohr
     Cell gradient error     =      1.7E+01 kbar

     number of scf cycles    =   5
     number of bfgs steps    =   4

     enthalpy           old  =      -0.4778434773 Ry
     enthalpy           new  =      -0.4794366667 Ry

     CASE: enthalpy          _new < enthalpy          _old


     WARNING: bfgs curvature condition failed, Theta= 0.010
     new trust radius        =       0.0625379072 bohr
     new conv_thr            =       0.0000000100 Ry

     new unit-cell volume =    485.08161 a.u.^3 (    71.88168 Ang^3 )
     density =      0.16034 g/cm^3

CELL_PARAMETERS (alat= 10.26310000)
   0.482287913   0.482287913   0.482287913
  -0.482287913   0.482287913   0.482287913
  -0.482287913  -0.482287913   0.482287913

ATOMIC_POSITIONS (alat)
Li            0.0000000000        0.0000000000        0.0000000000    0   0   0



     Writing config-only to output data dir ./pwscf.save/
     NEW-OLD atomic charge density approx. for the potential
     extrapolated charge    0.95731, renormalised to    1.00000

     total cpu time spent up to now is      139.2 secs

     Self-consistent Calculation

     iteration #  1     ecut=    50.00 Ry     beta= 0.01
     Davidson diagonalization with overlap
     ethr =  1.00E-06,  avg # of iterations =  5.0

     total cpu time spent up to now is      142.8 secs

     total energy              =      -0.48238918 Ry
     estimated scf accuracy    <       0.00003977 Ry

     iteration #  2     ecut=    50.00 Ry     beta= 0.01
     Davidson diagonalization with overlap
     ethr =  3.98E-06,  avg # of iterations =  2.5

     total cpu time spent up to now is      145.4 secs

     total energy              =      -0.48264150 Ry
     estimated scf accuracy    <       0.00006744 Ry

     iteration #  3     ecut=    50.00 Ry     beta= 0.01
     Davidson diagonalization with overlap
     ethr =  3.98E-06,  avg # of iterations =  1.1

     total cpu time spent up to now is      147.2 secs

     total energy              =      -0.48113937 Ry
     estimated scf accuracy    <       0.00007359 Ry

     iteration #  4     ecut=    50.00 Ry     beta= 0.01
     Davidson diagonalization with overlap
     ethr =  3.98E-06,  avg # of iterations =  4.7

     total cpu time spent up to now is      150.7 secs

     total energy              =      -0.48190501 Ry
     estimated scf accuracy    <       0.00000091 Ry

     iteration #  5     ecut=    50.00 Ry     beta= 0.01
     Davidson diagonalization with overlap
     ethr =  9.07E-08,  avg # of iterations =  5.4

     total cpu time spent up to now is      154.5 secs

     total energy              =      -0.48130913 Ry
     estimated scf accuracy    <       0.00005134 Ry

     iteration #  6     ecut=    50.00 Ry     beta= 0.01
     Davidson diagonalization with overlap
     ethr =  9.07E-08,  avg # of iterations =  5.9

     total cpu time spent up to now is      158.6 secs

     total energy              =      -0.48169351 Ry
     estimated scf accuracy    <       0.00000233 Ry

     iteration #  7     ecut=    50.00 Ry     beta= 0.01
     Davidson diagonalization with overlap
     ethr =  9.07E-08,  avg # of iterations =  5.4

     total cpu time spent up to now is      162.3 secs

     total energy              =      -0.48177095 Ry
     estimated scf accuracy    <       0.00000956 Ry

     iteration #  8     ecut=    50.00 Ry     beta= 0.01
     Davidson diagonalization with overlap
     ethr =  9.07E-08,  avg # of iterations =  4.3

     total cpu time spent up to now is      165.4 secs

     total energy              =      -0.48184550 Ry
     estimated scf accuracy    <       0.00000049 Ry

     iteration #  9     ecut=    50.00 Ry     beta= 0.01
     Davidson diagonalization with overlap
     ethr =  4.86E-08,  avg # of iterations =  2.8

     total cpu time spent up to now is      167.7 secs

     total energy              =      -0.48184227 Ry
     estimated scf accuracy    <       0.00000200 Ry

     iteration # 10     ecut=    50.00 Ry     beta= 0.01
     Davidson diagonalization with overlap
     ethr =  4.86E-08,  avg # of iterations =  2.4

     total cpu time spent up to now is      169.7 secs

     total energy              =      -0.48184787 Ry
     estimated scf accuracy    <       0.00000109 Ry

     iteration # 11     ecut=    50.00 Ry     beta= 0.01
     Davidson diagonalization with overlap
     ethr =  4.86E-08,  avg # of iterations =  2.5

     total cpu time spent up to now is      171.8 secs

     total energy              =      -0.48185409 Ry
     estimated scf accuracy    <       0.00000077 Ry

     iteration # 12     ecut=    50.00 Ry     beta= 0.01
     Davidson diagonalization with overlap
     ethr =  4.86E-08,  avg # of iterations =  2.0

     total cpu time spent up to now is      173.7 secs

     total energy              =      -0.48183514 Ry
     estimated scf accuracy    <       0.00000086 Ry

     iteration # 13     ecut=    50.00 Ry     beta= 0.01
     Davidson diagonalization with overlap
     ethr =  4.86E-08,  avg # of iterations =  3.4

     total cpu time spent up to now is      176.4 secs

     total energy              =      -0.48184127 Ry
     estimated scf accuracy    <       0.00000005 Ry

     iteration # 14     ecut=    50.00 Ry     beta= 0.01
     Davidson diagonalization with overlap
     ethr =  4.71E-09,  avg # of iterations =  2.1

     total cpu time spent up to now is      178.3 secs

     End of self-consistent calculation

          k = 0.0000 0.0000 0.0000 (  3151 PWs)   bands (ev):

    -3.6071   5.1348   5.1348   5.1348   8.0884

          k = 0.0000-0.1037 0.1037 (  3211 PWs)   bands (ev):

    -3.4957   4.5881   4.8475   5.0369   7.1618

          k = 0.0000-0.2073 0.2073 (  3224 PWs)   bands (ev):

    -3.1622   3.2660   4.3157   4.7771   6.4002

          k = 0.0000-0.3110 0.3110 (  3226 PWs)   bands (ev):

    -2.6080   1.7767   3.8521   4.4723   5.9329

          k = 0.0000-0.4147 0.4147 (  3202 PWs)   bands (ev):

    -1.8403   0.4009   3.5550   4.2458   5.5743

          k = 0.0000 0.5184-0.5184 (  3208 PWs)   bands (ev):

    -1.0421  -0.6050   3.4537   4.1641   5.4546

          k =-0.1037-0.1037 0.2073 (  3219 PWs)   bands (ev):

    -3.2733   3.8971   4.1858   4.7140   6.7414

          k =-0.1037-0.2073 0.3110 (  3225 PWs)   bands (ev):

    -2.8292   2.5849   3.4989   4.3232   6.3572

          k =-0.1037-0.3110 0.4147 (  3217 PWs)   bands (ev):

    -2.1667   1.1443   3.0924   3.9927   6.0305

          k =-0.1037 0.6220-0.5184 (  3213 PWs)   bands (ev):

    -1.3054  -0.1276   2.8874   3.8108   5.8581

          k =-0.2073-0.2073 0.4147 (  3222 PWs)   bands (ev):

    -2.2760   2.0623   2.0876   3.9306   6.5626

          k =-0.2073 0.7257-0.5184 (  3226 PWs)   bands (ev):

    -1.5081   0.7114   1.7594   3.6709   6.4589

          k =-0.2073 0.6220-0.4147 (  3225 PWs)   bands (ev):

    -0.6870  -0.3151   1.6539   3.5802   6.3940

          k =-0.3110 0.7257-0.4147 (  3229 PWs)   bands (ev):

    -0.6452   0.3704   0.6317   3.5049   6.9142

          k = 0.0000 0.0000 0.2073 (  3215 PWs)   bands (ev):

    -3.3844   4.5149   4.5149   4.6157   6.5999

          k = 0.0000-0.1037 0.3110 (  3225 PWs)   bands (ev):

    -3.0509   3.3324   3.9339   4.4292   5.9467

          k = 0.0000-0.2073 0.4147 (  3219 PWs)   bands (ev):

    -2.4969   1.8726   3.4435   4.1496   5.8744

          k = 0.0000-0.3110 0.5184 (  3225 PWs)   bands (ev):

    -1.7291   0.5039   3.1332   3.9198   5.9408

          k = 0.0000 0.6220-0.4147 (  3230 PWs)   bands (ev):

    -0.9242  -0.5071   3.0279   3.8362   5.9663

          k =-0.1037-0.1037 0.4147 (  3229 PWs)   bands (ev):

    -2.6072   2.7038   2.8025   4.2903   5.5507

          k =-0.1037-0.2073 0.5184 (  3228 PWs)   bands (ev):

    -1.9450   1.3433   2.3375   4.1517   5.6541

          k =-0.1037 0.7257-0.4147 (  3227 PWs)   bands (ev):

    -1.0817   0.0777   2.1261   4.0253   5.7946

          k =-0.2073 0.2073 0.2073 (  3238 PWs)   bands (ev):

    -2.9401   3.2200   3.5997   3.5997   6.9605

          k =-0.2073 0.8294-0.4147 (  3230 PWs)   bands (ev):

    -1.1788   0.9418   1.0981   4.2470   5.8375

          k =-0.2073 0.7257-0.3110 (  3233 PWs)   bands (ev):

    -0.3355  -0.0384   0.9306   4.2517   6.0507

          k =-0.3110 0.3110 0.2073 (  3226 PWs)   bands (ev):

    -2.3865   1.9791   2.8740   3.0993   7.1105

          k = 0.6220-0.6220 0.2073 (  3228 PWs)   bands (ev):

    -1.6184   0.6108   2.5722   2.7811   7.0534

          k = 0.6220-0.7257 0.3110 (  3220 PWs)   bands (ev):

    -1.7252   1.5328   1.5868   2.5843   7.5107

          k = 0.5184-0.5184 0.2073 (  3224 PWs)   bands (ev):

    -0.8048  -0.4099   2.4732   2.6729   7.0215

          k = 0.5184-0.6220 0.3110 (  3225 PWs)   bands (ev):

    -0.8591   0.2838   1.3535   2.3772   7.6643

          k = 0.4147-0.6220 0.4147 (  3220 PWs)   bands (ev):

     0.0218   0.0218   0.4283   2.2753   7.9475

          k = 0.0000 0.0000 0.4147 (  3231 PWs)   bands (ev):

    -2.7177   3.3075   3.3075   3.7430   4.8606

          k = 0.0000-0.1037 0.5184 (  3226 PWs)   bands (ev):

    -2.1642   2.1386   2.7949   3.5851   4.6506

          k = 0.0000-0.2073 0.6220 (  3241 PWs)   bands (ev):

    -1.3964   0.8089   2.4742   3.3871   5.1304

          k = 0.0000 0.7257-0.3110 (  3240 PWs)   bands (ev):

    -0.5718  -0.2146   2.3658   3.3048   5.5739

          k =-0.1037-0.1037 0.6220 (  3237 PWs)   bands (ev):

    -1.5033   1.6959   1.7339   3.6672   4.4182

          k =-0.1037 0.8294-0.3110 (  3246 PWs)   bands (ev):

    -0.6383   0.4831   1.5033   3.6765   4.9018

          k =-0.2073 0.8294-0.2073 (  3225 PWs)   bands (ev):

     0.2422   0.2422   0.5908   4.0223   5.1770

          k = 0.6220-0.6220 0.4147 (  3223 PWs)   bands (ev):

    -0.9590   1.1915   1.1915   1.3410   8.4926

          k = 0.5184-0.5184 0.4147 (  3224 PWs)   bands (ev):

    -0.0951   0.1567   1.0768   1.2127   8.7463

          k = 0.0000 0.0000 0.6220 (  3248 PWs)   bands (ev):

    -1.6119   2.2717   2.2717   3.0326   3.6171

          k = 0.0000-0.1037 0.7257 (  3243 PWs)   bands (ev):

    -0.8461   1.2869   1.9462   2.9395   3.7516

          k = 0.0000 0.8294-0.2073 (  3232 PWs)   bands (ev):

     0.0077   0.2662   1.8364   2.8698   4.3775

          k =-0.1037 0.9331-0.2073 (  3239 PWs)   bands (ev):

     0.0126   1.0114   1.1288   3.2132   3.7111

          k = 0.0000 0.0000 0.8294 (  3256 PWs)   bands (ev):

    -0.0887   1.6185   1.6185   2.5940   2.8707

          k = 0.0000 0.9331-0.1037 (  3260 PWs)   bands (ev):

     0.7810   0.9041   1.5080   2.5893   3.2102

          k = 0.0000 0.0000-1.0367 (  3300 PWs)   bands (ev):

     1.3972   1.3972   1.3972   2.4044   2.6218

     the Fermi energy is    -1.6039 ev

!    total energy              =      -0.48184026 Ry
     estimated scf accuracy    <          6.3E-09 Ry
     smearing contrib. (-TS)   =      -0.04491165 Ry
     internal energy E=F+TS    =      -0.43692861 Ry

     The total energy is F=E-TS. E is the sum of the following terms:
     one-electron contribution =       0.17431959 Ry
     hartree contribution      =       0.00019925 Ry
     xc contribution           =      -0.24383097 Ry
     ewald contribution        =      -0.36761649 Ry

     convergence has been achieved in  14 iterations
     Writing meta-gga kinetic term


     Computing stress (Cartesian axis) and pressure

          total   stress  (Ry/bohr**3)                   (kbar)     P=      -17.26
  -0.00011733  -0.00000000   0.00000000          -17.26       -0.00        0.00
  -0.00000000  -0.00011733  -0.00000000           -0.00      -17.26       -0.00
   0.00000000  -0.00000000  -0.00011733            0.00       -0.00      -17.26

     Energy error            =      2.4E-03 Ry
     Gradient error          =      0.0E+00 Ry/Bohr
     Cell gradient error     =      1.7E+01 kbar

     number of scf cycles    =   6
     number of bfgs steps    =   5

     enthalpy           old  =      -0.4794366667 Ry
     enthalpy           new  =      -0.4818402606 Ry

     CASE: enthalpy          _new < enthalpy          _old


     WARNING: bfgs curvature condition failed, Theta= 0.026
     new trust radius        =       0.0931525142 bohr
     new conv_thr            =       0.0000000100 Ry

     new unit-cell volume =    454.95316 a.u.^3 (    67.41710 Ang^3 )
     density =      0.17096 g/cm^3

CELL_PARAMETERS (alat= 10.26310000)
   0.472088773   0.472088773   0.472088773
  -0.472088773   0.472088773   0.472088773
  -0.472088773  -0.472088773   0.472088773

ATOMIC_POSITIONS (alat)
Li            0.0000000000        0.0000000000        0.0000000000    0   0   0



     Writing config-only to output data dir ./pwscf.save/
     NEW-OLD atomic charge density approx. for the potential
     extrapolated charge    0.93409, renormalised to    1.00000

     total cpu time spent up to now is      179.3 secs

     Self-consistent Calculation

     iteration #  1     ecut=    50.00 Ry     beta= 0.01
     Davidson diagonalization with overlap
     ethr =  1.00E-06,  avg # of iterations =  5.9

     total cpu time spent up to now is      183.1 secs

     total energy              =      -0.48584056 Ry
     estimated scf accuracy    <       0.00007929 Ry

     iteration #  2     ecut=    50.00 Ry     beta= 0.01
     Davidson diagonalization with overlap
     ethr =  7.93E-06,  avg # of iterations =  2.3

     total cpu time spent up to now is      185.6 secs

     total energy              =      -0.48599069 Ry
     estimated scf accuracy    <       0.00009141 Ry

     iteration #  3     ecut=    50.00 Ry     beta= 0.01
     Davidson diagonalization with overlap
     ethr =  7.93E-06,  avg # of iterations =  1.0

     total cpu time spent up to now is      187.4 secs

     total energy              =      -0.48491218 Ry
     estimated scf accuracy    <       0.00010314 Ry

     iteration #  4     ecut=    50.00 Ry     beta= 0.01
     Davidson diagonalization with overlap
     ethr =  7.93E-06,  avg # of iterations =  4.0

     total cpu time spent up to now is      190.6 secs

     total energy              =      -0.48555956 Ry
     estimated scf accuracy    <       0.00002050 Ry

     iteration #  5     ecut=    50.00 Ry     beta= 0.01
     Davidson diagonalization with overlap
     ethr =  2.05E-06,  avg # of iterations =  3.7

     total cpu time spent up to now is      193.6 secs

     total energy              =      -0.48569165 Ry
     estimated scf accuracy    <       0.00000336 Ry

     iteration #  6     ecut=    50.00 Ry     beta= 0.01
     Davidson diagonalization with overlap
     ethr =  3.36E-07,  avg # of iterations =  1.8

     total cpu time spent up to now is      195.5 secs

     total energy              =      -0.48568450 Ry
     estimated scf accuracy    <       0.00000449 Ry

     iteration #  7     ecut=    50.00 Ry     beta= 0.01
     Davidson diagonalization with overlap
     ethr =  3.36E-07,  avg # of iterations =  1.0

     total cpu time spent up to now is      197.2 secs

     total energy              =      -0.48525271 Ry
     estimated scf accuracy    <       0.00000424 Ry

     iteration #  8     ecut=    50.00 Ry     beta= 0.01
     Davidson diagonalization with overlap
     ethr =  3.36E-07,  avg # of iterations =  5.0

     total cpu time spent up to now is      200.8 secs

     total energy              =      -0.48592480 Ry
     estimated scf accuracy    <       0.00002173 Ry

     iteration #  9     ecut=    50.00 Ry     beta= 0.01
     Davidson diagonalization with overlap
     ethr =  3.36E-07,  avg # of iterations =  4.3

     total cpu time spent up to now is      204.0 secs

     total energy              =      -0.48588711 Ry
     estimated scf accuracy    <       0.00003664 Ry

     iteration # 10     ecut=    50.00 Ry     beta= 0.01
     Davidson diagonalization with overlap
     ethr =  3.36E-07,  avg # of iterations =  2.3

     total cpu time spent up to now is      206.3 secs

     total energy              =      -0.48610656 Ry
     estimated scf accuracy    <       0.00003027 Ry

     iteration # 11     ecut=    50.00 Ry     beta= 0.01
     Davidson diagonalization with overlap
     ethr =  3.36E-07,  avg # of iterations =  3.3

     total cpu time spent up to now is      209.0 secs

     total energy              =      -0.48506674 Ry
     estimated scf accuracy    <       0.00004459 Ry

     iteration # 12     ecut=    50.00 Ry     beta= 0.01
     Davidson diagonalization with overlap
     ethr =  3.36E-07,  avg # of iterations =  5.5

     total cpu time spent up to now is      212.7 secs

     total energy              =      -0.48548770 Ry
     estimated scf accuracy    <       0.00000135 Ry

     iteration # 13     ecut=    50.00 Ry     beta= 0.01
     Davidson diagonalization with overlap
     ethr =  1.35E-07,  avg # of iterations =  3.2

     total cpu time spent up to now is      215.4 secs

     total energy              =      -0.48548327 Ry
     estimated scf accuracy    <       0.00000062 Ry

     iteration # 14     ecut=    50.00 Ry     beta= 0.01
     Davidson diagonalization with overlap
     ethr =  6.23E-08,  avg # of iterations =  2.4

     total cpu time spent up to now is      217.5 secs

     total energy              =      -0.48545767 Ry
     estimated scf accuracy    <       0.00000024 Ry

     iteration # 15     ecut=    50.00 Ry     beta= 0.01
     Davidson diagonalization with overlap
     ethr =  2.38E-08,  avg # of iterations =  4.4

     total cpu time spent up to now is      220.4 secs

     total energy              =      -0.48546304 Ry
     estimated scf accuracy    <       0.00000064 Ry

     iteration # 16     ecut=    50.00 Ry     beta= 0.01
     Davidson diagonalization with overlap
     ethr =  2.38E-08,  avg # of iterations =  3.7

     total cpu time spent up to now is      223.1 secs

     End of self-consistent calculation

          k = 0.0000 0.0000 0.0000 (  3151 PWs)   bands (ev):

    -3.5760   5.3841   5.3841   5.3841   8.3526

          k = 0.0000-0.1059 0.1059 (  3211 PWs)   bands (ev):

    -3.4628   4.8153   5.0795   5.2792   7.3920

          k = 0.0000-0.2118 0.2118 (  3224 PWs)   bands (ev):

    -3.1236   3.4464   4.5219   5.0028   6.6467

          k = 0.0000-0.3177 0.3177 (  3226 PWs)   bands (ev):

    -2.5601   1.9177   4.0391   4.6816   6.1330

          k = 0.0000-0.4236 0.4236 (  3202 PWs)   bands (ev):

    -1.7800   0.5127   3.7305   4.4449   5.7671

          k = 0.0000 0.5296-0.5296 (  3208 PWs)   bands (ev):

    -0.9805  -0.4999   3.6254   4.3598   5.6449

          k =-0.1059-0.1059 0.2118 (  3219 PWs)   bands (ev):

    -3.2366   4.1054   4.3796   4.9367   6.9777

          k =-0.1059-0.2118 0.3177 (  3225 PWs)   bands (ev):

    -2.7850   2.7464   3.6774   4.5251   6.6047

          k =-0.1059-0.3177 0.4236 (  3217 PWs)   bands (ev):

    -2.1113   1.2707   3.2604   4.1806   6.2781

          k =-0.1059 0.6355-0.5296 (  3213 PWs)   bands (ev):

    -1.2380  -0.0243   3.0496   3.9919   6.1038

          k =-0.2118-0.2118 0.4236 (  3222 PWs)   bands (ev):

    -2.2223   2.2163   2.2248   4.1178   6.8364

          k =-0.2118 0.7414-0.5296 (  3226 PWs)   bands (ev):

    -1.4418   0.8265   1.8998   3.8499   6.7293

          k =-0.2118 0.6355-0.4236 (  3225 PWs)   bands (ev):

    -0.6183  -0.2077   1.7917   3.7565   6.6636

          k =-0.3177 0.7414-0.4236 (  3229 PWs)   bands (ev):

[...]


     Computing stress (Cartesian axis) and pressure

          total   stress  (Ry/bohr**3)                   (kbar)     P=       -0.01
  -0.00000008  -0.00000000   0.00000000           -0.01       -0.00        0.00
  -0.00000000  -0.00000008  -0.00000000           -0.00       -0.01       -0.00
   0.00000000  -0.00000000  -0.00000008            0.00       -0.00       -0.01

     Energy error            =      6.9E-06 Ry
     Gradient error          =      0.0E+00 Ry/Bohr
     Cell gradient error     =      1.2E-02 kbar

     bfgs converged in  15 scf cycles and  13 bfgs steps
     (criteria: energy <  1.0E-04 Ry, force <  1.0E-03Ry/Bohr, cell <  5.0E-01kbar)

     End of BFGS Geometry Optimization

     Final enthalpy           =      -0.5266549445 Ry

     File ./pwscf.bfgs deleted, as requested
Begin final coordinates
     new unit-cell volume =    146.92565 a.u.^3 (    21.77214 Ang^3 )
     density =      0.52938 g/cm^3

CELL_PARAMETERS (alat= 10.26310000)
   0.323892323   0.323892323   0.323892323
  -0.323892323   0.323892323   0.323892323
  -0.323892323  -0.323892323   0.323892323

ATOMIC_POSITIONS (alat)
Li            0.0000000000        0.0000000000        0.0000000000    0   0   0
End final coordinates



     Writing config-only to output data dir ./pwscf.save/

     Final scf calculation at the relaxed structure.
     The G-vectors are recalculated for the final unit cell
     Results may differ from those at the preceding step.
 
     G-vector sticks info
     --------------------
     sticks:   dense  smooth     PW     G-vecs:    dense   smooth      PW
     Sum         487     487    159                 6963     6963    1253
 
     Using Slab Decomposition
 


     bravais-lattice index     =            3
     lattice parameter (alat)  =      10.2631  a.u.
     unit-cell volume          =     146.9257 (a.u.)^3
     number of atoms/cell      =            1
     number of atomic types    =            1
     number of electrons       =         1.00
     number of Kohn-Sham states=            5
     kinetic-energy cutoff     =      50.0000  Ry
     charge density cutoff     =     200.0000  Ry
     scf convergence threshold =      1.0E-08
     mixing beta               =       0.0100
     number of iterations used =            8  local-TF  mixing
     press convergence thresh. =      5.0E-01
     Exchange-correlation= SLA  PW   SCAN SCAN
                           (   0   0   0   0   0 263 267)

     celldm(1)=  10.263100  celldm(2)=   0.000000  celldm(3)=   0.000000
     celldm(4)=   0.000000  celldm(5)=   0.000000  celldm(6)=   0.000000

     crystal axes: (cart. coord. in units of alat)
               a(1) = (   0.323892   0.323892   0.323892 )  
               a(2) = (  -0.323892   0.323892   0.323892 )  
               a(3) = (  -0.323892  -0.323892   0.323892 )  

     reciprocal axes: (cart. coord. in units 2 pi/alat)
               b(1) = (  1.543723  0.000000  1.543723 )  
               b(2) = ( -1.543723  1.543723  0.000000 )  
               b(3) = (  0.000000 -1.543723  1.543723 )  


     PseudoPot. # 1 for Li read from file:
     ~/Documents/TA/PWDFT.jl/pseudopotentials/scan_upf/Li.SCAN.UPF2
     MD5 check sum: Not computed, couldn't open file
     Pseudo is Norm-conserving, Zval =  1.0
     Generated by new atomic code, or converted to UPF format
     Using radial grid of 1321 points,  1 beta functions with: 
                l(1) =   0

     atomic species   valence    mass     pseudopotential
        Li             1.00     6.94100     Li( 1.00)

     48 Sym. Ops., with inversion, found



   Cartesian axes

     site n.     atom                  positions (alat units)
         1           Li  tau(   1) = (   0.0000000   0.0000000   0.0000000  )

     number of k points=    47  Gaussian smearing, width (Ry)=  0.1000
                       cart. coord. in units 2pi/alat
        k(    1) = (   0.0000000   0.0000000   0.0000000), wk =   0.0020000
        k(    2) = (   0.0000000  -0.1543723   0.1543723), wk =   0.0240000
        k(    3) = (   0.0000000  -0.3087446   0.3087446), wk =   0.0240000
        k(    4) = (   0.0000000  -0.4631169   0.4631169), wk =   0.0240000
        k(    5) = (   0.0000000  -0.6174892   0.6174892), wk =   0.0240000
        k(    6) = (   0.0000000   0.7718615  -0.7718615), wk =   0.0120000
        k(    7) = (  -0.1543723  -0.1543723   0.3087446), wk =   0.0480000
        k(    8) = (  -0.1543723  -0.3087446   0.4631169), wk =   0.0960000
        k(    9) = (  -0.1543723  -0.4631169   0.6174892), wk =   0.0960000
        k(   10) = (  -0.1543723   0.9262337  -0.7718615), wk =   0.0960000
        k(   11) = (  -0.3087446  -0.3087446   0.6174892), wk =   0.0480000
        k(   12) = (  -0.3087446   1.0806060  -0.7718615), wk =   0.0960000
        k(   13) = (  -0.3087446   0.9262337  -0.6174892), wk =   0.0480000
        k(   14) = (  -0.4631169   1.0806060  -0.6174892), wk =   0.0480000
        k(   15) = (  -0.0000000  -0.0000000   0.3087446), wk =   0.0120000
        k(   16) = (   0.0000000  -0.1543723   0.4631169), wk =   0.0480000
        k(   17) = (   0.0000000  -0.3087446   0.6174892), wk =   0.0480000
        k(   18) = (   0.0000000  -0.4631169   0.7718615), wk =   0.0480000
        k(   19) = (   0.0000000   0.9262337  -0.6174892), wk =   0.0240000
        k(   20) = (  -0.1543723  -0.1543723   0.6174892), wk =   0.0480000
        k(   21) = (  -0.1543723  -0.3087446   0.7718615), wk =   0.0960000
        k(   22) = (  -0.1543723   1.0806060  -0.6174892), wk =   0.0960000
        k(   23) = (  -0.3087446   0.3087446   0.3087446), wk =   0.0160000
        k(   24) = (  -0.3087446   1.2349783  -0.6174892), wk =   0.0480000
        k(   25) = (  -0.3087446   1.0806060  -0.4631169), wk =   0.0480000
        k(   26) = (  -0.4631169   0.4631169   0.3087446), wk =   0.0480000
        k(   27) = (   0.9262337  -0.9262337   0.3087446), wk =   0.0480000
        k(   28) = (   0.9262337  -1.0806060   0.4631169), wk =   0.0480000
        k(   29) = (   0.7718615  -0.7718615   0.3087446), wk =   0.0240000
        k(   30) = (   0.7718615  -0.9262337   0.4631169), wk =   0.0960000
        k(   31) = (   0.6174892  -0.9262337   0.6174892), wk =   0.0160000
        k(   32) = (  -0.0000000  -0.0000000   0.6174892), wk =   0.0120000
        k(   33) = (  -0.0000000  -0.1543723   0.7718615), wk =   0.0480000
        k(   34) = (   0.0000000  -0.3087446   0.9262337), wk =   0.0480000
        k(   35) = (   0.0000000   1.0806060  -0.4631169), wk =   0.0240000
        k(   36) = (  -0.1543723  -0.1543723   0.9262337), wk =   0.0480000
        k(   37) = (  -0.1543723   1.2349783  -0.4631169), wk =   0.0960000
        k(   38) = (  -0.3087446   1.2349783  -0.3087446), wk =   0.0160000
        k(   39) = (   0.9262337  -0.9262337   0.6174892), wk =   0.0160000
        k(   40) = (   0.7718615  -0.7718615   0.6174892), wk =   0.0240000
        k(   41) = (   0.0000000   0.0000000   0.9262337), wk =   0.0120000
        k(   42) = (  -0.0000000  -0.1543723   1.0806060), wk =   0.0480000
        k(   43) = (  -0.0000000   1.2349783  -0.3087446), wk =   0.0240000
        k(   44) = (  -0.1543723   1.3893506  -0.3087446), wk =   0.0480000
        k(   45) = (  -0.0000000  -0.0000000   1.2349783), wk =   0.0120000
        k(   46) = (  -0.0000000   1.3893506  -0.1543723), wk =   0.0240000
        k(   47) = (   0.0000000   0.0000000  -1.5437229), wk =   0.0020000

     Dense  grid:     6963 G-vectors     FFT dimensions: (  25,  25,  25)

     Estimated max dynamical RAM per process >      13.12 MB

     WARNING: libxc functional with ID  263 depends
      on external parameters: check the user_guide of
      QE if you need to modify them or to check their
      default values.

     Initial potential from superposition of free atoms

     starting charge       0.9953, renormalised to       1.0000
     Starting wfcs are    4 randomized atomic wfcs +    1 random wfcs

     total cpu time spent up to now is      504.6 secs

     Self-consistent Calculation

     iteration #  1     ecut=    50.00 Ry     beta= 0.01
     Davidson diagonalization with overlap
     c_bands:  1 eigenvalues not converged
     c_bands:  1 eigenvalues not converged
     c_bands:  1 eigenvalues not converged
     c_bands:  1 eigenvalues not converged
     c_bands:  1 eigenvalues not converged
     c_bands:  1 eigenvalues not converged
     ethr =  1.00E-06,  avg # of iterations = 13.7

     total cpu time spent up to now is      506.2 secs

     total energy              =      -0.52843494 Ry
     estimated scf accuracy    <       0.00023170 Ry

     iteration #  2     ecut=    50.00 Ry     beta= 0.01
     Davidson diagonalization with overlap
     ethr =  2.32E-05,  avg # of iterations =  1.0

     total cpu time spent up to now is      506.7 secs

     total energy              =      -0.52516179 Ry
     estimated scf accuracy    <       0.00022707 Ry

     iteration #  3     ecut=    50.00 Ry     beta= 0.01
     Davidson diagonalization with overlap
     ethr =  2.27E-05,  avg # of iterations =  2.0

     total cpu time spent up to now is      507.3 secs

     total energy              =      -0.52654430 Ry
     estimated scf accuracy    <       0.00013592 Ry

     iteration #  4     ecut=    50.00 Ry     beta= 0.01
     Davidson diagonalization with overlap
     ethr =  1.36E-05,  avg # of iterations =  2.1

     total cpu time spent up to now is      507.9 secs

     total energy              =      -0.52664975 Ry
     estimated scf accuracy    <       0.00001389 Ry

     iteration #  5     ecut=    50.00 Ry     beta= 0.01
     Davidson diagonalization with overlap
     ethr =  1.39E-06,  avg # of iterations =  2.2

     total cpu time spent up to now is      508.5 secs

     total energy              =      -0.52665322 Ry
     estimated scf accuracy    <       0.00001444 Ry

     iteration #  6     ecut=    50.00 Ry     beta= 0.01
     Davidson diagonalization with overlap
     ethr =  1.39E-06,  avg # of iterations =  1.0

     total cpu time spent up to now is      508.9 secs

     total energy              =      -0.52672461 Ry
     estimated scf accuracy    <       0.00001435 Ry

     iteration #  7     ecut=    50.00 Ry     beta= 0.01
     Davidson diagonalization with overlap
     ethr =  1.39E-06,  avg # of iterations =  2.0

     total cpu time spent up to now is      509.6 secs

     total energy              =      -0.52672934 Ry
     estimated scf accuracy    <       0.00000018 Ry

     iteration #  8     ecut=    50.00 Ry     beta= 0.01
     Davidson diagonalization with overlap
     ethr =  1.81E-08,  avg # of iterations =  1.8

     total cpu time spent up to now is      510.0 secs

     total energy              =      -0.52672575 Ry
     estimated scf accuracy    <       0.00000013 Ry

     iteration #  9     ecut=    50.00 Ry     beta= 0.01
     Davidson diagonalization with overlap
     ethr =  1.26E-08,  avg # of iterations =  1.8

     total cpu time spent up to now is      510.5 secs

     total energy              =      -0.52673020 Ry
     estimated scf accuracy    <       0.00000062 Ry

     iteration # 10     ecut=    50.00 Ry     beta= 0.01
     Davidson diagonalization with overlap
     ethr =  1.26E-08,  avg # of iterations =  1.9

     total cpu time spent up to now is      511.0 secs

     End of self-consistent calculation

          k = 0.0000 0.0000 0.0000 (   887 PWs)   bands (ev):

    -3.2928  15.2295  15.2295  15.2295  19.7185

          k = 0.0000-0.1544 0.1544 (   909 PWs)   bands (ev):

    -3.0941  13.8436  14.3475  14.8705  17.9542

          k = 0.0000-0.3087 0.3087 (   887 PWs)   bands (ev):

    -2.4997  10.7335  12.9517  14.0044  16.3302

          k = 0.0000-0.4631 0.4631 (   880 PWs)   bands (ev):

    -1.5218   7.6055  11.8279  13.1163  15.0786

          k = 0.0000-0.6175 0.6175 (   878 PWs)   bands (ev):

    -0.2404   4.9797  11.1292  12.5122  14.3247

          k = 0.0000 0.7719-0.7719 (   870 PWs)   bands (ev):

     0.6803   3.6053  10.8935  12.3021  14.0730

          k =-0.1544-0.1544 0.3087 (   891 PWs)   bands (ev):

    -2.6972  12.2833  12.5052  13.8378  17.3629

          k =-0.1544-0.3087 0.4631 (   888 PWs)   bands (ev):

    -1.9072   9.1748  11.2000  12.7410  16.9768

          k =-0.1544-0.4631 0.6175 (   874 PWs)   bands (ev):

    -0.7519   6.2715  10.3253  11.9102  16.3487

          k =-0.1544 0.9262-0.7719 (   868 PWs)   bands (ev):

     0.5568   4.0659   9.8788  11.4742  15.9686

          k =-0.3087-0.3087 0.6175 (   875 PWs)   bands (ev):

    -0.9259   7.3928   8.9618  11.8973  17.4467

          k =-0.3087 1.0806-0.7719 (   871 PWs)   bands (ev):

     0.3919   5.0835   8.0039  11.3678  17.6036

          k =-0.3087 0.9262-0.6175 (   881 PWs)   bands (ev):

     1.4332   3.6475   7.7378  11.1849  17.5854

          k =-0.4631 1.0806-0.6175 (   872 PWs)   bands (ev):

     1.8363   3.6844   6.6926  11.1082  18.8626

          k =-0.0000-0.0000 0.3087 (   895 PWs)   bands (ev):

    -2.8948  13.3432  13.3432  14.3933  16.3105

          k = 0.0000-0.1544 0.4631 (   883 PWs)   bands (ev):

    -2.2981  10.7655  11.8646  13.7742  15.3541

          k = 0.0000-0.3087 0.6175 (   886 PWs)   bands (ev):

    -1.3151   7.7164  10.7059  12.9788  15.7262

          k = 0.0000-0.4631 0.7719 (   873 PWs)   bands (ev):

    -0.0197   5.0995   9.9920  12.4158  15.9609

          k = 0.0000 0.9262-0.6175 (   862 PWs)   bands (ev):

     0.9303   3.7014   9.7519  12.2194  15.7148

          k =-0.1544-0.1544 0.6175 (   876 PWs)   bands (ev):

    -1.5027   9.0182   9.8789  13.4345  14.5094

          k =-0.1544-0.3087 0.7719 (   878 PWs)   bands (ev):

    -0.3337   6.4313   8.8066  12.8728  14.9692

          k =-0.1544 1.0806-0.6175 (   874 PWs)   bands (ev):

     1.0245   4.2405   8.3340  12.4853  15.6593

          k =-0.3087 0.3087 0.3087 (   872 PWs)   bands (ev):

    -2.1048  10.7829  10.7829  11.5540  18.4059

          k =-0.3087 1.2350-0.6175 (   869 PWs)   bands (ev):

     1.0015   4.9134   7.2535  12.9097  15.2049

          k =-0.3087 1.0806-0.4631 (   879 PWs)   bands (ev):

     2.1805   3.5655   6.8126  12.8417  15.8842

          k =-0.4631 0.4631 0.3087 (   875 PWs)   bands (ev):

    -1.1245   7.7494   9.6170  10.6555  18.7665

          k = 0.9262-0.9262 0.3087 (   875 PWs)   bands (ev):

     0.1836   5.1201   8.8995  10.1302  18.5931

          k = 0.9262-1.0806 0.4631 (   878 PWs)   bands (ev):

     0.0405   6.1785   7.5492   9.9283  20.1219

          k = 0.7719-0.7719 0.3087 (   874 PWs)   bands (ev):

     1.1835   3.6729   8.6583   9.9536  18.4666

          k = 0.7719-0.9262 0.4631 (   877 PWs)   bands (ev):

     1.4629   4.1630   6.8192   9.6100  20.5241

          k = 0.6175-0.9262 0.6175 (   883 PWs)   bands (ev):

     2.9398   2.9398   5.9338   9.4658  21.6099

          k =-0.0000-0.0000 0.6175 (   887 PWs)   bands (ev):

    -1.6942  10.3380  10.3380  12.7300  13.3494

          k =-0.0000-0.1544 0.7719 (   876 PWs)   bands (ev):

    -0.6964   8.0186   9.1603  12.1578  13.3485

          k = 0.0000-0.3087 0.9262 (   871 PWs)   bands (ev):

     0.6375   5.4781   8.4381  11.9162  14.3150

          k = 0.0000 1.0806-0.4631 (   870 PWs)   bands (ev):

     1.6782   4.0127   8.1956  11.8052  15.4107

          k =-0.1544-0.1544 0.9262 (   871 PWs)   bands (ev):

     0.4954   6.5732   7.7419  12.0672  13.1200

          k =-0.1544 1.2350-0.4631 (   879 PWs)   bands (ev):

     1.9419   4.6089   7.1174  12.2595  13.9518

          k =-0.3087 1.2350-0.3087 (   883 PWs)   bands (ev):

     3.4150   3.4150   6.3920  13.7474  13.8452

          k = 0.9262-0.9262 0.6175 (   871 PWs)   bands (ev):

     1.3858   5.4406   5.4406   9.0932  22.3980

          k = 0.7719-0.7719 0.6175 (   876 PWs)   bands (ev):

     2.6908   3.7958   5.1935   8.8880  23.1135

          k = 0.0000 0.0000 0.9262 (   872 PWs)   bands (ev):

     0.3266   7.9747   7.9747  10.1707  12.7921

          k =-0.0000-0.1544 1.0806 (   878 PWs)   bands (ev):

     1.7147   6.1217   7.2491  10.2784  12.7839

          k =-0.0000 1.2350-0.3087 (   880 PWs)   bands (ev):

     2.9143   4.5844   7.0056  10.6652  13.2546

          k =-0.1544 1.3894-0.3087 (   872 PWs)   bands (ev):

     3.2453   5.0876   6.4168  10.5710  12.0699

          k =-0.0000-0.0000 1.2350 (   872 PWs)   bands (ev):

     3.1704   6.5220   6.5220   8.6348  11.4056

          k =-0.0000 1.3894-0.1544 (   866 PWs)   bands (ev):

     4.5904   5.4092   6.2781   9.0713  10.0697

          k = 0.0000 0.0000-1.5437 (   856 PWs)   bands (ev):

     6.0341   6.0341   6.0341   8.1228   8.1228

     the Fermi energy is     0.3310 ev

!    total energy              =      -0.52673053 Ry
     estimated scf accuracy    <          7.7E-10 Ry
     smearing contrib. (-TS)   =      -0.02795595 Ry
     internal energy E=F+TS    =      -0.49877458 Ry

     The total energy is F=E-TS. E is the sum of the following terms:
     one-electron contribution =       0.39634264 Ry
     hartree contribution      =       0.00099844 Ry
     xc contribution           =      -0.34872080 Ry
     ewald contribution        =      -0.54739485 Ry

     convergence has been achieved in  10 iterations
     Writing meta-gga kinetic term


     Computing stress (Cartesian axis) and pressure

          total   stress  (Ry/bohr**3)                   (kbar)     P=       -0.08
  -0.00000053   0.00000000   0.00000000           -0.08        0.00        0.00
  -0.00000000  -0.00000053   0.00000000           -0.00       -0.08        0.00
  -0.00000000   0.00000000  -0.00000053           -0.00        0.00       -0.08


     Writing all to output data dir ./pwscf.save/
     Writing meta-gga kinetic term
 
     init_run     :      1.26s CPU      1.32s WALL (       2 calls)
     electrons    :    492.99s CPU    495.19s WALL (      16 calls)
     update_pot   :      5.06s CPU      5.07s WALL (      14 calls)
     stress       :      9.25s CPU      9.37s WALL (      16 calls)

     Called by init_run:
     wfcinit      :      0.86s CPU      0.88s WALL (       2 calls)
     potinit      :      0.19s CPU      0.20s WALL (       2 calls)
     hinit0       :      0.18s CPU      0.21s WALL (       2 calls)

     Called by electrons:
     c_bands      :    414.20s CPU    415.94s WALL (     205 calls)
     sum_band     :     71.57s CPU     71.86s WALL (     205 calls)
     v_of_rho     :      5.03s CPU      5.05s WALL (     219 calls)
     mix_rho      :      2.44s CPU      2.57s WALL (     205 calls)

     Called by c_bands:
     init_us_2    :      0.89s CPU      0.90s WALL (   20116 calls)
     init_us_2:cp :      0.86s CPU      0.86s WALL (   20116 calls)
     cegterg      :    413.19s CPU    414.93s WALL (    9635 calls)

     Called by *egterg:
     cdiaghg      :      0.94s CPU      0.95s WALL (   35763 calls)
     h_psi        :    404.79s CPU    406.51s WALL (   36609 calls)
     g_psi        :      0.58s CPU      0.58s WALL (   26880 calls)

     Called by h_psi:
     h_psi:calbec :      0.38s CPU      0.38s WALL (   36609 calls)
     vloc_psi     :    100.16s CPU    100.72s WALL (   36609 calls)
     add_vuspsi   :      0.30s CPU      0.30s WALL (   36609 calls)
     h_psi_meta   :    303.39s CPU    304.54s WALL (   36609 calls)

     General routines
     calbec       :      0.32s CPU      0.32s WALL (   37361 calls)
     fft          :      0.81s CPU      0.86s WALL (    2680 calls)
     ffts         :      0.89s CPU      0.90s WALL (    2913 calls)
     fftw         :    422.24s CPU    423.98s WALL ( 1387660 calls)
     interpolate  :      0.01s CPU      0.01s WALL (     219 calls)
 
     Parallel routines
 
     PWSCF        :   8m28.67s CPU   8m31.16s WALL

 
   This run was terminated on:  10:53:30  24Mar2023            

=------------------------------------------------------------------------------=
   JOB DONE.
=------------------------------------------------------------------------------=
