
     Program PWSCF v.7.0 starts on 10Apr2023 at  9:43:45 

     This program is part of the open-source Quantum ESPRESSO suite
     for quantum simulation of materials; please cite
         "P. Giannozzi et al., J. Phys.:Condens. Matter 21 395502 (2009);
         "P. Giannozzi et al., J. Phys.:Condens. Matter 29 465901 (2017);
         "P. Giannozzi et al., J. Chem. Phys. 152 154105 (2020);
          URL http://www.quantum-espresso.org", 
     in publications or presentations arising from this work. More details at
     http://www.quantum-espresso.org/quote

     Parallel version (MPI), running on     1 processors

     MPI processes distributed on     1 nodes
     19230 MiB available memory on the printing compute node when the environment starts
 
     Waiting for input...
     Reading input from standard input
Warning: card &CELL ignored
Warning: card / ignored

     Current dimensions of program PWSCF are:
     Max number of different atomic species (ntypx) = 10
     Max number of k-points (npk) =  40000
     Max angular momentum in pseudopotentials (lmaxx) =  4

     WARNING: the MGGA functional with ID    5 has been 
     read together with other dft terms, but it should 
     stand alone in order to work properly. The other 
     terms will be ignored.

     WARNING: the MGGA functional with ID    5 has been 
     read together with other dft terms, but it should 
     stand alone in order to work properly. The other 
     terms will be ignored.

     Subspace diagonalization in iterative solution of the eigenvalue problem:
     a serial algorithm will be used

 
     G-vector sticks info
     --------------------
     sticks:   dense  smooth     PW     G-vecs:    dense   smooth      PW
     Sum         271     271     91                 2975     2975     609
 
     Using Slab Decomposition
 


     bravais-lattice index     =            2
     lattice parameter (alat)  =       6.2890  a.u.
     unit-cell volume          =      62.1851 (a.u.)^3
     number of atoms/cell      =            2
     number of atomic types    =            2
     number of electrons       =         8.00
     number of Kohn-Sham states=            4
     kinetic-energy cutoff     =      50.0000  Ry
     charge density cutoff     =     200.0000  Ry
     scf convergence threshold =      1.0E-06
     mixing beta               =       0.0100
     number of iterations used =            8  local-TF  mixing
     Exchange-correlation= SLA  PW   SCAN SCAN
                           (   0   0   0   0   0 263 267)

     celldm(1)=   6.289009  celldm(2)=   0.000000  celldm(3)=   0.000000
     celldm(4)=   0.000000  celldm(5)=   0.000000  celldm(6)=   0.000000

     crystal axes: (cart. coord. in units of alat)
               a(1) = (  -0.500000   0.000000   0.500000 )  
               a(2) = (   0.000000   0.500000   0.500000 )  
               a(3) = (  -0.500000   0.500000   0.000000 )  

     reciprocal axes: (cart. coord. in units 2 pi/alat)
               b(1) = ( -1.000000 -1.000000  1.000000 )  
               b(2) = (  1.000000  1.000000  1.000000 )  
               b(3) = ( -1.000000  1.000000 -1.000000 )  


     PseudoPot. # 1 for Li read from file:
     ~/Documents/TA/PWDFT.jl/pseudopotentials/scan_upf/Li.SCAN.UPF2
     MD5 check sum: Not computed, couldn't open file
     Pseudo is Norm-conserving, Zval =  1.0
     Generated by new atomic code, or converted to UPF format
     Using radial grid of 1321 points,  1 beta functions with: 
                l(1) =   0

     PseudoPot. # 2 for F  read from file:
     ~/Documents/TA/PWDFT.jl/pseudopotentials/scan_upf/F.SCAN.UPF2
     MD5 check sum: Not computed, couldn't open file
     Pseudo is Norm-conserving, Zval =  7.0
     Generated by new atomic code, or converted to UPF format
     Using radial grid of 1431 points,  1 beta functions with: 
                l(1) =   0

     atomic species   valence    mass     pseudopotential
        Li             1.00     6.94100     Li( 1.00)
        F              7.00    18.99800     F ( 1.00)

     48 Sym. Ops., with inversion, found



   Cartesian axes

     site n.     atom                  positions (alat units)
         1           Li  tau(   1) = (   0.0000000   0.0000000   0.0000000  )
         2           F   tau(   2) = (   0.5000000   0.5000000   0.5000000  )

     number of k points=    47
                       cart. coord. in units 2pi/alat
        k(    1) = (   0.0000000   0.0000000   0.0000000), wk =   0.0020000
        k(    2) = (  -0.1000000   0.1000000  -0.1000000), wk =   0.0160000
        k(    3) = (  -0.2000000   0.2000000  -0.2000000), wk =   0.0160000
        k(    4) = (  -0.3000000   0.3000000  -0.3000000), wk =   0.0160000
        k(    5) = (  -0.4000000   0.4000000  -0.4000000), wk =   0.0160000
        k(    6) = (   0.5000000  -0.5000000   0.5000000), wk =   0.0080000
        k(    7) = (   0.0000000   0.2000000   0.0000000), wk =   0.0120000
        k(    8) = (  -0.1000000   0.3000000  -0.1000000), wk =   0.0480000
        k(    9) = (  -0.2000000   0.4000000  -0.2000000), wk =   0.0480000
        k(   10) = (  -0.3000000   0.5000000  -0.3000000), wk =   0.0480000
        k(   11) = (   0.6000000  -0.4000000   0.6000000), wk =   0.0480000
        k(   12) = (   0.5000000  -0.3000000   0.5000000), wk =   0.0480000
        k(   13) = (   0.4000000  -0.2000000   0.4000000), wk =   0.0480000
        k(   14) = (   0.3000000  -0.1000000   0.3000000), wk =   0.0480000
        k(   15) = (   0.2000000   0.0000000   0.2000000), wk =   0.0240000
        k(   16) = (   0.0000000   0.4000000   0.0000000), wk =   0.0120000
        k(   17) = (  -0.1000000   0.5000000  -0.1000000), wk =   0.0480000
        k(   18) = (  -0.2000000   0.6000000  -0.2000000), wk =   0.0480000
        k(   19) = (   0.7000000  -0.3000000   0.7000000), wk =   0.0480000
        k(   20) = (   0.6000000  -0.2000000   0.6000000), wk =   0.0480000
        k(   21) = (   0.5000000  -0.1000000   0.5000000), wk =   0.0480000
        k(   22) = (   0.4000000   0.0000000   0.4000000), wk =   0.0240000
        k(   23) = (   0.0000000   0.6000000   0.0000000), wk =   0.0120000
        k(   24) = (  -0.1000000   0.7000000  -0.1000000), wk =   0.0480000
        k(   25) = (   0.8000000  -0.2000000   0.8000000), wk =   0.0480000
        k(   26) = (   0.7000000  -0.1000000   0.7000000), wk =   0.0480000
        k(   27) = (   0.6000000  -0.0000000   0.6000000), wk =   0.0240000
        k(   28) = (   0.0000000   0.8000000   0.0000000), wk =   0.0120000
        k(   29) = (   0.9000000  -0.1000000   0.9000000), wk =   0.0480000
        k(   30) = (   0.8000000   0.0000000   0.8000000), wk =   0.0240000
        k(   31) = (   0.0000000  -1.0000000   0.0000000), wk =   0.0060000
        k(   32) = (  -0.2000000   0.4000000   0.0000000), wk =   0.0480000
        k(   33) = (  -0.3000000   0.5000000  -0.1000000), wk =   0.0960000
        k(   34) = (   0.6000000  -0.4000000   0.8000000), wk =   0.0960000
        k(   35) = (   0.5000000  -0.3000000   0.7000000), wk =   0.0480000
        k(   36) = (  -0.2000000   0.6000000   0.0000000), wk =   0.0480000
        k(   37) = (   0.7000000  -0.3000000   0.9000000), wk =   0.0960000
        k(   38) = (   0.6000000  -0.2000000   0.8000000), wk =   0.0960000
        k(   39) = (   0.5000000  -0.1000000   0.7000000), wk =   0.0960000
        k(   40) = (   0.4000000   0.0000000   0.6000000), wk =   0.0480000
        k(   41) = (   0.8000000  -0.2000000   1.0000000), wk =   0.0480000
        k(   42) = (   0.7000000  -0.1000000   0.9000000), wk =   0.0960000
        k(   43) = (   0.6000000   0.0000000   0.8000000), wk =   0.0480000
        k(   44) = (  -0.2000000  -1.0000000   0.0000000), wk =   0.0240000
        k(   45) = (   0.6000000  -0.2000000   1.0000000), wk =   0.0480000
        k(   46) = (   0.5000000  -0.1000000   0.9000000), wk =   0.0480000
        k(   47) = (  -0.4000000  -1.0000000   0.0000000), wk =   0.0240000

     Dense  grid:     2975 G-vectors     FFT dimensions: (  24,  24,  24)

     Estimated max dynamical RAM per process >       6.16 MB

     WARNING: libxc functional with ID  263 depends
      on external parameters: check the user_guide of
      QE if you need to modify them or to check their
      default values.

     Initial potential from superposition of free atoms

     starting charge       7.9953, renormalised to       8.0000
     Starting wfcs are    8 randomized atomic wfcs

     total cpu time spent up to now is        1.5 secs

     Self-consistent Calculation

     iteration #  1     ecut=    50.00 Ry     beta= 0.01
     Davidson diagonalization with overlap
     ethr =  1.00E-02,  avg # of iterations =  2.0

     total cpu time spent up to now is        3.3 secs

     total energy              =     -48.24567195 Ry
     estimated scf accuracy    <      18.29296983 Ry

     iteration #  2     ecut=    50.00 Ry     beta= 0.01
     Davidson diagonalization with overlap
     ethr =  1.00E-02,  avg # of iterations =  1.0

     total cpu time spent up to now is        4.8 secs

     total energy              =     -48.29550847 Ry
     estimated scf accuracy    <      17.81905356 Ry

     iteration #  3     ecut=    50.00 Ry     beta= 0.01
     Davidson diagonalization with overlap
     ethr =  1.00E-02,  avg # of iterations =  1.0

     total cpu time spent up to now is        6.1 secs

     total energy              =     -48.30570480 Ry
     estimated scf accuracy    <       2.17004691 Ry

     iteration #  4     ecut=    50.00 Ry     beta= 0.01
     Davidson diagonalization with overlap
     ethr =  1.00E-02,  avg # of iterations =  1.0

     total cpu time spent up to now is        7.7 secs

     total energy              =     -48.30603048 Ry
     estimated scf accuracy    <       0.00371096 Ry

     iteration #  5     ecut=    50.00 Ry     beta= 0.01
     Davidson diagonalization with overlap
     ethr =  4.64E-05,  avg # of iterations =  1.0

     total cpu time spent up to now is        9.1 secs

     total energy              =     -48.30603337 Ry
     estimated scf accuracy    <       0.00363971 Ry

     iteration #  6     ecut=    50.00 Ry     beta= 0.01
     Davidson diagonalization with overlap
     ethr =  4.55E-05,  avg # of iterations =  1.0

     total cpu time spent up to now is       10.5 secs

     total energy              =     -48.30558525 Ry
     estimated scf accuracy    <       0.00351752 Ry

     iteration #  7     ecut=    50.00 Ry     beta= 0.01
     Davidson diagonalization with overlap
     ethr =  4.40E-05,  avg # of iterations =  2.0

     total cpu time spent up to now is       12.4 secs

     total energy              =     -48.30651690 Ry
     estimated scf accuracy    <       0.01426912 Ry

     iteration #  8     ecut=    50.00 Ry     beta= 0.01
     Davidson diagonalization with overlap
     ethr =  4.40E-05,  avg # of iterations =  1.0

     total cpu time spent up to now is       13.5 secs

     total energy              =     -48.30633107 Ry
     estimated scf accuracy    <       0.01789742 Ry

     iteration #  9     ecut=    50.00 Ry     beta= 0.01
     Davidson diagonalization with overlap
     ethr =  4.40E-05,  avg # of iterations =  1.0

     total cpu time spent up to now is       14.8 secs

     total energy              =     -48.30631571 Ry
     estimated scf accuracy    <       0.00754004 Ry

     iteration # 10     ecut=    50.00 Ry     beta= 0.01
     Davidson diagonalization with overlap
     ethr =  4.40E-05,  avg # of iterations =  1.0

     total cpu time spent up to now is       16.1 secs

     total energy              =     -48.30634646 Ry
     estimated scf accuracy    <       0.00111757 Ry

     iteration # 11     ecut=    50.00 Ry     beta= 0.01
     Davidson diagonalization with overlap
     ethr =  1.40E-05,  avg # of iterations =  1.0

     total cpu time spent up to now is       17.3 secs

     total energy              =     -48.30631209 Ry
     estimated scf accuracy    <       0.00192072 Ry

     iteration # 12     ecut=    50.00 Ry     beta= 0.01
     Davidson diagonalization with overlap
     ethr =  1.40E-05,  avg # of iterations =  1.0

     total cpu time spent up to now is       18.6 secs

     total energy              =     -48.30630320 Ry
     estimated scf accuracy    <       0.00063810 Ry

     iteration # 13     ecut=    50.00 Ry     beta= 0.01
     Davidson diagonalization with overlap
     ethr =  7.98E-06,  avg # of iterations =  1.0

     total cpu time spent up to now is       19.8 secs

     End of self-consistent calculation

          k = 0.0000 0.0000 0.0000 (   339 PWs)   bands (ev):

   -18.4044   6.4354   6.4354   6.4354

          k =-0.1000 0.1000-0.1000 (   362 PWs)   bands (ev):

   -18.3018   5.6357   6.2091   6.2091

          k =-0.2000 0.2000-0.2000 (   362 PWs)   bands (ev):

   -18.0108   4.3409   6.0498   6.0498

          k =-0.3000 0.3000-0.3000 (   362 PWs)   bands (ev):

   -17.6210   2.7935   5.9022   5.9022

          k =-0.4000 0.4000-0.4000 (   368 PWs)   bands (ev):

   -17.2769   1.5752   5.7186   5.7186

          k = 0.5000-0.5000 0.5000 (   368 PWs)   bands (ev):

   -17.1369   1.0986   5.6903   5.6903

          k = 0.0000 0.2000 0.0000 (   355 PWs)   bands (ev):

   -18.2616   5.7726   6.0987   6.0987

          k =-0.1000 0.3000-0.1000 (   360 PWs)   bands (ev):

   -18.0221   4.7609   5.7946   5.8808

          k =-0.2000 0.4000-0.2000 (   369 PWs)   bands (ev):

   -17.6487   3.2183   5.5112   5.5698

          k =-0.3000 0.5000-0.3000 (   372 PWs)   bands (ev):

   -17.2688   1.8893   5.2484   5.3783

          k = 0.6000-0.4000 0.6000 (   372 PWs)   bands (ev):

   -17.0465   1.1541   5.0177   5.4523

          k = 0.5000-0.3000 0.5000 (   370 PWs)   bands (ev):

   -17.0984   1.3380   4.8995   5.6577

          k = 0.4000-0.2000 0.4000 (   367 PWs)   bands (ev):

   -17.3959   2.3809   4.9580   5.8897

          k = 0.3000-0.1000 0.3000 (   368 PWs)   bands (ev):

   -17.7929   3.7760   5.2089   6.0924

          k = 0.2000 0.0000 0.2000 (   361 PWs)   bands (ev):

   -18.1298   5.0896   5.7471   6.2188

          k = 0.0000 0.4000 0.0000 (   355 PWs)   bands (ev):

   -17.8230   4.4542   5.4335   5.4335

          k =-0.1000 0.5000-0.1000 (   361 PWs)   bands (ev):

   -17.4694   3.2282   4.9911   5.0521

          k =-0.2000 0.6000-0.2000 (   374 PWs)   bands (ev):

   -17.0749   1.9329   4.3085   4.8384

          k = 0.7000-0.3000 0.7000 (   372 PWs)   bands (ev):

   -16.7991   1.1919   3.7942   4.9260

          k = 0.6000-0.2000 0.6000 (   370 PWs)   bands (ev):

   -16.7824   1.2444   3.4397   5.2520

          k = 0.5000-0.1000 0.5000 (   372 PWs)   bands (ev):

   -17.0353   2.0861   3.4093   5.5687

          k = 0.4000 0.0000 0.4000 (   371 PWs)   bands (ev):

   -17.4272   3.1652   3.9420   5.9222

          k = 0.0000 0.6000 0.0000 (   359 PWs)   bands (ev):

   -17.1344   2.2534   4.6444   4.6444

          k =-0.1000 0.7000-0.1000 (   367 PWs)   bands (ev):

   -16.7513   1.1331   4.0750   4.3635

          k = 0.8000-0.2000 0.8000 (   372 PWs)   bands (ev):

   -16.4720   0.5484   3.2954   4.3687

          k = 0.7000-0.1000 0.7000 (   375 PWs)   bands (ev):

   -16.4352   0.7450   2.5774   4.6656

          k = 0.6000-0.0000 0.6000 (   373 PWs)   bands (ev):

   -16.6609   1.6959   2.3021   5.1084

          k = 0.0000 0.8000 0.0000 (   371 PWs)   bands (ev):

   -16.4084   0.1405   3.9386   3.9386

          k = 0.9000-0.1000 0.9000 (   370 PWs)   bands (ev):

   -16.1865  -0.3741   3.5940   3.8887

          k = 0.8000 0.0000 0.8000 (   373 PWs)   bands (ev):

   -16.1974  -0.1076   2.9382   4.1692

          k = 0.0000-1.0000 0.0000 (   388 PWs)   bands (ev):

   -16.0742  -0.8263   3.5967   3.5967

          k =-0.2000 0.4000 0.0000 (   370 PWs)   bands (ev):

   -17.7281   3.9043   4.9228   5.7038

          k =-0.3000 0.5000-0.1000 (   371 PWs)   bands (ev):

   -17.3326   2.6911   4.2923   5.5209

          k = 0.6000-0.4000 0.8000 (   374 PWs)   bands (ev):

   -16.9829   1.5607   3.9777   5.2937

          k = 0.5000-0.3000 0.7000 (   376 PWs)   bands (ev):

   -16.8407   1.1354   3.8606   5.1776

          k =-0.2000 0.6000 0.0000 (   369 PWs)   bands (ev):

   -17.0941   2.1995   4.1016   4.8612

          k = 0.7000-0.3000 0.9000 (   370 PWs)   bands (ev):

   -16.7313   1.3484   3.3008   4.7915

          k = 0.6000-0.2000 0.8000 (   375 PWs)   bands (ev):

   -16.5437   1.0266   2.6985   4.7639

          k = 0.5000-0.1000 0.7000 (   377 PWs)   bands (ev):

   -16.6296   1.4479   2.4481   4.9516

          k = 0.4000 0.0000 0.6000 (   370 PWs)   bands (ev):

   -16.9419   2.2467   2.9449   5.3163

          k = 0.8000-0.2000 1.0000 (   368 PWs)   bands (ev):

   -16.4272   0.3644   3.4430   4.2999

          k = 0.7000-0.1000 0.9000 (   373 PWs)   bands (ev):

   -16.2636   0.2372   2.6538   4.3429

          k = 0.6000 0.0000 0.8000 (   380 PWs)   bands (ev):

   -16.3461   0.8030   2.0654   4.5387

          k =-0.2000-1.0000 0.0000 (   370 PWs)   bands (ev):

   -16.1208  -0.4444   3.1766   4.0753

          k = 0.6000-0.2000 1.0000 (   377 PWs)   bands (ev):

   -16.4318   1.0739   2.1303   4.6439

          k = 0.5000-0.1000 0.9000 (   376 PWs)   bands (ev):

   -16.3105   1.1703   1.5252   4.6118

          k =-0.4000-1.0000 0.0000 (   378 PWs)   bands (ev):

   -16.1999   0.5008   1.8764   4.4021

     highest occupied level (ev):     6.4354

!    total energy              =     -48.30630965 Ry
     estimated scf accuracy    <       0.00000059 Ry

     The total energy is the sum of the following terms:
     one-electron contribution =     -11.46927444 Ry
     hartree contribution      =      12.19563091 Ry
     xc contribution           =     -10.15541499 Ry
     ewald contribution        =     -38.87725112 Ry

     convergence has been achieved in  13 iterations
     Writing meta-gga kinetic term

     Writing all to output data dir ./input_pw/LiF/2/pwscf.save/
     Writing meta-gga kinetic term
 
     init_run     :      0.56s CPU      1.42s WALL (       1 calls)
     electrons    :      8.67s CPU     18.30s WALL (       1 calls)

     Called by init_run:
     wfcinit      :      0.49s CPU      1.23s WALL (       1 calls)
     potinit      :      0.01s CPU      0.04s WALL (       1 calls)
     hinit0       :      0.06s CPU      0.14s WALL (       1 calls)

     Called by electrons:
     c_bands      :      6.82s CPU     14.30s WALL (      13 calls)
     sum_band     :      1.67s CPU      3.62s WALL (      13 calls)
     v_of_rho     :      0.12s CPU      0.26s WALL (      14 calls)
     mix_rho      :      0.07s CPU      0.15s WALL (      13 calls)

     Called by c_bands:
     init_us_2    :      0.03s CPU      0.06s WALL (    1269 calls)
     init_us_2:cp :      0.03s CPU      0.04s WALL (    1269 calls)
     cegterg      :      6.78s CPU     14.25s WALL (     611 calls)

     Called by *egterg:
     cdiaghg      :      0.05s CPU      0.13s WALL (    1316 calls)
     h_psi        :      7.12s CPU     15.11s WALL (    1363 calls)
     g_psi        :      0.00s CPU      0.01s WALL (     705 calls)

     Called by h_psi:
     h_psi:calbec :      0.01s CPU      0.03s WALL (    1363 calls)
     vloc_psi     :      1.77s CPU      3.85s WALL (    1363 calls)
     add_vuspsi   :      0.02s CPU      0.02s WALL (    1363 calls)
     h_psi_meta   :      5.31s CPU     11.20s WALL (    1363 calls)

     General routines
     calbec       :      0.01s CPU      0.02s WALL (    1363 calls)
     fft          :      0.03s CPU      0.13s WALL (     165 calls)
     ffts         :      0.04s CPU      0.10s WALL (     304 calls)
     fftw         :      7.90s CPU     16.89s WALL (   54536 calls)
     interpolate  :      0.00s CPU      0.00s WALL (      14 calls)
 
     Parallel routines
 
     PWSCF        :      9.27s CPU     19.84s WALL

 
   This run was terminated on:   9:44: 4  10Apr2023            

=------------------------------------------------------------------------------=
   JOB DONE.
=------------------------------------------------------------------------------=
