
     Program PWSCF v.7.0 starts on  7Jul2023 at 14:23:45 

     This program is part of the open-source Quantum ESPRESSO suite
     for quantum simulation of materials; please cite
         "P. Giannozzi et al., J. Phys.:Condens. Matter 21 395502 (2009);
         "P. Giannozzi et al., J. Phys.:Condens. Matter 29 465901 (2017);
         "P. Giannozzi et al., J. Chem. Phys. 152 154105 (2020);
          URL http://www.quantum-espresso.org", 
     in publications or presentations arising from this work. More details at
     http://www.quantum-espresso.org/quote

     Parallel version (MPI), running on     1 processors

     MPI processes distributed on     1 nodes
     27001 MiB available memory on the printing compute node when the environment starts
 
     Waiting for input...
     Reading input from standard input
Warning: card &CELL ignored
Warning: card / ignored

     Current dimensions of program PWSCF are:
     Max number of different atomic species (ntypx) = 10
     Max number of k-points (npk) =  40000
     Max angular momentum in pseudopotentials (lmaxx) =  4

     WARNING: the MGGA functional with ID    5 has been 
     read together with other dft terms, but it should 
     stand alone in order to work properly. The other 
     terms will be ignored.

     WARNING: the MGGA functional with ID    5 has been 
     read together with other dft terms, but it should 
     stand alone in order to work properly. The other 
     terms will be ignored.

     Subspace diagonalization in iterative solution of the eigenvalue problem:
     a serial algorithm will be used

 
     G-vector sticks info
     --------------------
     sticks:   dense  smooth     PW     G-vecs:    dense   smooth      PW
     Sum         337     337    109                 3943     3943     749
 
     Using Slab Decomposition
 


     bravais-lattice index     =            2
     lattice parameter (alat)  =       6.9340  a.u.
     unit-cell volume          =      83.3486 (a.u.)^3
     number of atoms/cell      =            2
     number of atomic types    =            2
     number of electrons       =         8.00
     number of Kohn-Sham states=            4
     kinetic-energy cutoff     =      50.0000  Ry
     charge density cutoff     =     200.0000  Ry
     scf convergence threshold =      2.0E-05
     mixing beta               =       0.2000
     number of iterations used =            8  local-TF  mixing
     Exchange-correlation= SLA  PW   SCAN SCAN
                           (   0   0   0   0   0 263 267)

     celldm(1)=   6.934035  celldm(2)=   0.000000  celldm(3)=   0.000000
     celldm(4)=   0.000000  celldm(5)=   0.000000  celldm(6)=   0.000000

     crystal axes: (cart. coord. in units of alat)
               a(1) = (  -0.500000   0.000000   0.500000 )  
               a(2) = (   0.000000   0.500000   0.500000 )  
               a(3) = (  -0.500000   0.500000   0.000000 )  

     reciprocal axes: (cart. coord. in units 2 pi/alat)
               b(1) = ( -1.000000 -1.000000  1.000000 )  
               b(2) = (  1.000000  1.000000  1.000000 )  
               b(3) = ( -1.000000  1.000000 -1.000000 )  


     PseudoPot. # 1 for Li read from file:
     ~/Documents/TA/PWDFT.jl/pseudopotentials/scan_upf/Li.SCAN.UPF2
     MD5 check sum: Not computed, couldn't open file
     Pseudo is Norm-conserving, Zval =  1.0
     Generated by new atomic code, or converted to UPF format
     Using radial grid of 1321 points,  1 beta functions with: 
                l(1) =   0

     PseudoPot. # 2 for F  read from file:
     ~/Documents/TA/PWDFT.jl/pseudopotentials/scan_upf/F.SCAN.UPF2
     MD5 check sum: Not computed, couldn't open file
     Pseudo is Norm-conserving, Zval =  7.0
     Generated by new atomic code, or converted to UPF format
     Using radial grid of 1431 points,  1 beta functions with: 
                l(1) =   0

     atomic species   valence    mass     pseudopotential
        Li             1.00     6.94100     Li( 1.00)
        F              7.00    18.99800     F ( 1.00)

     48 Sym. Ops., with inversion, found



   Cartesian axes

     site n.     atom                  positions (alat units)
         1           Li  tau(   1) = (   0.0000000   0.0000000   0.0000000  )
         2           F   tau(   2) = (   0.5000000   0.5000000   0.5000000  )

     number of k points=    47
                       cart. coord. in units 2pi/alat
        k(    1) = (   0.0000000   0.0000000   0.0000000), wk =   0.0020000
        k(    2) = (  -0.1000000   0.1000000  -0.1000000), wk =   0.0160000
        k(    3) = (  -0.2000000   0.2000000  -0.2000000), wk =   0.0160000
        k(    4) = (  -0.3000000   0.3000000  -0.3000000), wk =   0.0160000
        k(    5) = (  -0.4000000   0.4000000  -0.4000000), wk =   0.0160000
        k(    6) = (   0.5000000  -0.5000000   0.5000000), wk =   0.0080000
        k(    7) = (   0.0000000   0.2000000   0.0000000), wk =   0.0120000
        k(    8) = (  -0.1000000   0.3000000  -0.1000000), wk =   0.0480000
        k(    9) = (  -0.2000000   0.4000000  -0.2000000), wk =   0.0480000
        k(   10) = (  -0.3000000   0.5000000  -0.3000000), wk =   0.0480000
        k(   11) = (   0.6000000  -0.4000000   0.6000000), wk =   0.0480000
        k(   12) = (   0.5000000  -0.3000000   0.5000000), wk =   0.0480000
        k(   13) = (   0.4000000  -0.2000000   0.4000000), wk =   0.0480000
        k(   14) = (   0.3000000  -0.1000000   0.3000000), wk =   0.0480000
        k(   15) = (   0.2000000   0.0000000   0.2000000), wk =   0.0240000
        k(   16) = (   0.0000000   0.4000000   0.0000000), wk =   0.0120000
        k(   17) = (  -0.1000000   0.5000000  -0.1000000), wk =   0.0480000
        k(   18) = (  -0.2000000   0.6000000  -0.2000000), wk =   0.0480000
        k(   19) = (   0.7000000  -0.3000000   0.7000000), wk =   0.0480000
        k(   20) = (   0.6000000  -0.2000000   0.6000000), wk =   0.0480000
        k(   21) = (   0.5000000  -0.1000000   0.5000000), wk =   0.0480000
        k(   22) = (   0.4000000   0.0000000   0.4000000), wk =   0.0240000
        k(   23) = (   0.0000000   0.6000000   0.0000000), wk =   0.0120000
        k(   24) = (  -0.1000000   0.7000000  -0.1000000), wk =   0.0480000
        k(   25) = (   0.8000000  -0.2000000   0.8000000), wk =   0.0480000
        k(   26) = (   0.7000000  -0.1000000   0.7000000), wk =   0.0480000
        k(   27) = (   0.6000000  -0.0000000   0.6000000), wk =   0.0240000
        k(   28) = (   0.0000000   0.8000000   0.0000000), wk =   0.0120000
        k(   29) = (   0.9000000  -0.1000000   0.9000000), wk =   0.0480000
        k(   30) = (   0.8000000   0.0000000   0.8000000), wk =   0.0240000
        k(   31) = (   0.0000000  -1.0000000   0.0000000), wk =   0.0060000
        k(   32) = (  -0.2000000   0.4000000   0.0000000), wk =   0.0480000
        k(   33) = (  -0.3000000   0.5000000  -0.1000000), wk =   0.0960000
        k(   34) = (   0.6000000  -0.4000000   0.8000000), wk =   0.0960000
        k(   35) = (   0.5000000  -0.3000000   0.7000000), wk =   0.0480000
        k(   36) = (  -0.2000000   0.6000000   0.0000000), wk =   0.0480000
        k(   37) = (   0.7000000  -0.3000000   0.9000000), wk =   0.0960000
        k(   38) = (   0.6000000  -0.2000000   0.8000000), wk =   0.0960000
        k(   39) = (   0.5000000  -0.1000000   0.7000000), wk =   0.0960000
        k(   40) = (   0.4000000   0.0000000   0.6000000), wk =   0.0480000
        k(   41) = (   0.8000000  -0.2000000   1.0000000), wk =   0.0480000
        k(   42) = (   0.7000000  -0.1000000   0.9000000), wk =   0.0960000
        k(   43) = (   0.6000000   0.0000000   0.8000000), wk =   0.0480000
        k(   44) = (  -0.2000000  -1.0000000   0.0000000), wk =   0.0240000
        k(   45) = (   0.6000000  -0.2000000   1.0000000), wk =   0.0480000
        k(   46) = (   0.5000000  -0.1000000   0.9000000), wk =   0.0480000
        k(   47) = (  -0.4000000  -1.0000000   0.0000000), wk =   0.0240000

     Dense  grid:     3943 G-vectors     FFT dimensions: (  24,  24,  24)

     Estimated max dynamical RAM per process >       7.67 MB

     WARNING: libxc functional with ID  263 depends
      on external parameters: check the user_guide of
      QE if you need to modify them or to check their
      default values.

     Initial potential from superposition of free atoms

     starting charge       7.9953, renormalised to       8.0000
     Starting wfcs are    8 randomized atomic wfcs

     total cpu time spent up to now is        1.5 secs

     Self-consistent Calculation

     iteration #  1     ecut=    50.00 Ry     beta= 0.20
     Davidson diagonalization with overlap
     ethr =  1.00E-02,  avg # of iterations =  2.0

     total cpu time spent up to now is        3.2 secs

     total energy              =     -48.49757693 Ry
     estimated scf accuracy    <      17.94419623 Ry

     iteration #  2     ecut=    50.00 Ry     beta= 0.20
     Davidson diagonalization with overlap
     ethr =  1.00E-02,  avg # of iterations =  1.0

     total cpu time spent up to now is        4.5 secs

     total energy              =     -48.50915234 Ry
     estimated scf accuracy    <      11.56419884 Ry

     iteration #  3     ecut=    50.00 Ry     beta= 0.20
     Davidson diagonalization with overlap
     ethr =  1.00E-02,  avg # of iterations =  1.0

     total cpu time spent up to now is        5.7 secs

     total energy              =     -48.51186661 Ry
     estimated scf accuracy    <       0.00811250 Ry

     iteration #  4     ecut=    50.00 Ry     beta= 0.20
     Davidson diagonalization with overlap
     ethr =  1.01E-04,  avg # of iterations =  1.0

     total cpu time spent up to now is        7.0 secs

     total energy              =     -48.51229075 Ry
     estimated scf accuracy    <       0.00617100 Ry

     iteration #  5     ecut=    50.00 Ry     beta= 0.20
     Davidson diagonalization with overlap
     ethr =  7.71E-05,  avg # of iterations =  1.0

     total cpu time spent up to now is        8.3 secs

     total energy              =     -48.51252973 Ry
     estimated scf accuracy    <       0.00099037 Ry

     iteration #  6     ecut=    50.00 Ry     beta= 0.20
     Davidson diagonalization with overlap
     ethr =  1.24E-05,  avg # of iterations =  1.0

     total cpu time spent up to now is        9.6 secs

     End of self-consistent calculation

          k = 0.0000 0.0000 0.0000 (   531 PWs)   bands (ev):

   -20.5557   2.2505   2.2505   2.2505

          k =-0.1000 0.1000-0.1000 (   522 PWs)   bands (ev):

   -20.4785   2.0018   2.2389   2.2389

          k =-0.2000 0.2000-0.2000 (   501 PWs)   bands (ev):

   -20.2706   1.2021   2.2586   2.2586

          k =-0.3000 0.3000-0.3000 (   492 PWs)   bands (ev):

   -20.0014   0.0384   2.2615   2.2615

          k =-0.4000 0.4000-0.4000 (   498 PWs)   bands (ev):

   -19.7717  -0.8447   2.1421   2.1421

          k = 0.5000-0.5000 0.5000 (   502 PWs)   bands (ev):

   -19.6809  -1.1413   2.0653   2.0653

          k = 0.0000 0.2000 0.0000 (   516 PWs)   bands (ev):

   -20.4512   2.1119   2.1538   2.1538

          k =-0.1000 0.3000-0.1000 (   507 PWs)   bands (ev):

   -20.2835   1.4071   2.0606   2.1276

          k =-0.2000 0.4000-0.2000 (   499 PWs)   bands (ev):

   -20.0284   0.3743   1.9920   2.0246

          k =-0.3000 0.5000-0.3000 (   502 PWs)   bands (ev):

   -19.7781  -0.6042   1.8417   1.9220

          k = 0.6000-0.4000 0.6000 (   502 PWs)   bands (ev):

   -19.6358  -1.0548   1.6533   1.9414

          k = 0.5000-0.3000 0.5000 (   495 PWs)   bands (ev):

   -19.6674  -0.9164   1.6268   2.0942

          k = 0.4000-0.2000 0.4000 (   503 PWs)   bands (ev):

   -19.8598  -0.2972   1.6248   2.2105

          k = 0.3000-0.1000 0.3000 (   499 PWs)   bands (ev):

   -20.1233   0.7745   1.7913   2.3408

          k = 0.2000 0.0000 0.2000 (   515 PWs)   bands (ev):

   -20.3568   1.6027   1.9792   2.3132

          k = 0.0000 0.4000 0.0000 (   496 PWs)   bands (ev):

   -20.1559   1.2435   1.8635   1.8635

          k =-0.1000 0.5000-0.1000 (   499 PWs)   bands (ev):

   -19.9304   0.3220   1.6213   1.6930

          k =-0.2000 0.6000-0.2000 (   499 PWs)   bands (ev):

   -19.6833  -0.4962   1.2701   1.5901

          k = 0.7000-0.3000 0.7000 (   496 PWs)   bands (ev):

   -19.5143  -0.9206   0.9028   1.6303

          k = 0.6000-0.2000 0.6000 (   492 PWs)   bands (ev):

   -19.4995  -0.8707   0.6915   1.8287

          k = 0.5000-0.1000 0.5000 (   500 PWs)   bands (ev):

   -19.6473  -0.4067   0.6561   2.0206

          k = 0.4000 0.0000 0.4000 (   497 PWs)   bands (ev):

   -19.8875   0.2378   1.1176   2.2576

          k = 0.0000 0.6000 0.0000 (   496 PWs)   bands (ev):

   -19.7379  -0.2778   1.4075   1.4075

          k =-0.1000 0.7000-0.1000 (   490 PWs)   bands (ev):

   -19.5180  -0.9138   1.1147   1.2703

          k = 0.8000-0.2000 0.8000 (   491 PWs)   bands (ev):

   -19.3583  -1.2418   0.5840   1.3105

          k = 0.7000-0.1000 0.7000 (   498 PWs)   bands (ev):

   -19.3290  -1.0458   0.0332   1.4356

          k = 0.6000-0.0000 0.6000 (   498 PWs)   bands (ev):

   -19.4422  -0.4059  -0.2548   1.7466

          k = 0.0000 0.8000 0.0000 (   488 PWs)   bands (ev):

   -19.3424  -1.5642   1.0766   1.0766

          k = 0.9000-0.1000 0.9000 (   490 PWs)   bands (ev):

   -19.2269  -1.8196   0.7647   1.0226

          k = 0.8000 0.0000 0.8000 (   494 PWs)   bands (ev):

   -19.2220  -1.6251   0.3428   1.1543

          k = 0.0000-1.0000 0.0000 (   468 PWs)   bands (ev):

   -19.1729  -2.0057   1.0428   1.0428

          k =-0.2000 0.4000 0.0000 (   498 PWs)   bands (ev):

   -20.0867   0.8327   1.6404   2.1479

          k =-0.3000 0.5000-0.1000 (   505 PWs)   bands (ev):

   -19.8327  -0.0660   1.2222   1.9859

          k = 0.6000-0.4000 0.8000 (   499 PWs)   bands (ev):

   -19.6145  -0.7369   1.0193   1.8911

          k = 0.5000-0.3000 0.7000 (   500 PWs)   bands (ev):

   -19.5283  -0.9916   0.9234   1.8222

          k =-0.2000 0.6000 0.0000 (   495 PWs)   bands (ev):

   -19.7040  -0.3222   1.1299   1.6354

          k = 0.7000-0.3000 0.9000 (   496 PWs)   bands (ev):

   -19.4922  -0.8081   0.6058   1.5096

          k = 0.6000-0.2000 0.8000 (   494 PWs)   bands (ev):

   -19.3823  -0.9487   0.2203   1.5299

          k = 0.5000-0.1000 0.7000 (   498 PWs)   bands (ev):

   -19.4258  -0.7111   0.0370   1.6632

          k = 0.4000 0.0000 0.6000 (   499 PWs)   bands (ev):

   -19.6014  -0.3283   0.3881   1.8665

          k = 0.8000-0.2000 1.0000 (   495 PWs)   bands (ev):

   -19.3441  -1.3942   0.7022   1.1676

          k = 0.7000-0.1000 0.9000 (   490 PWs)   bands (ev):

   -19.2521  -1.4000   0.2310   1.2381

          k = 0.6000 0.0000 0.8000 (   495 PWs)   bands (ev):

   -19.2849  -0.9688  -0.2576   1.4131

          k =-0.2000-1.0000 0.0000 (   490 PWs)   bands (ev):

   -19.1913  -1.8221   0.5656   1.0219

          k = 0.6000-0.2000 1.0000 (   499 PWs)   bands (ev):

   -19.3316  -0.9068  -0.1287   1.3831

          k = 0.5000-0.1000 0.9000 (   494 PWs)   bands (ev):

   -19.2679  -0.7649  -0.5122   1.3562

          k =-0.4000-1.0000 0.0000 (   498 PWs)   bands (ev):

   -19.2178  -1.1829  -0.2758   1.1772

     highest occupied level (ev):     2.3408

!    total energy              =     -48.51258239 Ry
     estimated scf accuracy    <       0.00000933 Ry

     The total energy is the sum of the following terms:
     one-electron contribution =     -17.57299368 Ry
     hartree contribution      =      14.31128966 Ry
     xc contribution           =      -9.99011572 Ry
     ewald contribution        =     -35.26076266 Ry

     convergence has been achieved in   6 iterations
     Writing meta-gga kinetic term

     Writing all to output data dir ./input_pw/LiF/2/pwscf.save/
     Writing meta-gga kinetic term
 
     init_run     :      0.56s CPU      1.36s WALL (       1 calls)
     electrons    :      3.97s CPU      8.05s WALL (       1 calls)

     Called by init_run:
     wfcinit      :      0.49s CPU      1.14s WALL (       1 calls)
     potinit      :      0.01s CPU      0.04s WALL (       1 calls)
     hinit0       :      0.06s CPU      0.17s WALL (       1 calls)

     Called by electrons:
     c_bands      :      3.13s CPU      6.32s WALL (       6 calls)
     sum_band     :      0.75s CPU      1.57s WALL (       6 calls)
     v_of_rho     :      0.06s CPU      0.13s WALL (       7 calls)
     mix_rho      :      0.03s CPU      0.06s WALL (       6 calls)

     Called by c_bands:
     init_us_2    :      0.02s CPU      0.03s WALL (     611 calls)
     init_us_2:cp :      0.02s CPU      0.02s WALL (     611 calls)
     cegterg      :      3.11s CPU      6.29s WALL (     282 calls)

     Called by *egterg:
     cdiaghg      :      0.03s CPU      0.09s WALL (     611 calls)
     h_psi        :      3.51s CPU      7.23s WALL (     658 calls)
     g_psi        :      0.00s CPU      0.00s WALL (     329 calls)

     Called by h_psi:
     h_psi:calbec :      0.01s CPU      0.01s WALL (     658 calls)
     vloc_psi     :      0.87s CPU      1.84s WALL (     658 calls)
     add_vuspsi   :      0.01s CPU      0.03s WALL (     658 calls)
     h_psi_meta   :      2.62s CPU      5.34s WALL (     658 calls)

     General routines
     calbec       :      0.00s CPU      0.00s WALL (     658 calls)
     fft          :      0.01s CPU      0.08s WALL (      81 calls)
     ffts         :      0.02s CPU      0.05s WALL (     131 calls)
     fftw         :      3.81s CPU      8.02s WALL (   26688 calls)
     interpolate  :      0.00s CPU      0.00s WALL (       7 calls)
 
     Parallel routines
 
     PWSCF        :      4.58s CPU      9.63s WALL

 
   This run was terminated on:  14:23:55   7Jul2023            

=------------------------------------------------------------------------------=
   JOB DONE.
=------------------------------------------------------------------------------=
