
     Program PWSCF v.7.0 starts on 29Mar2023 at 11:45:51 

     This program is part of the open-source Quantum ESPRESSO suite
     for quantum simulation of materials; please cite
         "P. Giannozzi et al., J. Phys.:Condens. Matter 21 395502 (2009);
         "P. Giannozzi et al., J. Phys.:Condens. Matter 29 465901 (2017);
         "P. Giannozzi et al., J. Chem. Phys. 152 154105 (2020);
          URL http://www.quantum-espresso.org", 
     in publications or presentations arising from this work. More details at
     http://www.quantum-espresso.org/quote

     Parallel version (MPI), running on     1 processors

     MPI processes distributed on     1 nodes
     23467 MiB available memory on the printing compute node when the environment starts
 
     Waiting for input...
     Reading input from standard input
Warning: card &CELL ignored
Warning: card / ignored

     Current dimensions of program PWSCF are:
     Max number of different atomic species (ntypx) = 10
     Max number of k-points (npk) =  40000
     Max angular momentum in pseudopotentials (lmaxx) =  4
     file Ge.SCAN.UPF2: wavefunction(s)  0D renormalized

     WARNING: the MGGA functional with ID    5 has been 
     read together with other dft terms, but it should 
     stand alone in order to work properly. The other 
     terms will be ignored.

     Subspace diagonalization in iterative solution of the eigenvalue problem:
     a serial algorithm will be used

 
     G-vector sticks info
     --------------------
     sticks:   dense  smooth     PW     G-vecs:    dense   smooth      PW
     Sum         805     805    253                14841    14841    2565
 
     Using Slab Decomposition
 


     bravais-lattice index     =            2
     lattice parameter (alat)  =      10.7523  a.u.
     unit-cell volume          =     310.7749 (a.u.)^3
     number of atoms/cell      =            2
     number of atomic types    =            1
     number of electrons       =         8.00
     number of Kohn-Sham states=            4
     kinetic-energy cutoff     =      50.0000  Ry
     charge density cutoff     =     200.0000  Ry
     scf convergence threshold =      1.0E-06
     mixing beta               =       0.0100
     number of iterations used =            8  local-TF  mixing
     Exchange-correlation= SLA  PW  SCAN SCAN
                           (   0   0   0   0   0 263 267)

     celldm(1)=  10.752315  celldm(2)=   0.000000  celldm(3)=   0.000000
     celldm(4)=   0.000000  celldm(5)=   0.000000  celldm(6)=   0.000000

     crystal axes: (cart. coord. in units of alat)
               a(1) = (  -0.500000   0.000000   0.500000 )  
               a(2) = (   0.000000   0.500000   0.500000 )  
               a(3) = (  -0.500000   0.500000   0.000000 )  

     reciprocal axes: (cart. coord. in units 2 pi/alat)
               b(1) = ( -1.000000 -1.000000  1.000000 )  
               b(2) = (  1.000000  1.000000  1.000000 )  
               b(3) = ( -1.000000  1.000000 -1.000000 )  


     PseudoPot. # 1 for Ge read from file:
     ~/Documents/TA/PWDFT.jl/pseudopotentials/scan_upf/Ge.SCAN.UPF2
     MD5 check sum: Not computed, couldn't open file
     Pseudo is Norm-conserving, Zval =  4.0
     Generated by new atomic code, or converted to UPF format
     Using radial grid of 1557 points,  2 beta functions with: 
                l(1) =   0
                l(2) =   1

     atomic species   valence    mass     pseudopotential
        Ge             4.00    72.64000     Ge( 1.00)

     48 Sym. Ops., with inversion, found (24 have fractional translation)



   Cartesian axes

     site n.     atom                  positions (alat units)
         1           Ge  tau(   1) = (   0.0000000   0.0000000   0.0000000  )
         2           Ge  tau(   2) = (   0.2500000   0.2500000   0.2500000  )

     number of k points=    47
                       cart. coord. in units 2pi/alat
        k(    1) = (   0.0000000   0.0000000   0.0000000), wk =   0.0020000
        k(    2) = (  -0.1000000   0.1000000  -0.1000000), wk =   0.0160000
        k(    3) = (  -0.2000000   0.2000000  -0.2000000), wk =   0.0160000
        k(    4) = (  -0.3000000   0.3000000  -0.3000000), wk =   0.0160000
        k(    5) = (  -0.4000000   0.4000000  -0.4000000), wk =   0.0160000
        k(    6) = (   0.5000000  -0.5000000   0.5000000), wk =   0.0080000
        k(    7) = (   0.0000000   0.2000000   0.0000000), wk =   0.0120000
        k(    8) = (  -0.1000000   0.3000000  -0.1000000), wk =   0.0480000
        k(    9) = (  -0.2000000   0.4000000  -0.2000000), wk =   0.0480000
        k(   10) = (  -0.3000000   0.5000000  -0.3000000), wk =   0.0480000
        k(   11) = (   0.6000000  -0.4000000   0.6000000), wk =   0.0480000
        k(   12) = (   0.5000000  -0.3000000   0.5000000), wk =   0.0480000
        k(   13) = (   0.4000000  -0.2000000   0.4000000), wk =   0.0480000
        k(   14) = (   0.3000000  -0.1000000   0.3000000), wk =   0.0480000
        k(   15) = (   0.2000000   0.0000000   0.2000000), wk =   0.0240000
        k(   16) = (   0.0000000   0.4000000   0.0000000), wk =   0.0120000
        k(   17) = (  -0.1000000   0.5000000  -0.1000000), wk =   0.0480000
        k(   18) = (  -0.2000000   0.6000000  -0.2000000), wk =   0.0480000
        k(   19) = (   0.7000000  -0.3000000   0.7000000), wk =   0.0480000
        k(   20) = (   0.6000000  -0.2000000   0.6000000), wk =   0.0480000
        k(   21) = (   0.5000000  -0.1000000   0.5000000), wk =   0.0480000
        k(   22) = (   0.4000000   0.0000000   0.4000000), wk =   0.0240000
        k(   23) = (   0.0000000   0.6000000   0.0000000), wk =   0.0120000
        k(   24) = (  -0.1000000   0.7000000  -0.1000000), wk =   0.0480000
        k(   25) = (   0.8000000  -0.2000000   0.8000000), wk =   0.0480000
        k(   26) = (   0.7000000  -0.1000000   0.7000000), wk =   0.0480000
        k(   27) = (   0.6000000  -0.0000000   0.6000000), wk =   0.0240000
        k(   28) = (   0.0000000   0.8000000   0.0000000), wk =   0.0120000
        k(   29) = (   0.9000000  -0.1000000   0.9000000), wk =   0.0480000
        k(   30) = (   0.8000000   0.0000000   0.8000000), wk =   0.0240000
        k(   31) = (   0.0000000  -1.0000000   0.0000000), wk =   0.0060000
        k(   32) = (  -0.2000000   0.4000000   0.0000000), wk =   0.0480000
        k(   33) = (  -0.3000000   0.5000000  -0.1000000), wk =   0.0960000
        k(   34) = (   0.6000000  -0.4000000   0.8000000), wk =   0.0960000
        k(   35) = (   0.5000000  -0.3000000   0.7000000), wk =   0.0480000
        k(   36) = (  -0.2000000   0.6000000   0.0000000), wk =   0.0480000
        k(   37) = (   0.7000000  -0.3000000   0.9000000), wk =   0.0960000
        k(   38) = (   0.6000000  -0.2000000   0.8000000), wk =   0.0960000
        k(   39) = (   0.5000000  -0.1000000   0.7000000), wk =   0.0960000
        k(   40) = (   0.4000000   0.0000000   0.6000000), wk =   0.0480000
        k(   41) = (   0.8000000  -0.2000000   1.0000000), wk =   0.0480000
        k(   42) = (   0.7000000  -0.1000000   0.9000000), wk =   0.0960000
        k(   43) = (   0.6000000   0.0000000   0.8000000), wk =   0.0480000
        k(   44) = (  -0.2000000  -1.0000000   0.0000000), wk =   0.0240000
        k(   45) = (   0.6000000  -0.2000000   1.0000000), wk =   0.0480000
        k(   46) = (   0.5000000  -0.1000000   0.9000000), wk =   0.0480000
        k(   47) = (  -0.4000000  -1.0000000   0.0000000), wk =   0.0240000

     Dense  grid:    14841 G-vectors     FFT dimensions: (  36,  36,  36)

     Estimated max dynamical RAM per process >      27.91 MB

     WARNING: libxc functional with ID  263 depends
      on external parameters: check the user_guide of
      QE if you need to modify them or to check their
      default values.

     Initial potential from superposition of free atoms

     starting charge       7.9987, renormalised to       8.0000
     Starting wfcs are   18 randomized atomic wfcs

     total cpu time spent up to now is        9.0 secs

     Self-consistent Calculation

     iteration #  1     ecut=    50.00 Ry     beta= 0.01
     Davidson diagonalization with overlap
     ethr =  1.00E-02,  avg # of iterations =  1.9

     Threshold (ethr) on eigenvalues was too large:
     Diagonalizing with lowered threshold

     Davidson diagonalization with overlap
     ethr =  3.66E-04,  avg # of iterations =  5.9

     total cpu time spent up to now is       27.8 secs

     total energy              =     -15.73948014 Ry
     estimated scf accuracy    <       0.03696434 Ry

     iteration #  2     ecut=    50.00 Ry     beta= 0.01
     Davidson diagonalization with overlap
     ethr =  4.62E-04,  avg # of iterations =  1.0

     total cpu time spent up to now is       33.1 secs

     total energy              =     -15.74699824 Ry
     estimated scf accuracy    <       0.03707693 Ry

     iteration #  3     ecut=    50.00 Ry     beta= 0.01
     Davidson diagonalization with overlap
     ethr =  4.62E-04,  avg # of iterations =  1.0

     total cpu time spent up to now is       38.6 secs

     total energy              =     -15.82372892 Ry
     estimated scf accuracy    <       0.04371551 Ry

     iteration #  4     ecut=    50.00 Ry     beta= 0.01
     Davidson diagonalization with overlap
     ethr =  4.62E-04,  avg # of iterations =  1.4

     total cpu time spent up to now is       44.3 secs

     total energy              =     -15.82610522 Ry
     estimated scf accuracy    <       0.00418161 Ry

     iteration #  5     ecut=    50.00 Ry     beta= 0.01
     Davidson diagonalization with overlap
     ethr =  5.23E-05,  avg # of iterations =  5.7

     total cpu time spent up to now is       55.5 secs

     total energy              =     -15.82919290 Ry
     estimated scf accuracy    <       0.00445422 Ry

     iteration #  6     ecut=    50.00 Ry     beta= 0.01
     Davidson diagonalization with overlap
     ethr =  5.23E-05,  avg # of iterations =  1.1

     total cpu time spent up to now is       61.1 secs

     total energy              =     -15.82799670 Ry
     estimated scf accuracy    <       0.00413742 Ry

     iteration #  7     ecut=    50.00 Ry     beta= 0.01
     Davidson diagonalization with overlap
     ethr =  5.17E-05,  avg # of iterations =  1.5

     total cpu time spent up to now is       67.3 secs

     total energy              =     -15.82846883 Ry
     estimated scf accuracy    <       0.00024775 Ry

     iteration #  8     ecut=    50.00 Ry     beta= 0.01
     Davidson diagonalization with overlap
     c_bands:  1 eigenvalues not converged
     ethr =  3.10E-06,  avg # of iterations = 11.5

     total cpu time spent up to now is       84.4 secs

     total energy              =     -15.82917284 Ry
     estimated scf accuracy    <       0.00045966 Ry

     iteration #  9     ecut=    50.00 Ry     beta= 0.01
     Davidson diagonalization with overlap
     c_bands:  1 eigenvalues not converged
     ethr =  3.10E-06,  avg # of iterations =  2.1

     total cpu time spent up to now is       89.7 secs

     total energy              =     -15.82917253 Ry
     estimated scf accuracy    <       0.00036710 Ry

     iteration # 10     ecut=    50.00 Ry     beta= 0.01
     Davidson diagonalization with overlap
     ethr =  3.10E-06,  avg # of iterations =  3.6

     total cpu time spent up to now is       96.7 secs

     total energy              =     -15.82925328 Ry
     estimated scf accuracy    <       0.00001143 Ry

     iteration # 11     ecut=    50.00 Ry     beta= 0.01
     Davidson diagonalization with overlap
     c_bands:  1 eigenvalues not converged
     c_bands:  2 eigenvalues not converged
     ethr =  1.43E-07,  avg # of iterations = 12.4

     total cpu time spent up to now is      118.1 secs

     total energy              =     -15.82931137 Ry
     estimated scf accuracy    <       0.00004275 Ry

     iteration # 12     ecut=    50.00 Ry     beta= 0.01
     Davidson diagonalization with overlap
     c_bands:  1 eigenvalues not converged
     ethr =  1.43E-07,  avg # of iterations =  1.7

     total cpu time spent up to now is      123.4 secs

     total energy              =     -15.82932943 Ry
     estimated scf accuracy    <       0.00003680 Ry

     iteration # 13     ecut=    50.00 Ry     beta= 0.01
     Davidson diagonalization with overlap
     ethr =  1.43E-07,  avg # of iterations =  2.8

     total cpu time spent up to now is      129.5 secs

     total energy              =     -15.82930489 Ry
     estimated scf accuracy    <       0.00006085 Ry

     iteration # 14     ecut=    50.00 Ry     beta= 0.01
     Davidson diagonalization with overlap
     ethr =  1.43E-07,  avg # of iterations =  3.4

     total cpu time spent up to now is      135.8 secs

     End of self-consistent calculation

          k = 0.0000 0.0000 0.0000 (  1837 PWs)   bands (ev):

    -7.5203   5.3299   5.3299   5.3299

          k =-0.1000 0.1000-0.1000 (  1868 PWs)   bands (ev):

    -7.3979   3.5635   5.1124   5.1124

          k =-0.2000 0.2000-0.2000 (  1865 PWs)   bands (ev):

    -7.0383   1.5723   4.6852   4.6852

          k =-0.3000 0.3000-0.3000 (  1865 PWs)   bands (ev):

    -6.4729  -0.2221   4.2994   4.2994

          k =-0.4000 0.4000-0.4000 (  1859 PWs)   bands (ev):

    -5.8116  -1.6392   4.0495   4.0495

          k = 0.5000-0.5000 0.5000 (  1850 PWs)   bands (ev):

    -5.4419  -2.2635   3.9641   3.9642

          k = 0.0000 0.2000 0.0000 (  1852 PWs)   bands (ev):

    -7.3567   3.5241   4.7320   4.7320

          k =-0.1000 0.3000-0.1000 (  1860 PWs)   bands (ev):

    -7.0745   2.0099   4.2636   4.3158

          k =-0.2000 0.4000-0.2000 (  1857 PWs)   bands (ev):

    -6.5716   0.2756   3.8045   3.9029

          k =-0.3000 0.5000-0.3000 (  1867 PWs)   bands (ev):

    -5.9185  -1.2381   3.3545   3.7196

          k = 0.6000-0.4000 0.6000 (  1855 PWs)   bands (ev):

    -5.3780  -2.1803   3.0591   3.7308

          k = 0.5000-0.3000 0.5000 (  1860 PWs)   bands (ev):

    -5.5140  -1.9616   2.9556   3.9285

          k = 0.4000-0.2000 0.4000 (  1865 PWs)   bands (ev):

    -6.1467  -0.7690   3.0684   4.2830

          k = 0.3000-0.1000 0.3000 (  1870 PWs)   bands (ev):

    -6.7633   0.8301   3.4291   4.7276

          k = 0.2000 0.0000 0.2000 (  1863 PWs)   bands (ev):

    -7.1958   2.4637   4.1337   5.1001

          k = 0.0000 0.4000 0.0000 (  1864 PWs)   bands (ev):

    -6.8694   1.5735   3.7686   3.7686

          k =-0.1000 0.5000-0.1000 (  1862 PWs)   bands (ev):

    -6.4352   0.3624   3.1883   3.3912

          k =-0.2000 0.6000-0.2000 (  1875 PWs)   bands (ev):

    -5.8159  -0.9829   2.5067   3.2055

          k = 0.7000-0.3000 0.7000 (  1853 PWs)   bands (ev):

    -5.1768  -2.0532   1.9806   3.2332

          k = 0.6000-0.2000 0.6000 (  1855 PWs)   bands (ev):

    -5.0562  -2.2264   1.7063   3.4677

          k = 0.5000-0.1000 0.5000 (  1850 PWs)   bands (ev):

    -5.6179  -1.3507   1.7544   3.8733

          k = 0.4000 0.0000 0.4000 (  1861 PWs)   bands (ev):

    -6.2686  -0.1654   2.2710   4.3612

          k = 0.0000 0.6000 0.0000 (  1860 PWs)   bands (ev):

    -6.0685  -0.2913   2.9789   2.9789

          k =-0.1000 0.7000-0.1000 (  1844 PWs)   bands (ev):

    -5.4974  -1.2831   2.3772   2.7556

          k = 0.8000-0.2000 0.8000 (  1858 PWs)   bands (ev):

    -4.8191  -2.2356   1.6003   2.7516

          k = 0.7000-0.1000 0.7000 (  1847 PWs)   bands (ev):

    -4.4784  -2.6417   1.0901   2.9660

          k = 0.6000-0.0000 0.6000 (  1858 PWs)   bands (ev):

    -4.9593  -2.0779   1.0751   3.3680

          k = 0.0000 0.8000 0.0000 (  1868 PWs)   bands (ev):

    -4.9735  -2.0369   2.4823   2.4823

          k = 0.9000-0.1000 0.9000 (  1837 PWs)   bands (ev):

    -4.2935  -2.8575   1.9659   2.4268

          k = 0.8000 0.0000 0.8000 (  1840 PWs)   bands (ev):

    -3.9066  -3.2305   1.2843   2.5956

          k = 0.0000-1.0000 0.0000 (  1868 PWs)   bands (ev):

    -3.6150  -3.6150   2.3138   2.3138

          k =-0.2000 0.4000 0.0000 (  1868 PWs)   bands (ev):

    -6.7173   0.9440   3.1838   4.2148

          k =-0.3000 0.5000-0.1000 (  1863 PWs)   bands (ev):

    -6.1539  -0.4263   2.5146   3.8414

          k = 0.6000-0.4000 0.8000 (  1855 PWs)   bands (ev):

    -5.4879  -1.6853   2.1963   3.5031

          k = 0.5000-0.3000 0.7000 (  1842 PWs)   bands (ev):

    -5.1069  -2.2777   2.1038   3.3734

          k =-0.2000 0.6000 0.0000 (  1860 PWs)   bands (ev):

    -5.9348  -0.5993   2.4375   3.1273

          k = 0.7000-0.3000 0.9000 (  1854 PWs)   bands (ev):

    -5.2776  -1.6588   1.8088   2.8239

          k = 0.6000-0.2000 0.8000 (  1847 PWs)   bands (ev):

    -4.7180  -2.4222   1.3960   2.7698

          k = 0.5000-0.1000 0.7000 (  1849 PWs)   bands (ev):

    -4.8948  -2.1918   1.2815   2.9977

          k = 0.4000 0.0000 0.6000 (  1862 PWs)   bands (ev):

    -5.5487  -1.2970   1.6056   3.4219

          k = 0.8000-0.2000 1.0000 (  1844 PWs)   bands (ev):

    -4.8751  -2.1302   2.0223   2.3538

          k = 0.7000-0.1000 0.9000 (  1848 PWs)   bands (ev):

    -4.2114  -2.8795   1.4087   2.2642

          k = 0.6000 0.0000 0.8000 (  1850 PWs)   bands (ev):

    -4.2545  -2.8192   1.0364   2.5259

          k =-0.2000-1.0000 0.0000 (  1842 PWs)   bands (ev):

    -3.5838  -3.5838   1.9855   1.9855

          k = 0.6000-0.2000 1.0000 (  1850 PWs)   bands (ev):

    -4.6084  -2.4122   1.3420   2.2996

          k = 0.5000-0.1000 0.9000 (  1856 PWs)   bands (ev):

    -4.1551  -2.9001   1.2060   2.0656

          k =-0.4000-1.0000 0.0000 (  1852 PWs)   bands (ev):

    -3.5310  -3.5310   1.5623   1.5623

     highest occupied level (ev):     5.3299

!    total energy              =     -15.82930882 Ry
     estimated scf accuracy    <       0.00000034 Ry

     The total energy is the sum of the following terms:
     one-electron contribution =       3.64050902 Ry
     hartree contribution      =       1.21727540 Ry
     xc contribution           =      -4.65542568 Ry
     ewald contribution        =     -16.03166756 Ry

     convergence has been achieved in  14 iterations
     Writing meta-gga kinetic term

     Writing all to output data dir ./input_pw/Ge/5/pwscf.save/
     Writing meta-gga kinetic term
 
     init_run     :      4.44s CPU      8.91s WALL (       1 calls)
     electrons    :     67.27s CPU    126.81s WALL (       1 calls)

     Called by init_run:
     wfcinit      :      4.32s CPU      8.67s WALL (       1 calls)
     potinit      :      0.03s CPU      0.12s WALL (       1 calls)
     hinit0       :      0.07s CPU      0.10s WALL (       1 calls)

     Called by electrons:
     c_bands      :     57.86s CPU    109.02s WALL (      15 calls)
     sum_band     :      8.50s CPU     15.94s WALL (      15 calls)
     v_of_rho     :      0.50s CPU      1.09s WALL (      15 calls)
     mix_rho      :      0.42s CPU      0.83s WALL (      15 calls)

     Called by c_bands:
     init_us_2    :      0.37s CPU      0.65s WALL (    1457 calls)
     init_us_2:cp :      0.37s CPU      0.63s WALL (    1457 calls)
     cegterg      :     57.40s CPU    108.05s WALL (     705 calls)

     Called by *egterg:
     cdiaghg      :      0.29s CPU      0.58s WALL (    3336 calls)
     h_psi        :     60.18s CPU    113.81s WALL (    3430 calls)
     g_psi        :      0.06s CPU      0.13s WALL (    2678 calls)

     Called by h_psi:
     h_psi:calbec :      0.33s CPU      0.58s WALL (    3430 calls)
     vloc_psi     :     15.04s CPU     28.08s WALL (    3430 calls)
     add_vuspsi   :      0.21s CPU      0.39s WALL (    3430 calls)
     h_psi_meta   :     44.48s CPU     84.55s WALL (    3430 calls)

     General routines
     calbec       :      0.31s CPU      0.57s WALL (    3430 calls)
     fft          :      0.10s CPU      0.22s WALL (     179 calls)
     ffts         :      0.15s CPU      0.27s WALL (     247 calls)
     fftw         :     56.32s CPU    106.80s WALL (  103664 calls)
     interpolate  :      0.00s CPU      0.01s WALL (      15 calls)
 
     Parallel routines
 
     PWSCF        :   1m11.76s CPU   2m15.82s WALL

 
   This run was terminated on:  11:48: 6  29Mar2023            

=------------------------------------------------------------------------------=
   JOB DONE.
=------------------------------------------------------------------------------=
