
     Program PWSCF v.7.0 starts on  7Jul2023 at 14:25:49 

     This program is part of the open-source Quantum ESPRESSO suite
     for quantum simulation of materials; please cite
         "P. Giannozzi et al., J. Phys.:Condens. Matter 21 395502 (2009);
         "P. Giannozzi et al., J. Phys.:Condens. Matter 29 465901 (2017);
         "P. Giannozzi et al., J. Chem. Phys. 152 154105 (2020);
          URL http://www.quantum-espresso.org", 
     in publications or presentations arising from this work. More details at
     http://www.quantum-espresso.org/quote

     Parallel version (MPI), running on     1 processors

     MPI processes distributed on     1 nodes
     26966 MiB available memory on the printing compute node when the environment starts
 
     Waiting for input...
     Reading input from standard input
Warning: card &CELL ignored
Warning: card / ignored

     Current dimensions of program PWSCF are:
     Max number of different atomic species (ntypx) = 10
     Max number of k-points (npk) =  40000
     Max angular momentum in pseudopotentials (lmaxx) =  4
     file Ge.SCAN.UPF2: wavefunction(s)  0D renormalized

     WARNING: the MGGA functional with ID    5 has been 
     read together with other dft terms, but it should 
     stand alone in order to work properly. The other 
     terms will be ignored.

     Subspace diagonalization in iterative solution of the eigenvalue problem:
     a serial algorithm will be used

 
     G-vector sticks info
     --------------------
     sticks:   dense  smooth     PW     G-vecs:    dense   smooth      PW
     Sum         805     805    253                14841    14841    2565
 
     Using Slab Decomposition
 


     bravais-lattice index     =            2
     lattice parameter (alat)  =      10.7523  a.u.
     unit-cell volume          =     310.7749 (a.u.)^3
     number of atoms/cell      =            2
     number of atomic types    =            1
     number of electrons       =         8.00
     number of Kohn-Sham states=            4
     kinetic-energy cutoff     =      50.0000  Ry
     charge density cutoff     =     200.0000  Ry
     scf convergence threshold =      2.0E-05
     mixing beta               =       0.2000
     number of iterations used =            8  local-TF  mixing
     Exchange-correlation= SLA  PW  SCAN SCAN
                           (   0   0   0   0   0 263 267)

     celldm(1)=  10.752315  celldm(2)=   0.000000  celldm(3)=   0.000000
     celldm(4)=   0.000000  celldm(5)=   0.000000  celldm(6)=   0.000000

     crystal axes: (cart. coord. in units of alat)
               a(1) = (  -0.500000   0.000000   0.500000 )  
               a(2) = (   0.000000   0.500000   0.500000 )  
               a(3) = (  -0.500000   0.500000   0.000000 )  

     reciprocal axes: (cart. coord. in units 2 pi/alat)
               b(1) = ( -1.000000 -1.000000  1.000000 )  
               b(2) = (  1.000000  1.000000  1.000000 )  
               b(3) = ( -1.000000  1.000000 -1.000000 )  


     PseudoPot. # 1 for Ge read from file:
     ~/Documents/TA/PWDFT.jl/pseudopotentials/scan_upf/Ge.SCAN.UPF2
     MD5 check sum: Not computed, couldn't open file
     Pseudo is Norm-conserving, Zval =  4.0
     Generated by new atomic code, or converted to UPF format
     Using radial grid of 1557 points,  2 beta functions with: 
                l(1) =   0
                l(2) =   1

     atomic species   valence    mass     pseudopotential
        Ge             4.00    72.64000     Ge( 1.00)

     48 Sym. Ops., with inversion, found (24 have fractional translation)



   Cartesian axes

     site n.     atom                  positions (alat units)
         1           Ge  tau(   1) = (   0.0000000   0.0000000   0.0000000  )
         2           Ge  tau(   2) = (   0.2500000   0.2500000   0.2500000  )

     number of k points=    47
                       cart. coord. in units 2pi/alat
        k(    1) = (   0.0000000   0.0000000   0.0000000), wk =   0.0020000
        k(    2) = (  -0.1000000   0.1000000  -0.1000000), wk =   0.0160000
        k(    3) = (  -0.2000000   0.2000000  -0.2000000), wk =   0.0160000
        k(    4) = (  -0.3000000   0.3000000  -0.3000000), wk =   0.0160000
        k(    5) = (  -0.4000000   0.4000000  -0.4000000), wk =   0.0160000
        k(    6) = (   0.5000000  -0.5000000   0.5000000), wk =   0.0080000
        k(    7) = (   0.0000000   0.2000000   0.0000000), wk =   0.0120000
        k(    8) = (  -0.1000000   0.3000000  -0.1000000), wk =   0.0480000
        k(    9) = (  -0.2000000   0.4000000  -0.2000000), wk =   0.0480000
        k(   10) = (  -0.3000000   0.5000000  -0.3000000), wk =   0.0480000
        k(   11) = (   0.6000000  -0.4000000   0.6000000), wk =   0.0480000
        k(   12) = (   0.5000000  -0.3000000   0.5000000), wk =   0.0480000
        k(   13) = (   0.4000000  -0.2000000   0.4000000), wk =   0.0480000
        k(   14) = (   0.3000000  -0.1000000   0.3000000), wk =   0.0480000
        k(   15) = (   0.2000000   0.0000000   0.2000000), wk =   0.0240000
        k(   16) = (   0.0000000   0.4000000   0.0000000), wk =   0.0120000
        k(   17) = (  -0.1000000   0.5000000  -0.1000000), wk =   0.0480000
        k(   18) = (  -0.2000000   0.6000000  -0.2000000), wk =   0.0480000
        k(   19) = (   0.7000000  -0.3000000   0.7000000), wk =   0.0480000
        k(   20) = (   0.6000000  -0.2000000   0.6000000), wk =   0.0480000
        k(   21) = (   0.5000000  -0.1000000   0.5000000), wk =   0.0480000
        k(   22) = (   0.4000000   0.0000000   0.4000000), wk =   0.0240000
        k(   23) = (   0.0000000   0.6000000   0.0000000), wk =   0.0120000
        k(   24) = (  -0.1000000   0.7000000  -0.1000000), wk =   0.0480000
        k(   25) = (   0.8000000  -0.2000000   0.8000000), wk =   0.0480000
        k(   26) = (   0.7000000  -0.1000000   0.7000000), wk =   0.0480000
        k(   27) = (   0.6000000  -0.0000000   0.6000000), wk =   0.0240000
        k(   28) = (   0.0000000   0.8000000   0.0000000), wk =   0.0120000
        k(   29) = (   0.9000000  -0.1000000   0.9000000), wk =   0.0480000
        k(   30) = (   0.8000000   0.0000000   0.8000000), wk =   0.0240000
        k(   31) = (   0.0000000  -1.0000000   0.0000000), wk =   0.0060000
        k(   32) = (  -0.2000000   0.4000000   0.0000000), wk =   0.0480000
        k(   33) = (  -0.3000000   0.5000000  -0.1000000), wk =   0.0960000
        k(   34) = (   0.6000000  -0.4000000   0.8000000), wk =   0.0960000
        k(   35) = (   0.5000000  -0.3000000   0.7000000), wk =   0.0480000
        k(   36) = (  -0.2000000   0.6000000   0.0000000), wk =   0.0480000
        k(   37) = (   0.7000000  -0.3000000   0.9000000), wk =   0.0960000
        k(   38) = (   0.6000000  -0.2000000   0.8000000), wk =   0.0960000
        k(   39) = (   0.5000000  -0.1000000   0.7000000), wk =   0.0960000
        k(   40) = (   0.4000000   0.0000000   0.6000000), wk =   0.0480000
        k(   41) = (   0.8000000  -0.2000000   1.0000000), wk =   0.0480000
        k(   42) = (   0.7000000  -0.1000000   0.9000000), wk =   0.0960000
        k(   43) = (   0.6000000   0.0000000   0.8000000), wk =   0.0480000
        k(   44) = (  -0.2000000  -1.0000000   0.0000000), wk =   0.0240000
        k(   45) = (   0.6000000  -0.2000000   1.0000000), wk =   0.0480000
        k(   46) = (   0.5000000  -0.1000000   0.9000000), wk =   0.0480000
        k(   47) = (  -0.4000000  -1.0000000   0.0000000), wk =   0.0240000

     Dense  grid:    14841 G-vectors     FFT dimensions: (  36,  36,  36)

     Estimated max dynamical RAM per process >      27.91 MB

     WARNING: libxc functional with ID  263 depends
      on external parameters: check the user_guide of
      QE if you need to modify them or to check their
      default values.

     Initial potential from superposition of free atoms

     starting charge       7.9987, renormalised to       8.0000
     Starting wfcs are   18 randomized atomic wfcs

     total cpu time spent up to now is        9.7 secs

     Self-consistent Calculation

     iteration #  1     ecut=    50.00 Ry     beta= 0.20
     Davidson diagonalization with overlap
     ethr =  1.00E-02,  avg # of iterations =  1.9

     Threshold (ethr) on eigenvalues was too large:
     Diagonalizing with lowered threshold

     Davidson diagonalization with overlap
     ethr =  3.66E-04,  avg # of iterations =  5.9

     total cpu time spent up to now is       30.2 secs

     total energy              =     -15.77066163 Ry
     estimated scf accuracy    <       0.03696434 Ry

     iteration #  2     ecut=    50.00 Ry     beta= 0.20
     Davidson diagonalization with overlap
     ethr =  4.62E-04,  avg # of iterations =  1.9

     total cpu time spent up to now is       36.9 secs

     total energy              =     -15.82307172 Ry
     estimated scf accuracy    <       0.02900586 Ry

     iteration #  3     ecut=    50.00 Ry     beta= 0.20
     Davidson diagonalization with overlap
     ethr =  3.63E-04,  avg # of iterations =  1.2

     total cpu time spent up to now is       42.8 secs

     total energy              =     -15.82531454 Ry
     estimated scf accuracy    <       0.00220645 Ry

     iteration #  4     ecut=    50.00 Ry     beta= 0.20
     Davidson diagonalization with overlap
     ethr =  2.76E-05,  avg # of iterations =  8.6

     total cpu time spent up to now is       59.0 secs

     total energy              =     -15.82856422 Ry
     estimated scf accuracy    <       0.00291872 Ry

     iteration #  5     ecut=    50.00 Ry     beta= 0.20
     Davidson diagonalization with overlap
     ethr =  2.76E-05,  avg # of iterations =  1.9

     total cpu time spent up to now is       64.6 secs

     total energy              =     -15.82863265 Ry
     estimated scf accuracy    <       0.00040381 Ry

     iteration #  6     ecut=    50.00 Ry     beta= 0.20
     Davidson diagonalization with overlap
     c_bands:  1 eigenvalues not converged
     ethr =  5.05E-06,  avg # of iterations =  7.7

     total cpu time spent up to now is       78.0 secs

     total energy              =     -15.82913475 Ry
     estimated scf accuracy    <       0.00003373 Ry

     iteration #  7     ecut=    50.00 Ry     beta= 0.20
     Davidson diagonalization with overlap
     c_bands:  1 eigenvalues not converged
     ethr =  4.22E-07,  avg # of iterations =  9.1

     total cpu time spent up to now is       94.7 secs

     total energy              =     -15.82927468 Ry
     estimated scf accuracy    <       0.00002355 Ry

     iteration #  8     ecut=    50.00 Ry     beta= 0.20
     Davidson diagonalization with overlap
     c_bands:  1 eigenvalues not converged
     ethr =  2.94E-07,  avg # of iterations =  4.2

     total cpu time spent up to now is      100.7 secs

     End of self-consistent calculation

          k = 0.0000 0.0000 0.0000 (  1837 PWs)   bands (ev):

    -7.5174   5.3343   5.3343   5.3761

          k =-0.1000 0.1000-0.1000 (  1868 PWs)   bands (ev):

    -7.3951   3.5672   5.1166   5.1166

          k =-0.2000 0.2000-0.2000 (  1865 PWs)   bands (ev):

    -7.0354   1.5757   4.6891   4.6891

          k =-0.3000 0.3000-0.3000 (  1865 PWs)   bands (ev):

    -6.4699  -0.2190   4.3032   4.3032

          k =-0.4000 0.4000-0.4000 (  1859 PWs)   bands (ev):

    -5.8085  -1.6363   4.0532   4.0532

          k = 0.5000-0.5000 0.5000 (  1850 PWs)   bands (ev):

    -5.4387  -2.2607   3.9678   3.9678

          k = 0.0000 0.2000 0.0000 (  1852 PWs)   bands (ev):

    -7.3539   3.5280   4.7359   4.7359

          k =-0.1000 0.3000-0.1000 (  1860 PWs)   bands (ev):

    -7.0716   2.0135   4.2672   4.3193

          k =-0.2000 0.4000-0.2000 (  1857 PWs)   bands (ev):

    -6.5687   0.2789   3.8078   3.9064

          k =-0.3000 0.5000-0.3000 (  1867 PWs)   bands (ev):

    -5.9155  -1.2351   3.3576   3.7230

          k = 0.6000-0.4000 0.6000 (  1855 PWs)   bands (ev):

    -5.3749  -2.1775   3.0622   3.7343

          k = 0.5000-0.3000 0.5000 (  1860 PWs)   bands (ev):

    -5.5109  -1.9586   2.9586   3.9321

          k = 0.4000-0.2000 0.4000 (  1865 PWs)   bands (ev):

    -6.1437  -0.7659   3.0714   4.2868

          k = 0.3000-0.1000 0.3000 (  1870 PWs)   bands (ev):

    -6.7604   0.8335   3.4322   4.7317

          k = 0.2000 0.0000 0.2000 (  1863 PWs)   bands (ev):

    -7.1930   2.4674   4.1370   5.1044

          k = 0.0000 0.4000 0.0000 (  1864 PWs)   bands (ev):

    -6.8665   1.5772   3.7720   3.7720

          k =-0.1000 0.5000-0.1000 (  1862 PWs)   bands (ev):

    -6.4322   0.3659   3.1914   3.3945

          k =-0.2000 0.6000-0.2000 (  1875 PWs)   bands (ev):

    -5.8129  -0.9796   2.5095   3.2088

          k = 0.7000-0.3000 0.7000 (  1853 PWs)   bands (ev):

    -5.1737  -2.0500   1.9832   3.2365

          k = 0.6000-0.2000 0.6000 (  1855 PWs)   bands (ev):

    -5.0530  -2.2234   1.7089   3.4711

          k = 0.5000-0.1000 0.5000 (  1850 PWs)   bands (ev):

    -5.6149  -1.3475   1.7569   3.8769

          k = 0.4000 0.0000 0.4000 (  1861 PWs)   bands (ev):

    -6.2657  -0.1620   2.2736   4.3650

          k = 0.0000 0.6000 0.0000 (  1860 PWs)   bands (ev):

    -6.0655  -0.2877   2.9821   2.9821

          k =-0.1000 0.7000-0.1000 (  1844 PWs)   bands (ev):

    -5.4944  -1.2796   2.3800   2.7587

          k = 0.8000-0.2000 0.8000 (  1858 PWs)   bands (ev):

    -4.8159  -2.2322   1.6028   2.7547

          k = 0.7000-0.1000 0.7000 (  1847 PWs)   bands (ev):

    -4.4752  -2.6385   1.0924   2.9692

          k = 0.6000-0.0000 0.6000 (  1858 PWs)   bands (ev):

    -4.9562  -2.0746   1.0773   3.3714

          k = 0.0000 0.8000 0.0000 (  1868 PWs)   bands (ev):

    -4.9704  -2.0335   2.4853   2.4853

          k = 0.9000-0.1000 0.9000 (  1837 PWs)   bands (ev):

    -4.2903  -2.8542   1.9686   2.4299

          k = 0.8000 0.0000 0.8000 (  1840 PWs)   bands (ev):

    -3.9033  -3.2272   1.2867   2.5987

          k = 0.0000-1.0000 0.0000 (  1868 PWs)   bands (ev):

    -3.6118  -3.6118   2.3169   2.3169

          k =-0.2000 0.4000 0.0000 (  1868 PWs)   bands (ev):

    -6.7144   0.9476   3.1867   4.2184

          k =-0.3000 0.5000-0.1000 (  1863 PWs)   bands (ev):

    -6.1509  -0.4229   2.5174   3.8449

          k = 0.6000-0.4000 0.8000 (  1855 PWs)   bands (ev):

    -5.4848  -1.6822   2.1990   3.5064

          k = 0.5000-0.3000 0.7000 (  1842 PWs)   bands (ev):

    -5.1037  -2.2747   2.1065   3.3767

          k =-0.2000 0.6000 0.0000 (  1860 PWs)   bands (ev):

    -5.9318  -0.5958   2.4403   3.1304

          k = 0.7000-0.3000 0.9000 (  1854 PWs)   bands (ev):

    -5.2745  -1.6555   1.8114   2.8269

          k = 0.6000-0.2000 0.8000 (  1847 PWs)   bands (ev):

    -4.7147  -2.4190   1.3984   2.7728

          k = 0.5000-0.1000 0.7000 (  1849 PWs)   bands (ev):

    -4.8916  -2.1885   1.2838   3.0008

          k = 0.4000 0.0000 0.6000 (  1862 PWs)   bands (ev):

    -5.5457  -1.2936   1.6080   3.4251

          k = 0.8000-0.2000 1.0000 (  1844 PWs)   bands (ev):

    -4.8720  -2.1268   2.0250   2.3566

          k = 0.7000-0.1000 0.9000 (  1848 PWs)   bands (ev):

    -4.2082  -2.8761   1.4111   2.2670

          k = 0.6000 0.0000 0.8000 (  1850 PWs)   bands (ev):

    -4.2512  -2.8159   1.0387   2.5288

          k =-0.2000-1.0000 0.0000 (  1842 PWs)   bands (ev):

    -3.5805  -3.5805   1.9882   1.9882

          k = 0.6000-0.2000 1.0000 (  1850 PWs)   bands (ev):

    -4.6053  -2.4089   1.3444   2.3024

          k = 0.5000-0.1000 0.9000 (  1856 PWs)   bands (ev):

    -4.1519  -2.8968   1.2084   2.0682

          k =-0.4000-1.0000 0.0000 (  1852 PWs)   bands (ev):

    -3.5277  -3.5277   1.5648   1.5648

     highest occupied level (ev):     5.3761

!    total energy              =     -15.82929777 Ry
     estimated scf accuracy    <       0.00000165 Ry

     The total energy is the sum of the following terms:
     one-electron contribution =       3.63961676 Ry
     hartree contribution      =       1.21876429 Ry
     xc contribution           =      -4.65601126 Ry
     ewald contribution        =     -16.03166756 Ry

     convergence has been achieved in   8 iterations
     Writing meta-gga kinetic term

     Writing all to output data dir ./input_pw/Ge/5/pwscf.save/
     Writing meta-gga kinetic term
 
     init_run     :      4.76s CPU      9.67s WALL (       1 calls)
     electrons    :     46.50s CPU     90.97s WALL (       1 calls)

     Called by init_run:
     wfcinit      :      4.64s CPU      9.46s WALL (       1 calls)
     potinit      :      0.04s CPU      0.07s WALL (       1 calls)
     hinit0       :      0.07s CPU      0.09s WALL (       1 calls)

     Called by electrons:
     c_bands      :     40.73s CPU     79.88s WALL (       9 calls)
     sum_band     :      5.28s CPU     10.13s WALL (       9 calls)
     v_of_rho     :      0.31s CPU      0.56s WALL (       9 calls)
     mix_rho      :      0.21s CPU      0.44s WALL (       9 calls)

     Called by c_bands:
     init_us_2    :      0.23s CPU      0.48s WALL (     893 calls)
     init_us_2:cp :      0.23s CPU      0.45s WALL (     893 calls)
     cegterg      :     40.45s CPU     79.24s WALL (     423 calls)

     Called by *egterg:
     cdiaghg      :      0.21s CPU      0.37s WALL (    2366 calls)
     h_psi        :     43.91s CPU     86.58s WALL (    2460 calls)
     g_psi        :      0.04s CPU      0.07s WALL (    1990 calls)

     Called by h_psi:
     h_psi:calbec :      0.24s CPU      0.51s WALL (    2460 calls)
     vloc_psi     :     10.92s CPU     21.46s WALL (    2460 calls)
     add_vuspsi   :      0.17s CPU      0.30s WALL (    2460 calls)
     h_psi_meta   :     32.50s CPU     64.20s WALL (    2460 calls)

     General routines
     calbec       :      0.23s CPU      0.50s WALL (    2460 calls)
     fft          :      0.06s CPU      0.13s WALL (     107 calls)
     ffts         :      0.08s CPU      0.17s WALL (     135 calls)
     fftw         :     40.11s CPU     79.57s WALL (   72616 calls)
     interpolate  :      0.00s CPU      0.00s WALL (       9 calls)
 
     Parallel routines
 
     PWSCF        :     51.31s CPU   1m40.70s WALL

 
   This run was terminated on:  14:27:30   7Jul2023            

=------------------------------------------------------------------------------=
   JOB DONE.
=------------------------------------------------------------------------------=
