
     Program PWSCF v.7.0 starts on 14Mar2023 at 11:36:59 

     This program is part of the open-source Quantum ESPRESSO suite
     for quantum simulation of materials; please cite
         "P. Giannozzi et al., J. Phys.:Condens. Matter 21 395502 (2009);
         "P. Giannozzi et al., J. Phys.:Condens. Matter 29 465901 (2017);
         "P. Giannozzi et al., J. Chem. Phys. 152 154105 (2020);
          URL http://www.quantum-espresso.org", 
     in publications or presentations arising from this work. More details at
     http://www.quantum-espresso.org/quote

     Parallel version (MPI), running on     1 processors

     MPI processes distributed on     1 nodes
     27127 MiB available memory on the printing compute node when the environment starts
 
     Waiting for input...
     Reading input from standard input
Warning: card &CELL ignored
Warning: card / ignored

     Current dimensions of program PWSCF are:
     Max number of different atomic species (ntypx) = 10
     Max number of k-points (npk) =  40000
     Max angular momentum in pseudopotentials (lmaxx) =  4
     file Ge.SCAN.UPF2: wavefunction(s)  0D renormalized

     WARNING: the MGGA functional with ID    5 has been 
     read together with other dft terms, but it should 
     stand alone in order to work properly. The other 
     terms will be ignored.

     Subspace diagonalization in iterative solution of the eigenvalue problem:
     a serial algorithm will be used

 
     G-vector sticks info
     --------------------
     sticks:   dense  smooth     PW     G-vecs:    dense   smooth      PW
     Sum         817     817    253                15353    15353    2637
 
     Using Slab Decomposition
 


     bravais-lattice index     =            2
     lattice parameter (alat)  =      10.8636  a.u.
     unit-cell volume          =     320.5246 (a.u.)^3
     number of atoms/cell      =            2
     number of atomic types    =            1
     number of electrons       =         8.00
     number of Kohn-Sham states=            4
     kinetic-energy cutoff     =      50.0000  Ry
     charge density cutoff     =     200.0000  Ry
     scf convergence threshold =      1.0E-06
     mixing beta               =       0.0100
     number of iterations used =            8  local-TF  mixing
     Exchange-correlation= SLA  PW  SCAN SCAN
                           (   0   0   0   0   0 263 267)

     celldm(1)=  10.863600  celldm(2)=   0.000000  celldm(3)=   0.000000
     celldm(4)=   0.000000  celldm(5)=   0.000000  celldm(6)=   0.000000

     crystal axes: (cart. coord. in units of alat)
               a(1) = (  -0.500000   0.000000   0.500000 )  
               a(2) = (   0.000000   0.500000   0.500000 )  
               a(3) = (  -0.500000   0.500000   0.000000 )  

     reciprocal axes: (cart. coord. in units 2 pi/alat)
               b(1) = ( -1.000000 -1.000000  1.000000 )  
               b(2) = (  1.000000  1.000000  1.000000 )  
               b(3) = ( -1.000000  1.000000 -1.000000 )  


     PseudoPot. # 1 for Ge read from file:
     ~/Documents/TA/PWDFT.jl/pseudopotentials/scan_upf/Ge.SCAN.UPF2
     MD5 check sum: Not computed, couldn't open file
     Pseudo is Norm-conserving, Zval =  4.0
     Generated by new atomic code, or converted to UPF format
     Using radial grid of 1557 points,  2 beta functions with: 
                l(1) =   0
                l(2) =   1

     atomic species   valence    mass     pseudopotential
        Ge             4.00    72.64000     Ge( 1.00)

     48 Sym. Ops., with inversion, found (24 have fractional translation)



   Cartesian axes

     site n.     atom                  positions (alat units)
         1           Ge  tau(   1) = (   0.0000000   0.0000000   0.0000000  )
         2           Ge  tau(   2) = (   0.2500000   0.2500000   0.2500000  )

     number of k points=    47
                       cart. coord. in units 2pi/alat
        k(    1) = (   0.0000000   0.0000000   0.0000000), wk =   0.0020000
        k(    2) = (  -0.1000000   0.1000000  -0.1000000), wk =   0.0160000
        k(    3) = (  -0.2000000   0.2000000  -0.2000000), wk =   0.0160000
        k(    4) = (  -0.3000000   0.3000000  -0.3000000), wk =   0.0160000
        k(    5) = (  -0.4000000   0.4000000  -0.4000000), wk =   0.0160000
        k(    6) = (   0.5000000  -0.5000000   0.5000000), wk =   0.0080000
        k(    7) = (   0.0000000   0.2000000   0.0000000), wk =   0.0120000
        k(    8) = (  -0.1000000   0.3000000  -0.1000000), wk =   0.0480000
        k(    9) = (  -0.2000000   0.4000000  -0.2000000), wk =   0.0480000
        k(   10) = (  -0.3000000   0.5000000  -0.3000000), wk =   0.0480000
        k(   11) = (   0.6000000  -0.4000000   0.6000000), wk =   0.0480000
        k(   12) = (   0.5000000  -0.3000000   0.5000000), wk =   0.0480000
        k(   13) = (   0.4000000  -0.2000000   0.4000000), wk =   0.0480000
        k(   14) = (   0.3000000  -0.1000000   0.3000000), wk =   0.0480000
        k(   15) = (   0.2000000   0.0000000   0.2000000), wk =   0.0240000
        k(   16) = (   0.0000000   0.4000000   0.0000000), wk =   0.0120000
        k(   17) = (  -0.1000000   0.5000000  -0.1000000), wk =   0.0480000
        k(   18) = (  -0.2000000   0.6000000  -0.2000000), wk =   0.0480000
        k(   19) = (   0.7000000  -0.3000000   0.7000000), wk =   0.0480000
        k(   20) = (   0.6000000  -0.2000000   0.6000000), wk =   0.0480000
        k(   21) = (   0.5000000  -0.1000000   0.5000000), wk =   0.0480000
        k(   22) = (   0.4000000   0.0000000   0.4000000), wk =   0.0240000
        k(   23) = (   0.0000000   0.6000000   0.0000000), wk =   0.0120000
        k(   24) = (  -0.1000000   0.7000000  -0.1000000), wk =   0.0480000
        k(   25) = (   0.8000000  -0.2000000   0.8000000), wk =   0.0480000
        k(   26) = (   0.7000000  -0.1000000   0.7000000), wk =   0.0480000
        k(   27) = (   0.6000000  -0.0000000   0.6000000), wk =   0.0240000
        k(   28) = (   0.0000000   0.8000000   0.0000000), wk =   0.0120000
        k(   29) = (   0.9000000  -0.1000000   0.9000000), wk =   0.0480000
        k(   30) = (   0.8000000   0.0000000   0.8000000), wk =   0.0240000
        k(   31) = (   0.0000000  -1.0000000   0.0000000), wk =   0.0060000
        k(   32) = (  -0.2000000   0.4000000   0.0000000), wk =   0.0480000
        k(   33) = (  -0.3000000   0.5000000  -0.1000000), wk =   0.0960000
        k(   34) = (   0.6000000  -0.4000000   0.8000000), wk =   0.0960000
        k(   35) = (   0.5000000  -0.3000000   0.7000000), wk =   0.0480000
        k(   36) = (  -0.2000000   0.6000000   0.0000000), wk =   0.0480000
        k(   37) = (   0.7000000  -0.3000000   0.9000000), wk =   0.0960000
        k(   38) = (   0.6000000  -0.2000000   0.8000000), wk =   0.0960000
        k(   39) = (   0.5000000  -0.1000000   0.7000000), wk =   0.0960000
        k(   40) = (   0.4000000   0.0000000   0.6000000), wk =   0.0480000
        k(   41) = (   0.8000000  -0.2000000   1.0000000), wk =   0.0480000
        k(   42) = (   0.7000000  -0.1000000   0.9000000), wk =   0.0960000
        k(   43) = (   0.6000000   0.0000000   0.8000000), wk =   0.0480000
        k(   44) = (  -0.2000000  -1.0000000   0.0000000), wk =   0.0240000
        k(   45) = (   0.6000000  -0.2000000   1.0000000), wk =   0.0480000
        k(   46) = (   0.5000000  -0.1000000   0.9000000), wk =   0.0480000
        k(   47) = (  -0.4000000  -1.0000000   0.0000000), wk =   0.0240000

     Dense  grid:    15353 G-vectors     FFT dimensions: (  36,  36,  36)

     Estimated max dynamical RAM per process >      28.67 MB

     WARNING: libxc functional with ID  263 depends
      on external parameters: check the user_guide of
      QE if you need to modify them or to check their
      default values.

     Initial potential from superposition of free atoms

     starting charge       7.9987, renormalised to       8.0000
     Starting wfcs are   18 randomized atomic wfcs

     total cpu time spent up to now is        7.6 secs

     Self-consistent Calculation

     iteration #  1     ecut=    50.00 Ry     beta= 0.01
     Davidson diagonalization with overlap
     ethr =  1.00E-02,  avg # of iterations =  1.9

     Threshold (ethr) on eigenvalues was too large:
     Diagonalizing with lowered threshold

     Davidson diagonalization with overlap
     ethr =  3.53E-04,  avg # of iterations =  5.9

     total cpu time spent up to now is       25.7 secs

     total energy              =     -15.74296096 Ry
     estimated scf accuracy    <       0.03554004 Ry

     iteration #  2     ecut=    50.00 Ry     beta= 0.01
     Davidson diagonalization with overlap
     ethr =  4.44E-04,  avg # of iterations =  1.0

     total cpu time spent up to now is       31.0 secs

     total energy              =     -15.74706978 Ry
     estimated scf accuracy    <       0.03561838 Ry

     iteration #  3     ecut=    50.00 Ry     beta= 0.01
     Davidson diagonalization with overlap
     ethr =  4.44E-04,  avg # of iterations =  1.0

     total cpu time spent up to now is       36.3 secs

     total energy              =     -15.82296500 Ry
     estimated scf accuracy    <       0.04044319 Ry

     iteration #  4     ecut=    50.00 Ry     beta= 0.01
     Davidson diagonalization with overlap
     ethr =  4.44E-04,  avg # of iterations =  1.4

     total cpu time spent up to now is       41.8 secs

     total energy              =     -15.82523354 Ry
     estimated scf accuracy    <       0.00385804 Ry

     iteration #  5     ecut=    50.00 Ry     beta= 0.01
     Davidson diagonalization with overlap
     ethr =  4.82E-05,  avg # of iterations =  5.7

     total cpu time spent up to now is       50.1 secs

     total energy              =     -15.82806583 Ry
     estimated scf accuracy    <       0.00427530 Ry

     iteration #  6     ecut=    50.00 Ry     beta= 0.01
     Davidson diagonalization with overlap
     ethr =  4.82E-05,  avg # of iterations =  1.2

     total cpu time spent up to now is       54.7 secs

     total energy              =     -15.82710170 Ry
     estimated scf accuracy    <       0.00417394 Ry

     iteration #  7     ecut=    50.00 Ry     beta= 0.01
     Davidson diagonalization with overlap
     ethr =  4.82E-05,  avg # of iterations =  1.4

     total cpu time spent up to now is       60.0 secs

     total energy              =     -15.82727308 Ry
     estimated scf accuracy    <       0.00045422 Ry

     iteration #  8     ecut=    50.00 Ry     beta= 0.01
     Davidson diagonalization with overlap
     ethr =  5.68E-06,  avg # of iterations =  9.1

     total cpu time spent up to now is       72.4 secs

     total energy              =     -15.82806247 Ry
     estimated scf accuracy    <       0.00014392 Ry

     iteration #  9     ecut=    50.00 Ry     beta= 0.01
     Davidson diagonalization with overlap
     ethr =  1.80E-06,  avg # of iterations =  5.3

     total cpu time spent up to now is       79.7 secs

     total energy              =     -15.82816529 Ry
     estimated scf accuracy    <       0.00015747 Ry

     iteration # 10     ecut=    50.00 Ry     beta= 0.01
     Davidson diagonalization with overlap
     ethr =  1.80E-06,  avg # of iterations =  1.1

     total cpu time spent up to now is       83.8 secs

     total energy              =     -15.82812653 Ry
     estimated scf accuracy    <       0.00014212 Ry

     iteration # 11     ecut=    50.00 Ry     beta= 0.01
     Davidson diagonalization with overlap
     ethr =  1.78E-06,  avg # of iterations =  3.5

     total cpu time spent up to now is       89.9 secs

     total energy              =     -15.82818075 Ry
     estimated scf accuracy    <       0.00000854 Ry

     iteration # 12     ecut=    50.00 Ry     beta= 0.01
     Davidson diagonalization with overlap
     ethr =  1.07E-07,  avg # of iterations = 10.9

     total cpu time spent up to now is      102.4 secs

     total energy              =     -15.82821203 Ry
     estimated scf accuracy    <       0.00000819 Ry

     iteration # 13     ecut=    50.00 Ry     beta= 0.01
     Davidson diagonalization with overlap
     ethr =  1.02E-07,  avg # of iterations =  1.4

     total cpu time spent up to now is      106.2 secs

     total energy              =     -15.82820908 Ry
     estimated scf accuracy    <       0.00000731 Ry

     iteration # 14     ecut=    50.00 Ry     beta= 0.01
     Davidson diagonalization with overlap
     ethr =  9.13E-08,  avg # of iterations =  2.3

     total cpu time spent up to now is      109.9 secs

     total energy              =     -15.82822097 Ry
     estimated scf accuracy    <       0.00001438 Ry

     iteration # 15     ecut=    50.00 Ry     beta= 0.01
     Davidson diagonalization with overlap
     ethr =  9.13E-08,  avg # of iterations =  1.9

     total cpu time spent up to now is      113.5 secs

     total energy              =     -15.82821727 Ry
     estimated scf accuracy    <       0.00000474 Ry

     iteration # 16     ecut=    50.00 Ry     beta= 0.01
     Davidson diagonalization with overlap
     ethr =  5.92E-08,  avg # of iterations =  4.6

     total cpu time spent up to now is      118.7 secs

     total energy              =     -15.82821916 Ry
     estimated scf accuracy    <       0.00000179 Ry

     iteration # 17     ecut=    50.00 Ry     beta= 0.01
     Davidson diagonalization with overlap
     ethr =  2.24E-08,  avg # of iterations =  4.6

     total cpu time spent up to now is      124.2 secs

     total energy              =     -15.82822075 Ry
     estimated scf accuracy    <       0.00000159 Ry

     iteration # 18     ecut=    50.00 Ry     beta= 0.01
     Davidson diagonalization with overlap
     ethr =  1.99E-08,  avg # of iterations =  1.0

     total cpu time spent up to now is      127.9 secs

     total energy              =     -15.82822158 Ry
     estimated scf accuracy    <       0.00000153 Ry

     iteration # 19     ecut=    50.00 Ry     beta= 0.01
     Davidson diagonalization with overlap
     ethr =  1.92E-08,  avg # of iterations =  1.1

     total cpu time spent up to now is      131.0 secs

     total energy              =     -15.82822143 Ry
     estimated scf accuracy    <       0.00000119 Ry

     iteration # 20     ecut=    50.00 Ry     beta= 0.01
     Davidson diagonalization with overlap
     ethr =  1.48E-08,  avg # of iterations =  1.0

     total cpu time spent up to now is      133.8 secs

     End of self-consistent calculation

          k = 0.0000 0.0000 0.0000 (  1917 PWs)   bands (ev):

    -7.6099   5.0290   5.0290   5.1606

          k =-0.1000 0.1000-0.1000 (  1901 PWs)   bands (ev):

    -7.4909   3.1978   4.8197   4.8197

          k =-0.2000 0.2000-0.2000 (  1922 PWs)   bands (ev):

    -7.1415   1.2696   4.4063   4.4063

          k =-0.3000 0.3000-0.3000 (  1910 PWs)   bands (ev):

    -6.5932  -0.4690   4.0313   4.0313

          k =-0.4000 0.4000-0.4000 (  1910 PWs)   bands (ev):

    -5.9551  -1.8400   3.7878   3.7878

          k = 0.5000-0.5000 0.5000 (  1916 PWs)   bands (ev):

    -5.6015  -2.4406   3.7046   3.7046

          k = 0.0000 0.2000 0.0000 (  1913 PWs)   bands (ev):

    -7.4508   3.1301   4.4550   4.4550

          k =-0.1000 0.3000-0.1000 (  1922 PWs)   bands (ev):

    -7.1765   1.6746   4.0018   4.0398

          k =-0.2000 0.4000-0.2000 (  1921 PWs)   bands (ev):

    -6.6884   0.0019   3.5363   3.6508

          k =-0.3000 0.5000-0.3000 (  1912 PWs)   bands (ev):

    -6.0568  -1.4608   3.0964   3.4713

          k = 0.6000-0.4000 0.6000 (  1912 PWs)   bands (ev):

    -5.5381  -2.3679   2.8100   3.4805

          k = 0.5000-0.3000 0.5000 (  1918 PWs)   bands (ev):

    -5.6682  -2.1579   2.7129   3.6709

          k = 0.4000-0.2000 0.4000 (  1917 PWs)   bands (ev):

    -6.2772  -1.0077   2.8286   4.0139

          k = 0.3000-0.1000 0.3000 (  1924 PWs)   bands (ev):

    -6.8744   0.5374   3.1881   4.4442

          k = 0.2000 0.0000 0.2000 (  1913 PWs)   bands (ev):

    -7.2945   2.1181   3.8784   4.8048

          k = 0.0000 0.4000 0.0000 (  1924 PWs)   bands (ev):

    -6.9769   1.2265   3.5231   3.5231

          k =-0.1000 0.5000-0.1000 (  1930 PWs)   bands (ev):

    -6.5552   0.0567   2.9555   3.1565

          k =-0.2000 0.6000-0.2000 (  1930 PWs)   bands (ev):

    -5.9551  -1.2396   2.2885   2.9751

          k = 0.7000-0.3000 0.7000 (  1918 PWs)   bands (ev):

    -5.3396  -2.2689   1.7755   3.0007

          k = 0.6000-0.2000 0.6000 (  1906 PWs)   bands (ev):

    -5.2247  -2.4343   1.5119   3.2268

          k = 0.5000-0.1000 0.5000 (  1918 PWs)   bands (ev):

    -5.7649  -1.5927   1.5662   3.6187

          k = 0.4000 0.0000 0.4000 (  1917 PWs)   bands (ev):

    -6.3945  -0.4450   2.0737   4.0900

          k = 0.0000 0.6000 0.0000 (  1932 PWs)   bands (ev):

    -6.1985  -0.5879   2.7566   2.7566

          k =-0.1000 0.7000-0.1000 (  1924 PWs)   bands (ev):

    -5.6443  -1.5500   2.1749   2.5393

          k = 0.8000-0.2000 0.8000 (  1903 PWs)   bands (ev):

    -4.9885  -2.4714   1.4244   2.5347

          k = 0.7000-0.1000 0.7000 (  1908 PWs)   bands (ev):

    -4.6632  -2.8606   0.9324   2.7418

          k = 0.6000-0.0000 0.6000 (  1907 PWs)   bands (ev):

    -5.1277  -2.3128   0.9184   3.1307

          k = 0.0000 0.8000 0.0000 (  1936 PWs)   bands (ev):

    -5.1347  -2.2836   2.2739   2.2739

          k = 0.9000-0.1000 0.9000 (  1914 PWs)   bands (ev):

    -4.4754  -3.0808   1.7779   2.2198

          k = 0.8000 0.0000 0.8000 (  1908 PWs)   bands (ev):

    -4.1061  -3.4396   1.1234   2.3832

          k = 0.0000-1.0000 0.0000 (  1924 PWs)   bands (ev):

    -3.8157  -3.8157   2.1102   2.1102

          k =-0.2000 0.4000 0.0000 (  1925 PWs)   bands (ev):

    -6.8295   0.6304   2.9581   3.9459

          k =-0.3000 0.5000-0.1000 (  1916 PWs)   bands (ev):

    -6.2831  -0.6948   2.3018   3.5867

          k = 0.6000-0.4000 0.8000 (  1921 PWs)   bands (ev):

    -5.6401  -1.9077   1.9830   3.2619

          k = 0.5000-0.3000 0.7000 (  1912 PWs)   bands (ev):

    -5.2750  -2.4760   1.8893   3.1376

          k =-0.2000 0.6000 0.0000 (  1922 PWs)   bands (ev):

    -6.0695  -0.8816   2.2340   2.8994

          k = 0.7000-0.3000 0.9000 (  1914 PWs)   bands (ev):

    -5.4333  -1.9078   1.6225   2.6082

          k = 0.6000-0.2000 0.8000 (  1902 PWs)   bands (ev):

    -4.8951  -2.6421   1.2208   2.5562

          k = 0.5000-0.1000 0.7000 (  1909 PWs)   bands (ev):

    -5.0655  -2.4200   1.1128   2.7756

          k = 0.4000 0.0000 0.6000 (  1910 PWs)   bands (ev):

    -5.6968  -1.5533   1.4296   3.1839

          k = 0.8000-0.2000 1.0000 (  1910 PWs)   bands (ev):

    -5.0407  -2.3746   1.8317   2.1539

          k = 0.7000-0.1000 0.9000 (  1904 PWs)   bands (ev):

    -4.3996  -3.1019   1.2425   2.0671

          k = 0.6000 0.0000 0.8000 (  1903 PWs)   bands (ev):

    -4.4451  -3.0399   0.8840   2.3198

          k =-0.2000-1.0000 0.0000 (  1904 PWs)   bands (ev):

    -3.7872  -3.7872   1.7970   1.7970

          k = 0.6000-0.2000 1.0000 (  1906 PWs)   bands (ev):

    -4.7854  -2.6472   1.1768   2.1043

          k = 0.5000-0.1000 0.9000 (  1910 PWs)   bands (ev):

    -4.3480  -3.1210   1.0465   1.8787

          k =-0.4000-1.0000 0.0000 (  1912 PWs)   bands (ev):

    -3.7392  -3.7392   1.3925   1.3925

     highest occupied level (ev):     5.1606

!    total energy              =     -15.82822129 Ry
     estimated scf accuracy    <       0.00000060 Ry

     The total energy is the sum of the following terms:
     one-electron contribution =       3.41750563 Ry
     hartree contribution      =       1.24745404 Ry
     xc contribution           =      -4.62573943 Ry
     ewald contribution        =     -15.86744153 Ry

     convergence has been achieved in  20 iterations
     Writing meta-gga kinetic term

     Writing all to output data dir ./input_pw/Ge/5/pwscf.save/
     Writing meta-gga kinetic term
 
     init_run     :      4.46s CPU      7.60s WALL (       1 calls)
     electrons    :     86.17s CPU    126.18s WALL (       1 calls)

     Called by init_run:
     wfcinit      :      4.35s CPU      7.32s WALL (       1 calls)
     potinit      :      0.04s CPU      0.11s WALL (       1 calls)
     hinit0       :      0.06s CPU      0.14s WALL (       1 calls)

     Called by electrons:
     c_bands      :     72.67s CPU    106.24s WALL (      21 calls)
     sum_band     :     12.13s CPU     17.93s WALL (      21 calls)
     v_of_rho     :      0.72s CPU      1.10s WALL (      21 calls)
     mix_rho      :      0.65s CPU      0.95s WALL (      21 calls)

     Called by c_bands:
     init_us_2    :      0.52s CPU      0.72s WALL (    2021 calls)
     init_us_2:cp :      0.51s CPU      0.71s WALL (    2021 calls)
     cegterg      :     72.03s CPU    105.26s WALL (     987 calls)

     Called by *egterg:
     cdiaghg      :      0.34s CPU      0.53s WALL (    4097 calls)
     h_psi        :     74.60s CPU    109.95s WALL (    4191 calls)
     g_psi        :      0.07s CPU      0.09s WALL (    3157 calls)

     Called by h_psi:
     h_psi:calbec :      0.39s CPU      0.53s WALL (    4191 calls)
     vloc_psi     :     18.55s CPU     27.44s WALL (    4191 calls)
     add_vuspsi   :      0.26s CPU      0.36s WALL (    4191 calls)
     h_psi_meta   :     55.27s CPU     81.45s WALL (    4191 calls)

     General routines
     calbec       :      0.37s CPU      0.50s WALL (    4191 calls)
     fft          :      0.14s CPU      0.28s WALL (     251 calls)
     ffts         :      0.22s CPU      0.37s WALL (     361 calls)
     fftw         :     70.97s CPU    105.09s WALL (  127816 calls)
     interpolate  :      0.00s CPU      0.00s WALL (      21 calls)
 
     Parallel routines
 
     PWSCF        :   1m30.67s CPU   2m13.84s WALL

 
   This run was terminated on:  11:39:13  14Mar2023            

=------------------------------------------------------------------------------=
   JOB DONE.
=------------------------------------------------------------------------------=
