
     Program PWSCF v.7.0 starts on 29Mar2023 at 10:21:34 

     This program is part of the open-source Quantum ESPRESSO suite
     for quantum simulation of materials; please cite
         "P. Giannozzi et al., J. Phys.:Condens. Matter 21 395502 (2009);
         "P. Giannozzi et al., J. Phys.:Condens. Matter 29 465901 (2017);
         "P. Giannozzi et al., J. Chem. Phys. 152 154105 (2020);
          URL http://www.quantum-espresso.org", 
     in publications or presentations arising from this work. More details at
     http://www.quantum-espresso.org/quote

     Parallel version (MPI), running on     1 processors

     MPI processes distributed on     1 nodes
     24053 MiB available memory on the printing compute node when the environment starts
 
     Waiting for input...
     Reading input from standard input
Warning: card &CELL ignored
Warning: card / ignored

     Current dimensions of program PWSCF are:
     Max number of different atomic species (ntypx) = 10
     Max number of k-points (npk) =  40000
     Max angular momentum in pseudopotentials (lmaxx) =  4
     file Cl.SCAN.UPF2: wavefunction(s)  0D renormalized

     WARNING: the MGGA functional with ID    5 has been 
     read together with other dft terms, but it should 
     stand alone in order to work properly. The other 
     terms will be ignored.

     WARNING: the MGGA functional with ID    5 has been 
     read together with other dft terms, but it should 
     stand alone in order to work properly. The other 
     terms will be ignored.

     Subspace diagonalization in iterative solution of the eigenvalue problem:
     a serial algorithm will be used

 
     G-vector sticks info
     --------------------
     sticks:   dense  smooth     PW     G-vecs:    dense   smooth      PW
     Sum         439     439    151                 6183     6183    1139
 
     Using Slab Decomposition
 


     bravais-lattice index     =            2
     lattice parameter (alat)  =       8.0360  a.u.
     unit-cell volume          =     129.7358 (a.u.)^3
     number of atoms/cell      =            2
     number of atomic types    =            2
     number of electrons       =         8.00
     number of Kohn-Sham states=            4
     kinetic-energy cutoff     =      50.0000  Ry
     charge density cutoff     =     200.0000  Ry
     scf convergence threshold =      1.0E-06
     mixing beta               =       0.0100
     number of iterations used =            8  local-TF  mixing
     Exchange-correlation= SLA  PW   SCAN SCAN
                           (   0   0   0   0   0 263 267)

     celldm(1)=   8.036000  celldm(2)=   0.000000  celldm(3)=   0.000000
     celldm(4)=   0.000000  celldm(5)=   0.000000  celldm(6)=   0.000000

     crystal axes: (cart. coord. in units of alat)
               a(1) = (  -0.500000   0.000000   0.500000 )  
               a(2) = (   0.000000   0.500000   0.500000 )  
               a(3) = (  -0.500000   0.500000   0.000000 )  

     reciprocal axes: (cart. coord. in units 2 pi/alat)
               b(1) = ( -1.000000 -1.000000  1.000000 )  
               b(2) = (  1.000000  1.000000  1.000000 )  
               b(3) = ( -1.000000  1.000000 -1.000000 )  


     PseudoPot. # 1 for Li read from file:
     ~/Documents/TA/PWDFT.jl/pseudopotentials/scan_upf/Li.SCAN.UPF2
     MD5 check sum: Not computed, couldn't open file
     Pseudo is Norm-conserving, Zval =  1.0
     Generated by new atomic code, or converted to UPF format
     Using radial grid of 1321 points,  1 beta functions with: 
                l(1) =   0

     PseudoPot. # 2 for Cl read from file:
     ~/Documents/TA/PWDFT.jl/pseudopotentials/scan_upf/Cl.SCAN.UPF2
     MD5 check sum: Not computed, couldn't open file
     Pseudo is Norm-conserving, Zval =  7.0
     Generated by new atomic code, or converted to UPF format
     Using radial grid of 1493 points,  2 beta functions with: 
                l(1) =   0
                l(2) =   1

     atomic species   valence    mass     pseudopotential
        Li             1.00     6.94100     Li( 1.00)
        Cl             7.00    35.45300     Cl( 1.00)

     48 Sym. Ops., with inversion, found



   Cartesian axes

     site n.     atom                  positions (alat units)
         1           Li  tau(   1) = (   0.0000000   0.0000000   0.0000000  )
         2           Cl  tau(   2) = (   0.5000000   0.5000000   0.5000000  )

     number of k points=    47
                       cart. coord. in units 2pi/alat
        k(    1) = (   0.0000000   0.0000000   0.0000000), wk =   0.0020000
        k(    2) = (  -0.1000000   0.1000000  -0.1000000), wk =   0.0160000
        k(    3) = (  -0.2000000   0.2000000  -0.2000000), wk =   0.0160000
        k(    4) = (  -0.3000000   0.3000000  -0.3000000), wk =   0.0160000
        k(    5) = (  -0.4000000   0.4000000  -0.4000000), wk =   0.0160000
        k(    6) = (   0.5000000  -0.5000000   0.5000000), wk =   0.0080000
        k(    7) = (   0.0000000   0.2000000   0.0000000), wk =   0.0120000
        k(    8) = (  -0.1000000   0.3000000  -0.1000000), wk =   0.0480000
        k(    9) = (  -0.2000000   0.4000000  -0.2000000), wk =   0.0480000
        k(   10) = (  -0.3000000   0.5000000  -0.3000000), wk =   0.0480000
        k(   11) = (   0.6000000  -0.4000000   0.6000000), wk =   0.0480000
        k(   12) = (   0.5000000  -0.3000000   0.5000000), wk =   0.0480000
        k(   13) = (   0.4000000  -0.2000000   0.4000000), wk =   0.0480000
        k(   14) = (   0.3000000  -0.1000000   0.3000000), wk =   0.0480000
        k(   15) = (   0.2000000   0.0000000   0.2000000), wk =   0.0240000
        k(   16) = (   0.0000000   0.4000000   0.0000000), wk =   0.0120000
        k(   17) = (  -0.1000000   0.5000000  -0.1000000), wk =   0.0480000
        k(   18) = (  -0.2000000   0.6000000  -0.2000000), wk =   0.0480000
        k(   19) = (   0.7000000  -0.3000000   0.7000000), wk =   0.0480000
        k(   20) = (   0.6000000  -0.2000000   0.6000000), wk =   0.0480000
        k(   21) = (   0.5000000  -0.1000000   0.5000000), wk =   0.0480000
        k(   22) = (   0.4000000   0.0000000   0.4000000), wk =   0.0240000
        k(   23) = (   0.0000000   0.6000000   0.0000000), wk =   0.0120000
        k(   24) = (  -0.1000000   0.7000000  -0.1000000), wk =   0.0480000
        k(   25) = (   0.8000000  -0.2000000   0.8000000), wk =   0.0480000
        k(   26) = (   0.7000000  -0.1000000   0.7000000), wk =   0.0480000
        k(   27) = (   0.6000000  -0.0000000   0.6000000), wk =   0.0240000
        k(   28) = (   0.0000000   0.8000000   0.0000000), wk =   0.0120000
        k(   29) = (   0.9000000  -0.1000000   0.9000000), wk =   0.0480000
        k(   30) = (   0.8000000   0.0000000   0.8000000), wk =   0.0240000
        k(   31) = (   0.0000000  -1.0000000   0.0000000), wk =   0.0060000
        k(   32) = (  -0.2000000   0.4000000   0.0000000), wk =   0.0480000
        k(   33) = (  -0.3000000   0.5000000  -0.1000000), wk =   0.0960000
        k(   34) = (   0.6000000  -0.4000000   0.8000000), wk =   0.0960000
        k(   35) = (   0.5000000  -0.3000000   0.7000000), wk =   0.0480000
        k(   36) = (  -0.2000000   0.6000000   0.0000000), wk =   0.0480000
        k(   37) = (   0.7000000  -0.3000000   0.9000000), wk =   0.0960000
        k(   38) = (   0.6000000  -0.2000000   0.8000000), wk =   0.0960000
        k(   39) = (   0.5000000  -0.1000000   0.7000000), wk =   0.0960000
        k(   40) = (   0.4000000   0.0000000   0.6000000), wk =   0.0480000
        k(   41) = (   0.8000000  -0.2000000   1.0000000), wk =   0.0480000
        k(   42) = (   0.7000000  -0.1000000   0.9000000), wk =   0.0960000
        k(   43) = (   0.6000000   0.0000000   0.8000000), wk =   0.0480000
        k(   44) = (  -0.2000000  -1.0000000   0.0000000), wk =   0.0240000
        k(   45) = (   0.6000000  -0.2000000   1.0000000), wk =   0.0480000
        k(   46) = (   0.5000000  -0.1000000   0.9000000), wk =   0.0480000
        k(   47) = (  -0.4000000  -1.0000000   0.0000000), wk =   0.0240000

     Dense  grid:     6183 G-vectors     FFT dimensions: (  25,  25,  25)

     Estimated max dynamical RAM per process >      11.51 MB

     WARNING: libxc functional with ID  263 depends
      on external parameters: check the user_guide of
      QE if you need to modify them or to check their
      default values.

     Initial potential from superposition of free atoms

     starting charge       7.9953, renormalised to       8.0000
     Starting wfcs are   13 randomized atomic wfcs

     total cpu time spent up to now is        2.3 secs

     Self-consistent Calculation

     iteration #  1     ecut=    50.00 Ry     beta= 0.01
     Davidson diagonalization with overlap
     ethr =  1.00E-02,  avg # of iterations =  1.4

     total cpu time spent up to now is        3.8 secs

     total energy              =     -30.48918909 Ry
     estimated scf accuracy    <       0.37323748 Ry

     iteration #  2     ecut=    50.00 Ry     beta= 0.01
     Davidson diagonalization with overlap
     ethr =  4.67E-03,  avg # of iterations =  1.0

     total cpu time spent up to now is        5.3 secs

     total energy              =     -30.52385490 Ry
     estimated scf accuracy    <       0.35468155 Ry

     iteration #  3     ecut=    50.00 Ry     beta= 0.01
     Davidson diagonalization with overlap
     ethr =  4.43E-03,  avg # of iterations =  1.0

     total cpu time spent up to now is        6.8 secs

     total energy              =     -30.58889303 Ry
     estimated scf accuracy    <       0.27777024 Ry

     iteration #  4     ecut=    50.00 Ry     beta= 0.01
     Davidson diagonalization with overlap
     ethr =  3.47E-03,  avg # of iterations =  1.0

     total cpu time spent up to now is        8.2 secs

     total energy              =     -30.59093744 Ry
     estimated scf accuracy    <       0.00313788 Ry

     iteration #  5     ecut=    50.00 Ry     beta= 0.01
     Davidson diagonalization with overlap
     ethr =  3.92E-05,  avg # of iterations =  1.6

     total cpu time spent up to now is        9.8 secs

     total energy              =     -30.59108238 Ry
     estimated scf accuracy    <       0.00353248 Ry

     iteration #  6     ecut=    50.00 Ry     beta= 0.01
     Davidson diagonalization with overlap
     ethr =  3.92E-05,  avg # of iterations =  1.0

     total cpu time spent up to now is       11.2 secs

     total energy              =     -30.59105082 Ry
     estimated scf accuracy    <       0.00355610 Ry

     iteration #  7     ecut=    50.00 Ry     beta= 0.01
     Davidson diagonalization with overlap
     ethr =  3.92E-05,  avg # of iterations =  1.0

     total cpu time spent up to now is       12.7 secs

     total energy              =     -30.58993226 Ry
     estimated scf accuracy    <       0.00325590 Ry

     iteration #  8     ecut=    50.00 Ry     beta= 0.01
     Davidson diagonalization with overlap
     ethr =  3.92E-05,  avg # of iterations =  2.0

     total cpu time spent up to now is       14.7 secs

     total energy              =     -30.59066791 Ry
     estimated scf accuracy    <       0.00133967 Ry

     iteration #  9     ecut=    50.00 Ry     beta= 0.01
     Davidson diagonalization with overlap
     ethr =  1.67E-05,  avg # of iterations =  1.0

     total cpu time spent up to now is       16.1 secs

     total energy              =     -30.59056340 Ry
     estimated scf accuracy    <       0.00126129 Ry

     iteration # 10     ecut=    50.00 Ry     beta= 0.01
     Davidson diagonalization with overlap
     ethr =  1.58E-05,  avg # of iterations =  1.0

     total cpu time spent up to now is       17.6 secs

     total energy              =     -30.59056812 Ry
     estimated scf accuracy    <       0.00028713 Ry

     iteration # 11     ecut=    50.00 Ry     beta= 0.01
     Davidson diagonalization with overlap
     ethr =  3.59E-06,  avg # of iterations =  1.0

     total cpu time spent up to now is       18.8 secs

     total energy              =     -30.59057736 Ry
     estimated scf accuracy    <       0.00001417 Ry

     iteration # 12     ecut=    50.00 Ry     beta= 0.01
     Davidson diagonalization with overlap
     ethr =  1.77E-07,  avg # of iterations =  1.0

     total cpu time spent up to now is       20.2 secs

     total energy              =     -30.59057717 Ry
     estimated scf accuracy    <       0.00000578 Ry

     iteration # 13     ecut=    50.00 Ry     beta= 0.01
     Davidson diagonalization with overlap
     ethr =  7.22E-08,  avg # of iterations =  2.0

     total cpu time spent up to now is       22.2 secs

     total energy              =     -30.59057918 Ry
     estimated scf accuracy    <       0.00002898 Ry

     iteration # 14     ecut=    50.00 Ry     beta= 0.01
     Davidson diagonalization with overlap
     ethr =  7.22E-08,  avg # of iterations =  2.0

     total cpu time spent up to now is       23.8 secs

     End of self-consistent calculation

          k = 0.0000 0.0000 0.0000 (   749 PWs)   bands (ev):

    -9.5262   7.6831   7.6831   7.6831

          k =-0.1000 0.1000-0.1000 (   773 PWs)   bands (ev):

    -9.3883   6.9731   7.6077   7.6077

          k =-0.2000 0.2000-0.2000 (   794 PWs)   bands (ev):

    -8.9972   5.3237   7.4266   7.4266

          k =-0.3000 0.3000-0.3000 (   769 PWs)   bands (ev):

    -8.4357   3.5051   7.2309   7.2309

          k =-0.4000 0.4000-0.4000 (   769 PWs)   bands (ev):

    -7.8900   2.0930   7.0919   7.0919

          k = 0.5000-0.5000 0.5000 (   778 PWs)   bands (ev):

    -7.6501   1.5482   7.0428   7.0428

          k = 0.0000 0.2000 0.0000 (   773 PWs)   bands (ev):

    -9.3406   7.2137   7.3245   7.3245

          k =-0.1000 0.3000-0.1000 (   785 PWs)   bands (ev):

    -9.0284   5.8720   6.9933   7.2747

          k =-0.2000 0.4000-0.2000 (   782 PWs)   bands (ev):

    -8.5119   4.0995   6.7464   7.0134

          k =-0.3000 0.5000-0.3000 (   781 PWs)   bands (ev):

    -7.9373   2.5410   6.6469   6.6623

          k = 0.6000-0.4000 0.6000 (   781 PWs)   bands (ev):

    -7.5677   1.6907   6.3247   6.7591

          k = 0.5000-0.3000 0.5000 (   774 PWs)   bands (ev):

    -7.6526   1.8840   6.1479   7.0028

          k = 0.4000-0.2000 0.4000 (   775 PWs)   bands (ev):

    -8.1282   3.0374   6.1701   7.3161

          k = 0.3000-0.1000 0.3000 (   780 PWs)   bands (ev):

    -8.7064   4.7178   6.4096   7.5907

          k = 0.2000 0.0000 0.2000 (   783 PWs)   bands (ev):

    -9.1637   6.2711   6.9233   7.7106

          k = 0.0000 0.4000 0.0000 (   785 PWs)   bands (ev):

    -8.7950   5.7847   6.5070   6.5070

          k =-0.1000 0.5000-0.1000 (   780 PWs)   bands (ev):

    -8.3396   4.4094   6.1346   6.1457

          k =-0.2000 0.6000-0.2000 (   775 PWs)   bands (ev):

    -7.7777   2.9574   5.5530   6.0068

          k = 0.7000-0.3000 0.7000 (   779 PWs)   bands (ev):

    -7.3348   2.0056   4.9589   6.1210

          k = 0.6000-0.2000 0.6000 (   775 PWs)   bands (ev):

    -7.2818   1.9550   4.5603   6.4620

          k = 0.5000-0.1000 0.5000 (   777 PWs)   bands (ev):

    -7.6571   2.8404   4.4736   6.9399

          k = 0.4000 0.0000 0.4000 (   788 PWs)   bands (ev):

    -8.2144   4.0513   4.9890   7.3877

          k = 0.0000 0.6000 0.0000 (   781 PWs)   bands (ev):

    -7.9505   3.7033   5.6629   5.6629

          k =-0.1000 0.7000-0.1000 (   777 PWs)   bands (ev):

    -7.4408   2.6226   5.0979   5.4225

          k = 0.8000-0.2000 0.8000 (   769 PWs)   bands (ev):

    -7.0035   1.9239   4.2474   5.4717

          k = 0.7000-0.1000 0.7000 (   769 PWs)   bands (ev):

    -6.8864   1.9848   3.4699   5.8021

          k = 0.6000-0.0000 0.6000 (   776 PWs)   bands (ev):

    -7.1666   2.8899   3.0068   6.3448

          k = 0.0000 0.8000 0.0000 (   773 PWs)   bands (ev):

    -7.0185   1.7524   5.0715   5.0715

          k = 0.9000-0.1000 0.9000 (   770 PWs)   bands (ev):

    -6.6865   1.2396   4.5831   5.0210

          k = 0.8000 0.0000 0.8000 (   764 PWs)   bands (ev):

    -6.6353   1.4181   3.8011   5.2797

          k = 0.0000-1.0000 0.0000 (   774 PWs)   bands (ev):

    -6.5494   0.9003   4.8621   4.8621

          k =-0.2000 0.4000 0.0000 (   774 PWs)   bands (ev):

    -8.6455   5.0087   6.0257   7.1699

          k =-0.3000 0.5000-0.1000 (   776 PWs)   bands (ev):

    -8.0991   3.5808   5.4132   6.9023

          k = 0.6000-0.4000 0.8000 (   775 PWs)   bands (ev):

    -7.5697   2.3011   5.1706   6.5802

          k = 0.5000-0.3000 0.7000 (   772 PWs)   bands (ev):

    -7.3375   1.7938   5.1087   6.4384

          k =-0.2000 0.6000 0.0000 (   772 PWs)   bands (ev):

    -7.8519   3.4667   5.1165   6.0505

          k = 0.7000-0.3000 0.9000 (   771 PWs)   bands (ev):

    -7.3300   2.5135   4.3641   5.8330

          k = 0.6000-0.2000 0.8000 (   770 PWs)   bands (ev):

    -7.0198   2.0316   3.8432   5.8269

          k = 0.5000-0.1000 0.7000 (   768 PWs)   bands (ev):

    -7.1262   2.3666   3.5937   6.1056

          k = 0.4000 0.0000 0.6000 (   776 PWs)   bands (ev):

    -7.5711   3.1502   3.9756   6.5458

          k = 0.8000-0.2000 1.0000 (   775 PWs)   bands (ev):

    -6.9935   1.8857   4.4870   5.2449

          k = 0.7000-0.1000 0.9000 (   768 PWs)   bands (ev):

    -6.7167   1.6766   3.6866   5.2682

          k = 0.6000 0.0000 0.8000 (   765 PWs)   bands (ev):

    -6.7771   2.1640   3.0120   5.5888

          k =-0.2000-1.0000 0.0000 (   766 PWs)   bands (ev):

    -6.5724   1.1601   4.2654   4.9805

          k = 0.6000-0.2000 1.0000 (   770 PWs)   bands (ev):

    -6.9123   2.3126   3.2883   5.5477

          k = 0.5000-0.1000 0.9000 (   768 PWs)   bands (ev):

    -6.7353   2.3232   2.8000   5.4084

          k =-0.4000-1.0000 0.0000 (   760 PWs)   bands (ev):

    -6.6092   1.9123   3.0484   5.1757

     highest occupied level (ev):     7.7106

!    total energy              =     -30.59058104 Ry
     estimated scf accuracy    <       0.00000033 Ry

     The total energy is the sum of the following terms:
     one-electron contribution =       3.04446791 Ry
     hartree contribution      =       3.43625077 Ry
     xc contribution           =      -6.64579394 Ry
     ewald contribution        =     -30.42550579 Ry

     convergence has been achieved in  14 iterations
     Writing meta-gga kinetic term

     Writing all to output data dir ./input_pw/LiCl/0/pwscf.save/
     Writing meta-gga kinetic term
 
     init_run     :      0.98s CPU      2.11s WALL (       1 calls)
     electrons    :     10.91s CPU     21.52s WALL (       1 calls)

     Called by init_run:
     wfcinit      :      0.87s CPU      1.85s WALL (       1 calls)
     potinit      :      0.01s CPU      0.02s WALL (       1 calls)
     hinit0       :      0.09s CPU      0.22s WALL (       1 calls)

     Called by electrons:
     c_bands      :      8.61s CPU     17.01s WALL (      14 calls)
     sum_band     :      2.04s CPU      3.96s WALL (      14 calls)
     v_of_rho     :      0.14s CPU      0.29s WALL (      15 calls)
     mix_rho      :      0.11s CPU      0.27s WALL (      14 calls)

     Called by c_bands:
     init_us_2    :      0.14s CPU      0.23s WALL (    1363 calls)
     init_us_2:cp :      0.13s CPU      0.23s WALL (    1363 calls)
     cegterg      :      8.48s CPU     16.76s WALL (     658 calls)

     Called by *egterg:
     cdiaghg      :      0.09s CPU      0.12s WALL (    1500 calls)
     h_psi        :      9.04s CPU     18.04s WALL (    1547 calls)
     g_psi        :      0.01s CPU      0.02s WALL (     842 calls)

     Called by h_psi:
     h_psi:calbec :      0.04s CPU      0.09s WALL (    1547 calls)
     vloc_psi     :      2.23s CPU      4.07s WALL (    1547 calls)
     add_vuspsi   :      0.04s CPU      0.07s WALL (    1547 calls)
     h_psi_meta   :      6.71s CPU     13.78s WALL (    1547 calls)

     General routines
     calbec       :      0.04s CPU      0.06s WALL (    1547 calls)
     fft          :      0.03s CPU      0.07s WALL (     177 calls)
     ffts         :      0.05s CPU      0.12s WALL (     293 calls)
     fftw         :      9.58s CPU     19.07s WALL (   62392 calls)
     interpolate  :      0.00s CPU      0.00s WALL (      15 calls)
 
     Parallel routines
 
     PWSCF        :     11.94s CPU     23.79s WALL

 
   This run was terminated on:  10:21:58  29Mar2023            

=------------------------------------------------------------------------------=
   JOB DONE.
=------------------------------------------------------------------------------=
