
     Program PWSCF v.7.0 starts on  7Jul2023 at 14:24:17 

     This program is part of the open-source Quantum ESPRESSO suite
     for quantum simulation of materials; please cite
         "P. Giannozzi et al., J. Phys.:Condens. Matter 21 395502 (2009);
         "P. Giannozzi et al., J. Phys.:Condens. Matter 29 465901 (2017);
         "P. Giannozzi et al., J. Chem. Phys. 152 154105 (2020);
          URL http://www.quantum-espresso.org", 
     in publications or presentations arising from this work. More details at
     http://www.quantum-espresso.org/quote

     Parallel version (MPI), running on     1 processors

     MPI processes distributed on     1 nodes
     27458 MiB available memory on the printing compute node when the environment starts
 
     Waiting for input...
     Reading input from standard input
Warning: card &CELL ignored
Warning: card / ignored

     Current dimensions of program PWSCF are:
     Max number of different atomic species (ntypx) = 10
     Max number of k-points (npk) =  40000
     Max angular momentum in pseudopotentials (lmaxx) =  4
     file Cl.SCAN.UPF2: wavefunction(s)  0D renormalized

     WARNING: the MGGA functional with ID    5 has been 
     read together with other dft terms, but it should 
     stand alone in order to work properly. The other 
     terms will be ignored.

     WARNING: the MGGA functional with ID    5 has been 
     read together with other dft terms, but it should 
     stand alone in order to work properly. The other 
     terms will be ignored.

     Subspace diagonalization in iterative solution of the eigenvalue problem:
     a serial algorithm will be used

 
     G-vector sticks info
     --------------------
     sticks:   dense  smooth     PW     G-vecs:    dense   smooth      PW
     Sum         439     439    151                 6183     6183    1139
 
     Using Slab Decomposition
 


     bravais-lattice index     =            2
     lattice parameter (alat)  =       8.0360  a.u.
     unit-cell volume          =     129.7350 (a.u.)^3
     number of atoms/cell      =            2
     number of atomic types    =            2
     number of electrons       =         8.00
     number of Kohn-Sham states=            4
     kinetic-energy cutoff     =      50.0000  Ry
     charge density cutoff     =     200.0000  Ry
     scf convergence threshold =      2.0E-05
     mixing beta               =       0.2000
     number of iterations used =            8  local-TF  mixing
     Exchange-correlation= SLA  PW   SCAN SCAN
                           (   0   0   0   0   0 263 267)

     celldm(1)=   8.035984  celldm(2)=   0.000000  celldm(3)=   0.000000
     celldm(4)=   0.000000  celldm(5)=   0.000000  celldm(6)=   0.000000

     crystal axes: (cart. coord. in units of alat)
               a(1) = (  -0.500000   0.000000   0.500000 )  
               a(2) = (   0.000000   0.500000   0.500000 )  
               a(3) = (  -0.500000   0.500000   0.000000 )  

     reciprocal axes: (cart. coord. in units 2 pi/alat)
               b(1) = ( -1.000000 -1.000000  1.000000 )  
               b(2) = (  1.000000  1.000000  1.000000 )  
               b(3) = ( -1.000000  1.000000 -1.000000 )  


     PseudoPot. # 1 for Li read from file:
     ~/Documents/TA/PWDFT.jl/pseudopotentials/scan_upf/Li.SCAN.UPF2
     MD5 check sum: Not computed, couldn't open file
     Pseudo is Norm-conserving, Zval =  1.0
     Generated by new atomic code, or converted to UPF format
     Using radial grid of 1321 points,  1 beta functions with: 
                l(1) =   0

     PseudoPot. # 2 for Cl read from file:
     ~/Documents/TA/PWDFT.jl/pseudopotentials/scan_upf/Cl.SCAN.UPF2
     MD5 check sum: Not computed, couldn't open file
     Pseudo is Norm-conserving, Zval =  7.0
     Generated by new atomic code, or converted to UPF format
     Using radial grid of 1493 points,  2 beta functions with: 
                l(1) =   0
                l(2) =   1

     atomic species   valence    mass     pseudopotential
        Li             1.00     6.94100     Li( 1.00)
        Cl             7.00    35.45300     Cl( 1.00)

     48 Sym. Ops., with inversion, found



   Cartesian axes

     site n.     atom                  positions (alat units)
         1           Li  tau(   1) = (   0.0000000   0.0000000   0.0000000  )
         2           Cl  tau(   2) = (   0.5000000   0.5000000   0.5000000  )

     number of k points=    47
                       cart. coord. in units 2pi/alat
        k(    1) = (   0.0000000   0.0000000   0.0000000), wk =   0.0020000
        k(    2) = (  -0.1000000   0.1000000  -0.1000000), wk =   0.0160000
        k(    3) = (  -0.2000000   0.2000000  -0.2000000), wk =   0.0160000
        k(    4) = (  -0.3000000   0.3000000  -0.3000000), wk =   0.0160000
        k(    5) = (  -0.4000000   0.4000000  -0.4000000), wk =   0.0160000
        k(    6) = (   0.5000000  -0.5000000   0.5000000), wk =   0.0080000
        k(    7) = (   0.0000000   0.2000000   0.0000000), wk =   0.0120000
        k(    8) = (  -0.1000000   0.3000000  -0.1000000), wk =   0.0480000
        k(    9) = (  -0.2000000   0.4000000  -0.2000000), wk =   0.0480000
        k(   10) = (  -0.3000000   0.5000000  -0.3000000), wk =   0.0480000
        k(   11) = (   0.6000000  -0.4000000   0.6000000), wk =   0.0480000
        k(   12) = (   0.5000000  -0.3000000   0.5000000), wk =   0.0480000
        k(   13) = (   0.4000000  -0.2000000   0.4000000), wk =   0.0480000
        k(   14) = (   0.3000000  -0.1000000   0.3000000), wk =   0.0480000
        k(   15) = (   0.2000000   0.0000000   0.2000000), wk =   0.0240000
        k(   16) = (   0.0000000   0.4000000   0.0000000), wk =   0.0120000
        k(   17) = (  -0.1000000   0.5000000  -0.1000000), wk =   0.0480000
        k(   18) = (  -0.2000000   0.6000000  -0.2000000), wk =   0.0480000
        k(   19) = (   0.7000000  -0.3000000   0.7000000), wk =   0.0480000
        k(   20) = (   0.6000000  -0.2000000   0.6000000), wk =   0.0480000
        k(   21) = (   0.5000000  -0.1000000   0.5000000), wk =   0.0480000
        k(   22) = (   0.4000000   0.0000000   0.4000000), wk =   0.0240000
        k(   23) = (   0.0000000   0.6000000   0.0000000), wk =   0.0120000
        k(   24) = (  -0.1000000   0.7000000  -0.1000000), wk =   0.0480000
        k(   25) = (   0.8000000  -0.2000000   0.8000000), wk =   0.0480000
        k(   26) = (   0.7000000  -0.1000000   0.7000000), wk =   0.0480000
        k(   27) = (   0.6000000  -0.0000000   0.6000000), wk =   0.0240000
        k(   28) = (   0.0000000   0.8000000   0.0000000), wk =   0.0120000
        k(   29) = (   0.9000000  -0.1000000   0.9000000), wk =   0.0480000
        k(   30) = (   0.8000000   0.0000000   0.8000000), wk =   0.0240000
        k(   31) = (   0.0000000  -1.0000000   0.0000000), wk =   0.0060000
        k(   32) = (  -0.2000000   0.4000000   0.0000000), wk =   0.0480000
        k(   33) = (  -0.3000000   0.5000000  -0.1000000), wk =   0.0960000
        k(   34) = (   0.6000000  -0.4000000   0.8000000), wk =   0.0960000
        k(   35) = (   0.5000000  -0.3000000   0.7000000), wk =   0.0480000
        k(   36) = (  -0.2000000   0.6000000   0.0000000), wk =   0.0480000
        k(   37) = (   0.7000000  -0.3000000   0.9000000), wk =   0.0960000
        k(   38) = (   0.6000000  -0.2000000   0.8000000), wk =   0.0960000
        k(   39) = (   0.5000000  -0.1000000   0.7000000), wk =   0.0960000
        k(   40) = (   0.4000000   0.0000000   0.6000000), wk =   0.0480000
        k(   41) = (   0.8000000  -0.2000000   1.0000000), wk =   0.0480000
        k(   42) = (   0.7000000  -0.1000000   0.9000000), wk =   0.0960000
        k(   43) = (   0.6000000   0.0000000   0.8000000), wk =   0.0480000
        k(   44) = (  -0.2000000  -1.0000000   0.0000000), wk =   0.0240000
        k(   45) = (   0.6000000  -0.2000000   1.0000000), wk =   0.0480000
        k(   46) = (   0.5000000  -0.1000000   0.9000000), wk =   0.0480000
        k(   47) = (  -0.4000000  -1.0000000   0.0000000), wk =   0.0240000

     Dense  grid:     6183 G-vectors     FFT dimensions: (  25,  25,  25)

     Estimated max dynamical RAM per process >      11.51 MB

     WARNING: libxc functional with ID  263 depends
      on external parameters: check the user_guide of
      QE if you need to modify them or to check their
      default values.

     Initial potential from superposition of free atoms

     starting charge       7.9953, renormalised to       8.0000
     Starting wfcs are   13 randomized atomic wfcs

     total cpu time spent up to now is        1.8 secs

     Self-consistent Calculation

     iteration #  1     ecut=    50.00 Ry     beta= 0.20
     Davidson diagonalization with overlap
     ethr =  1.00E-02,  avg # of iterations =  1.4

     total cpu time spent up to now is        3.3 secs

     total energy              =     -30.52891925 Ry
     estimated scf accuracy    <       0.37323797 Ry

     iteration #  2     ecut=    50.00 Ry     beta= 0.20
     Davidson diagonalization with overlap
     ethr =  4.67E-03,  avg # of iterations =  1.0

     total cpu time spent up to now is        4.8 secs

     total energy              =     -30.58685773 Ry
     estimated scf accuracy    <       0.23976838 Ry

     iteration #  3     ecut=    50.00 Ry     beta= 0.20
     Davidson diagonalization with overlap
     ethr =  3.00E-03,  avg # of iterations =  1.0

     total cpu time spent up to now is        6.3 secs

     total energy              =     -30.59006491 Ry
     estimated scf accuracy    <       0.00161357 Ry

     iteration #  4     ecut=    50.00 Ry     beta= 0.20
     Davidson diagonalization with overlap
     ethr =  2.02E-05,  avg # of iterations =  2.1

     total cpu time spent up to now is        8.2 secs

     total energy              =     -30.59046219 Ry
     estimated scf accuracy    <       0.00113522 Ry

     iteration #  5     ecut=    50.00 Ry     beta= 0.20
     Davidson diagonalization with overlap
     ethr =  1.42E-05,  avg # of iterations =  1.0

     total cpu time spent up to now is        9.7 secs

     total energy              =     -30.59052542 Ry
     estimated scf accuracy    <       0.00025299 Ry

     iteration #  6     ecut=    50.00 Ry     beta= 0.20
     Davidson diagonalization with overlap
     ethr =  3.16E-06,  avg # of iterations =  2.0

     total cpu time spent up to now is       11.7 secs

     total energy              =     -30.59057346 Ry
     estimated scf accuracy    <       0.00002630 Ry

     iteration #  7     ecut=    50.00 Ry     beta= 0.20
     Davidson diagonalization with overlap
     ethr =  3.29E-07,  avg # of iterations =  1.7

     total cpu time spent up to now is       13.2 secs

     End of self-consistent calculation

          k = 0.0000 0.0000 0.0000 (   749 PWs)   bands (ev):

    -9.5397   7.6720   7.6720   7.6720

          k =-0.1000 0.1000-0.1000 (   773 PWs)   bands (ev):

    -9.4018   6.9622   7.5965   7.5965

          k =-0.2000 0.2000-0.2000 (   794 PWs)   bands (ev):

    -9.0107   5.3131   7.4154   7.4154

          k =-0.3000 0.3000-0.3000 (   769 PWs)   bands (ev):

    -8.4493   3.4947   7.2197   7.2197

          k =-0.4000 0.4000-0.4000 (   769 PWs)   bands (ev):

    -7.9038   2.0828   7.0805   7.0805

          k = 0.5000-0.5000 0.5000 (   778 PWs)   bands (ev):

    -7.6640   1.5381   7.0314   7.0314

          k = 0.0000 0.2000 0.0000 (   773 PWs)   bands (ev):

    -9.3541   7.2024   7.3136   7.3136

          k =-0.1000 0.3000-0.1000 (   785 PWs)   bands (ev):

    -9.0419   5.8611   6.9825   7.2635

          k =-0.2000 0.4000-0.2000 (   782 PWs)   bands (ev):

    -8.5255   4.0890   6.7356   7.0021

          k =-0.3000 0.5000-0.3000 (   781 PWs)   bands (ev):

    -7.9511   2.5307   6.6357   6.6513

          k = 0.6000-0.4000 0.6000 (   781 PWs)   bands (ev):

    -7.5816   1.6807   6.3136   6.7479

          k = 0.5000-0.3000 0.5000 (   774 PWs)   bands (ev):

    -7.6665   1.8739   6.1370   6.9914

          k = 0.4000-0.2000 0.4000 (   775 PWs)   bands (ev):

    -8.1419   3.0271   6.1594   7.3047

          k = 0.3000-0.1000 0.3000 (   780 PWs)   bands (ev):

    -8.7200   4.7071   6.3989   7.5792

          k = 0.2000 0.0000 0.2000 (   783 PWs)   bands (ev):

    -9.1772   6.2601   6.9126   7.6992

          k = 0.0000 0.4000 0.0000 (   785 PWs)   bands (ev):

    -8.8086   5.7732   6.4965   6.4965

          k =-0.1000 0.5000-0.1000 (   780 PWs)   bands (ev):

    -8.3532   4.3985   6.1239   6.1352

          k =-0.2000 0.6000-0.2000 (   775 PWs)   bands (ev):

    -7.7916   2.9470   5.5424   5.9963

          k = 0.7000-0.3000 0.7000 (   779 PWs)   bands (ev):

    -7.3488   1.9956   4.9483   6.1104

          k = 0.6000-0.2000 0.6000 (   775 PWs)   bands (ev):

    -7.2958   1.9450   4.5498   6.4511

          k = 0.5000-0.1000 0.5000 (   777 PWs)   bands (ev):

    -7.6709   2.8301   4.4633   6.9286

          k = 0.4000 0.0000 0.4000 (   788 PWs)   bands (ev):

    -8.2281   4.0405   4.9789   7.3762

          k = 0.0000 0.6000 0.0000 (   781 PWs)   bands (ev):

    -7.9643   3.6923   5.6527   5.6527

          k =-0.1000 0.7000-0.1000 (   777 PWs)   bands (ev):

    -7.4548   2.6121   5.0877   5.4123

          k = 0.8000-0.2000 0.8000 (   769 PWs)   bands (ev):

    -7.0177   1.9139   4.2373   5.4614

          k = 0.7000-0.1000 0.7000 (   769 PWs)   bands (ev):

    -6.9007   1.9750   3.4598   5.7916

          k = 0.6000-0.0000 0.6000 (   776 PWs)   bands (ev):

    -7.1807   2.8802   2.9964   6.3339

          k = 0.0000 0.8000 0.0000 (   773 PWs)   bands (ev):

    -7.0327   1.7423   5.0614   5.0614

          k = 0.9000-0.1000 0.9000 (   770 PWs)   bands (ev):

    -6.7009   1.2298   4.5731   5.0109

          k = 0.8000 0.0000 0.8000 (   764 PWs)   bands (ev):

    -6.6498   1.4084   3.7910   5.2694

          k = 0.0000-1.0000 0.0000 (   774 PWs)   bands (ev):

    -6.5640   0.8906   4.8521   4.8521

          k =-0.2000 0.4000 0.0000 (   774 PWs)   bands (ev):

    -8.6591   4.9977   6.0154   7.1587

          k =-0.3000 0.5000-0.1000 (   776 PWs)   bands (ev):

    -8.1129   3.5702   5.4028   6.8912

          k = 0.6000-0.4000 0.8000 (   775 PWs)   bands (ev):

    -7.5836   2.2910   5.1601   6.5691

          k = 0.5000-0.3000 0.7000 (   772 PWs)   bands (ev):

    -7.3515   1.7839   5.0982   6.4275

          k =-0.2000 0.6000 0.0000 (   772 PWs)   bands (ev):

    -7.8657   3.4560   5.1064   6.0399

          k = 0.7000-0.3000 0.9000 (   771 PWs)   bands (ev):

    -7.3440   2.5032   4.3540   5.8224

          k = 0.6000-0.2000 0.8000 (   770 PWs)   bands (ev):

    -7.0340   2.0218   3.8330   5.8163

          k = 0.5000-0.1000 0.7000 (   768 PWs)   bands (ev):

    -7.1403   2.3566   3.5836   6.0948

          k = 0.4000 0.0000 0.6000 (   776 PWs)   bands (ev):

    -7.5850   3.1396   3.9657   6.5348

          k = 0.8000-0.2000 1.0000 (   775 PWs)   bands (ev):

    -7.0078   1.8757   4.4770   5.2347

          k = 0.7000-0.1000 0.9000 (   768 PWs)   bands (ev):

    -6.7311   1.6668   3.6768   5.2578

          k = 0.6000 0.0000 0.8000 (   765 PWs)   bands (ev):

    -6.7915   2.1544   3.0020   5.5782

          k =-0.2000-1.0000 0.0000 (   766 PWs)   bands (ev):

    -6.5869   1.1504   4.2555   4.9703

          k = 0.6000-0.2000 1.0000 (   770 PWs)   bands (ev):

    -6.9266   2.3026   3.2785   5.5372

          k = 0.5000-0.1000 0.9000 (   768 PWs)   bands (ev):

    -6.7497   2.3134   2.7901   5.3979

          k =-0.4000-1.0000 0.0000 (   760 PWs)   bands (ev):

    -6.6237   1.9026   3.0387   5.1652

     highest occupied level (ev):     7.6992

!    total energy              =     -30.59057575 Ry
     estimated scf accuracy    <       0.00001297 Ry

     The total energy is the sum of the following terms:
     one-electron contribution =       3.04233891 Ry
     hartree contribution      =       3.43937810 Ry
     xc contribution           =      -6.64672457 Ry
     ewald contribution        =     -30.42556818 Ry

     convergence has been achieved in   7 iterations
     Writing meta-gga kinetic term

     Writing all to output data dir ./input_pw/LiCl/0/pwscf.save/
     Writing meta-gga kinetic term
 
     init_run     :      0.99s CPU      1.70s WALL (       1 calls)
     electrons    :      5.65s CPU     11.46s WALL (       1 calls)

     Called by init_run:
     wfcinit      :      0.88s CPU      1.42s WALL (       1 calls)
     potinit      :      0.01s CPU      0.05s WALL (       1 calls)
     hinit0       :      0.09s CPU      0.22s WALL (       1 calls)

     Called by electrons:
     c_bands      :      4.50s CPU      9.16s WALL (       7 calls)
     sum_band     :      1.04s CPU      2.06s WALL (       7 calls)
     v_of_rho     :      0.08s CPU      0.17s WALL (       8 calls)
     mix_rho      :      0.04s CPU      0.10s WALL (       7 calls)

     Called by c_bands:
     init_us_2    :      0.07s CPU      0.14s WALL (     705 calls)
     init_us_2:cp :      0.07s CPU      0.13s WALL (     705 calls)
     cegterg      :      4.43s CPU      8.97s WALL (     329 calls)

     Called by *egterg:
     cdiaghg      :      0.05s CPU      0.08s WALL (     807 calls)
     h_psi        :      5.13s CPU     10.06s WALL (     854 calls)
     g_psi        :      0.00s CPU      0.00s WALL (     478 calls)

     Called by h_psi:
     h_psi:calbec :      0.02s CPU      0.07s WALL (     854 calls)
     vloc_psi     :      1.26s CPU      2.37s WALL (     854 calls)
     add_vuspsi   :      0.02s CPU      0.02s WALL (     854 calls)
     h_psi_meta   :      3.82s CPU      7.57s WALL (     854 calls)

     General routines
     calbec       :      0.02s CPU      0.07s WALL (     854 calls)
     fft          :      0.02s CPU      0.04s WALL (      93 calls)
     ffts         :      0.02s CPU      0.04s WALL (     134 calls)
     fftw         :      5.37s CPU     10.41s WALL (   34424 calls)
     interpolate  :      0.00s CPU      0.00s WALL (       8 calls)
 
     Parallel routines
 
     PWSCF        :      6.69s CPU     13.29s WALL

 
   This run was terminated on:  14:24:30   7Jul2023            

=------------------------------------------------------------------------------=
   JOB DONE.
=------------------------------------------------------------------------------=
