
     Program PWSCF v.7.0 starts on 14Mar2023 at 14:28:42 

     This program is part of the open-source Quantum ESPRESSO suite
     for quantum simulation of materials; please cite
         "P. Giannozzi et al., J. Phys.:Condens. Matter 21 395502 (2009);
         "P. Giannozzi et al., J. Phys.:Condens. Matter 29 465901 (2017);
         "P. Giannozzi et al., J. Chem. Phys. 152 154105 (2020);
          URL http://www.quantum-espresso.org", 
     in publications or presentations arising from this work. More details at
     http://www.quantum-espresso.org/quote

     Parallel version (MPI), running on     1 processors

     MPI processes distributed on     1 nodes
     27062 MiB available memory on the printing compute node when the environment starts
 
     Waiting for input...
     Reading input from standard input
Warning: card &CELL ignored
Warning: card / ignored

     Current dimensions of program PWSCF are:
     Max number of different atomic species (ntypx) = 10
     Max number of k-points (npk) =  40000
     Max angular momentum in pseudopotentials (lmaxx) =  4
     file Cl.SCAN.UPF2: wavefunction(s)  0D renormalized

     WARNING: the MGGA functional with ID    5 has been 
     read together with other dft terms, but it should 
     stand alone in order to work properly. The other 
     terms will be ignored.

     WARNING: the MGGA functional with ID    5 has been 
     read together with other dft terms, but it should 
     stand alone in order to work properly. The other 
     terms will be ignored.

     Subspace diagonalization in iterative solution of the eigenvalue problem:
     a serial algorithm will be used

 
     G-vector sticks info
     --------------------
     sticks:   dense  smooth     PW     G-vecs:    dense   smooth      PW
     Sum         517     517    163                 7991     7991    1459
 
     Using Slab Decomposition
 


     bravais-lattice index     =            2
     lattice parameter (alat)  =       8.7950  a.u.
     unit-cell volume          =     170.0778 (a.u.)^3
     number of atoms/cell      =            2
     number of atomic types    =            2
     number of electrons       =         8.00
     number of Kohn-Sham states=            4
     kinetic-energy cutoff     =      50.0000  Ry
     charge density cutoff     =     200.0000  Ry
     scf convergence threshold =      1.0E-06
     mixing beta               =       0.0100
     number of iterations used =            8  local-TF  mixing
     Exchange-correlation= SLA  PW   SCAN SCAN
                           (   0   0   0   0   0 263 267)

     celldm(1)=   8.795000  celldm(2)=   0.000000  celldm(3)=   0.000000
     celldm(4)=   0.000000  celldm(5)=   0.000000  celldm(6)=   0.000000

     crystal axes: (cart. coord. in units of alat)
               a(1) = (  -0.500000   0.000000   0.500000 )  
               a(2) = (   0.000000   0.500000   0.500000 )  
               a(3) = (  -0.500000   0.500000   0.000000 )  

     reciprocal axes: (cart. coord. in units 2 pi/alat)
               b(1) = ( -1.000000 -1.000000  1.000000 )  
               b(2) = (  1.000000  1.000000  1.000000 )  
               b(3) = ( -1.000000  1.000000 -1.000000 )  


     PseudoPot. # 1 for Li read from file:
     ~/Documents/TA/PWDFT.jl/pseudopotentials/scan_upf/Li.SCAN.UPF2
     MD5 check sum: Not computed, couldn't open file
     Pseudo is Norm-conserving, Zval =  1.0
     Generated by new atomic code, or converted to UPF format
     Using radial grid of 1321 points,  1 beta functions with: 
                l(1) =   0

     PseudoPot. # 2 for Cl read from file:
     ~/Documents/TA/PWDFT.jl/pseudopotentials/scan_upf/Cl.SCAN.UPF2
     MD5 check sum: Not computed, couldn't open file
     Pseudo is Norm-conserving, Zval =  7.0
     Generated by new atomic code, or converted to UPF format
     Using radial grid of 1493 points,  2 beta functions with: 
                l(1) =   0
                l(2) =   1

     atomic species   valence    mass     pseudopotential
        Li             1.00     6.94100     Li( 1.00)
        Cl             7.00    35.45300     Cl( 1.00)

     48 Sym. Ops., with inversion, found



   Cartesian axes

     site n.     atom                  positions (alat units)
         1           Li  tau(   1) = (   0.0000000   0.0000000   0.0000000  )
         2           Cl  tau(   2) = (   0.5000000   0.5000000   0.5000000  )

     number of k points=    47
                       cart. coord. in units 2pi/alat
        k(    1) = (   0.0000000   0.0000000   0.0000000), wk =   0.0020000
        k(    2) = (  -0.1000000   0.1000000  -0.1000000), wk =   0.0160000
        k(    3) = (  -0.2000000   0.2000000  -0.2000000), wk =   0.0160000
        k(    4) = (  -0.3000000   0.3000000  -0.3000000), wk =   0.0160000
        k(    5) = (  -0.4000000   0.4000000  -0.4000000), wk =   0.0160000
        k(    6) = (   0.5000000  -0.5000000   0.5000000), wk =   0.0080000
        k(    7) = (   0.0000000   0.2000000   0.0000000), wk =   0.0120000
        k(    8) = (  -0.1000000   0.3000000  -0.1000000), wk =   0.0480000
        k(    9) = (  -0.2000000   0.4000000  -0.2000000), wk =   0.0480000
        k(   10) = (  -0.3000000   0.5000000  -0.3000000), wk =   0.0480000
        k(   11) = (   0.6000000  -0.4000000   0.6000000), wk =   0.0480000
        k(   12) = (   0.5000000  -0.3000000   0.5000000), wk =   0.0480000
        k(   13) = (   0.4000000  -0.2000000   0.4000000), wk =   0.0480000
        k(   14) = (   0.3000000  -0.1000000   0.3000000), wk =   0.0480000
        k(   15) = (   0.2000000   0.0000000   0.2000000), wk =   0.0240000
        k(   16) = (   0.0000000   0.4000000   0.0000000), wk =   0.0120000
        k(   17) = (  -0.1000000   0.5000000  -0.1000000), wk =   0.0480000
        k(   18) = (  -0.2000000   0.6000000  -0.2000000), wk =   0.0480000
        k(   19) = (   0.7000000  -0.3000000   0.7000000), wk =   0.0480000
        k(   20) = (   0.6000000  -0.2000000   0.6000000), wk =   0.0480000
        k(   21) = (   0.5000000  -0.1000000   0.5000000), wk =   0.0480000
        k(   22) = (   0.4000000   0.0000000   0.4000000), wk =   0.0240000
        k(   23) = (   0.0000000   0.6000000   0.0000000), wk =   0.0120000
        k(   24) = (  -0.1000000   0.7000000  -0.1000000), wk =   0.0480000
        k(   25) = (   0.8000000  -0.2000000   0.8000000), wk =   0.0480000
        k(   26) = (   0.7000000  -0.1000000   0.7000000), wk =   0.0480000
        k(   27) = (   0.6000000  -0.0000000   0.6000000), wk =   0.0240000
        k(   28) = (   0.0000000   0.8000000   0.0000000), wk =   0.0120000
        k(   29) = (   0.9000000  -0.1000000   0.9000000), wk =   0.0480000
        k(   30) = (   0.8000000   0.0000000   0.8000000), wk =   0.0240000
        k(   31) = (   0.0000000  -1.0000000   0.0000000), wk =   0.0060000
        k(   32) = (  -0.2000000   0.4000000   0.0000000), wk =   0.0480000
        k(   33) = (  -0.3000000   0.5000000  -0.1000000), wk =   0.0960000
        k(   34) = (   0.6000000  -0.4000000   0.8000000), wk =   0.0960000
        k(   35) = (   0.5000000  -0.3000000   0.7000000), wk =   0.0480000
        k(   36) = (  -0.2000000   0.6000000   0.0000000), wk =   0.0480000
        k(   37) = (   0.7000000  -0.3000000   0.9000000), wk =   0.0960000
        k(   38) = (   0.6000000  -0.2000000   0.8000000), wk =   0.0960000
        k(   39) = (   0.5000000  -0.1000000   0.7000000), wk =   0.0960000
        k(   40) = (   0.4000000   0.0000000   0.6000000), wk =   0.0480000
        k(   41) = (   0.8000000  -0.2000000   1.0000000), wk =   0.0480000
        k(   42) = (   0.7000000  -0.1000000   0.9000000), wk =   0.0960000
        k(   43) = (   0.6000000   0.0000000   0.8000000), wk =   0.0480000
        k(   44) = (  -0.2000000  -1.0000000   0.0000000), wk =   0.0240000
        k(   45) = (   0.6000000  -0.2000000   1.0000000), wk =   0.0480000
        k(   46) = (   0.5000000  -0.1000000   0.9000000), wk =   0.0480000
        k(   47) = (  -0.4000000  -1.0000000   0.0000000), wk =   0.0240000

     Dense  grid:     7991 G-vectors     FFT dimensions: (  27,  27,  27)

     Estimated max dynamical RAM per process >      14.80 MB

     WARNING: libxc functional with ID  263 depends
      on external parameters: check the user_guide of
      QE if you need to modify them or to check their
      default values.

     Initial potential from superposition of free atoms

     starting charge       7.9953, renormalised to       8.0000
     Starting wfcs are   13 randomized atomic wfcs

     total cpu time spent up to now is        3.3 secs

     Self-consistent Calculation

     iteration #  1     ecut=    50.00 Ry     beta= 0.01
     Davidson diagonalization with overlap
     ethr =  1.00E-02,  avg # of iterations =  1.0

     total cpu time spent up to now is        5.7 secs

     total energy              =     -30.61573321 Ry
     estimated scf accuracy    <       0.35918776 Ry

     iteration #  2     ecut=    50.00 Ry     beta= 0.01
     Davidson diagonalization with overlap
     ethr =  4.49E-03,  avg # of iterations =  1.0

     total cpu time spent up to now is        7.9 secs

     total energy              =     -30.64175918 Ry
     estimated scf accuracy    <       0.34102716 Ry

     iteration #  3     ecut=    50.00 Ry     beta= 0.01
     Davidson diagonalization with overlap
     ethr =  4.26E-03,  avg # of iterations =  1.0

     total cpu time spent up to now is       10.2 secs

     total energy              =     -30.70264110 Ry
     estimated scf accuracy    <       0.26426927 Ry

     iteration #  4     ecut=    50.00 Ry     beta= 0.01
     Davidson diagonalization with overlap
     ethr =  3.30E-03,  avg # of iterations =  1.0

     total cpu time spent up to now is       12.7 secs

     total energy              =     -30.70507982 Ry
     estimated scf accuracy    <       0.00332512 Ry

     iteration #  5     ecut=    50.00 Ry     beta= 0.01
     Davidson diagonalization with overlap
     ethr =  4.16E-05,  avg # of iterations =  1.0

     total cpu time spent up to now is       15.2 secs

     total energy              =     -30.70522630 Ry
     estimated scf accuracy    <       0.00369575 Ry

     iteration #  6     ecut=    50.00 Ry     beta= 0.01
     Davidson diagonalization with overlap
     ethr =  4.16E-05,  avg # of iterations =  1.0

     total cpu time spent up to now is       17.6 secs

     total energy              =     -30.70513886 Ry
     estimated scf accuracy    <       0.00375427 Ry

     iteration #  7     ecut=    50.00 Ry     beta= 0.01
     Davidson diagonalization with overlap
     ethr =  4.16E-05,  avg # of iterations =  1.0

     total cpu time spent up to now is       19.9 secs

     total energy              =     -30.70377157 Ry
     estimated scf accuracy    <       0.00325250 Ry

     iteration #  8     ecut=    50.00 Ry     beta= 0.01
     Davidson diagonalization with overlap
     ethr =  4.07E-05,  avg # of iterations =  2.0

     total cpu time spent up to now is       23.3 secs

     total energy              =     -30.70488165 Ry
     estimated scf accuracy    <       0.00278574 Ry

     iteration #  9     ecut=    50.00 Ry     beta= 0.01
     Davidson diagonalization with overlap
     ethr =  3.48E-05,  avg # of iterations =  1.0

     total cpu time spent up to now is       25.5 secs

     total energy              =     -30.70481882 Ry
     estimated scf accuracy    <       0.00242017 Ry

     iteration # 10     ecut=    50.00 Ry     beta= 0.01
     Davidson diagonalization with overlap
     ethr =  3.03E-05,  avg # of iterations =  1.0

     total cpu time spent up to now is       27.7 secs

     total energy              =     -30.70443222 Ry
     estimated scf accuracy    <       0.00202272 Ry

     iteration # 11     ecut=    50.00 Ry     beta= 0.01
     Davidson diagonalization with overlap
     ethr =  2.53E-05,  avg # of iterations =  1.0

     total cpu time spent up to now is       29.8 secs

     total energy              =     -30.70457728 Ry
     estimated scf accuracy    <       0.00002621 Ry

     iteration # 12     ecut=    50.00 Ry     beta= 0.01
     Davidson diagonalization with overlap
     ethr =  3.28E-07,  avg # of iterations =  2.0

     total cpu time spent up to now is       32.5 secs

     total energy              =     -30.70458776 Ry
     estimated scf accuracy    <       0.00000505 Ry

     iteration # 13     ecut=    50.00 Ry     beta= 0.01
     Davidson diagonalization with overlap
     ethr =  6.31E-08,  avg # of iterations =  1.0

     total cpu time spent up to now is       34.0 secs

     total energy              =     -30.70458607 Ry
     estimated scf accuracy    <       0.00000520 Ry

     iteration # 14     ecut=    50.00 Ry     beta= 0.01
     Davidson diagonalization with overlap
     ethr =  6.31E-08,  avg # of iterations =  2.0

     total cpu time spent up to now is       36.7 secs

     total energy              =     -30.70459098 Ry
     estimated scf accuracy    <       0.00000904 Ry

     iteration # 15     ecut=    50.00 Ry     beta= 0.01
     Davidson diagonalization with overlap
     ethr =  6.31E-08,  avg # of iterations =  1.0

     total cpu time spent up to now is       38.7 secs

     End of self-consistent calculation

          k = 0.0000 0.0000 0.0000 (   965 PWs)   bands (ev):

   -11.3333   3.9395   3.9395   3.9395

          k =-0.1000 0.1000-0.1000 (   992 PWs)   bands (ev):

   -11.2403   3.4299   3.8933   3.8933

          k =-0.2000 0.2000-0.2000 (  1001 PWs)   bands (ev):

   -10.9812   2.2480   3.7789   3.7789

          k =-0.3000 0.3000-0.3000 (  1011 PWs)   bands (ev):

   -10.6256   0.9608   3.6494   3.6494

          k =-0.4000 0.4000-0.4000 (  1017 PWs)   bands (ev):

   -10.3007  -0.0106   3.5531   3.5531

          k = 0.5000-0.5000 0.5000 (  1008 PWs)   bands (ev):

   -10.1651  -0.3740   3.5182   3.5182

          k = 0.0000 0.2000 0.0000 (  1002 PWs)   bands (ev):

   -11.2086   3.5376   3.7275   3.7275

          k =-0.1000 0.3000-0.1000 (   998 PWs)   bands (ev):

   -11.0019   2.6107   3.5231   3.6671

          k =-0.2000 0.4000-0.2000 (  1012 PWs)   bands (ev):

   -10.6728   1.3685   3.3620   3.5049

          k =-0.3000 0.5000-0.3000 (  1009 PWs)   bands (ev):

   -10.3273   0.3030   3.2729   3.2992

          k = 0.6000-0.4000 0.6000 (  1015 PWs)   bands (ev):

   -10.1191  -0.2585   3.0660   3.3517

          k = 0.5000-0.3000 0.5000 (  1016 PWs)   bands (ev):

   -10.1660  -0.1314   2.9557   3.4999

          k = 0.4000-0.2000 0.4000 (  1015 PWs)   bands (ev):

   -10.4394   0.6385   2.9813   3.6949

          k = 0.3000-0.1000 0.3000 (  1007 PWs)   bands (ev):

   -10.7947   1.7913   3.1540   3.8675

          k = 0.2000 0.0000 0.2000 (   997 PWs)   bands (ev):

   -11.0906   2.8861   3.4914   3.9469

          k = 0.0000 0.4000 0.0000 (   998 PWs)   bands (ev):

   -10.8516   2.4565   3.2194   3.2194

          k =-0.1000 0.5000-0.1000 (  1011 PWs)   bands (ev):

   -10.5676   1.5369   2.9645   2.9833

          k =-0.2000 0.6000-0.2000 (  1011 PWs)   bands (ev):

   -10.2362   0.5893   2.5801   2.8873

          k = 0.7000-0.3000 0.7000 (  1015 PWs)   bands (ev):

    -9.9922   0.0004   2.1674   2.9570

          k = 0.6000-0.2000 0.6000 (  1012 PWs)   bands (ev):

    -9.9637  -0.0166   1.8861   3.1730

          k = 0.5000-0.1000 0.5000 (  1015 PWs)   bands (ev):

   -10.1670   0.5277   1.8556   3.4709

          k = 0.4000 0.0000 0.4000 (  1015 PWs)   bands (ev):

   -10.4906   1.2669   2.2713   3.7430

          k = 0.0000 0.6000 0.0000 (  1018 PWs)   bands (ev):

   -10.3368   1.0534   2.6644   2.6644

          k =-0.1000 0.7000-0.1000 (  1022 PWs)   bands (ev):

   -10.0508   0.3769   2.2902   2.5005

          k = 0.8000-0.2000 0.8000 (  1014 PWs)   bands (ev):

    -9.8217  -0.0048   1.6950   2.5316

          k = 0.7000-0.1000 0.7000 (  1015 PWs)   bands (ev):

    -9.7620   0.1170   1.1015   2.7507

          k = 0.6000-0.0000 0.6000 (  1011 PWs)   bands (ev):

    -9.9023   0.6505   0.8227   3.1020

          k = 0.0000 0.8000 0.0000 (  1014 PWs)   bands (ev):

    -9.8319  -0.1531   2.2605   2.2605

          k = 0.9000-0.1000 0.9000 (  1007 PWs)   bands (ev):

    -9.6702  -0.4266   1.9277   2.2249

          k = 0.8000 0.0000 0.8000 (  1015 PWs)   bands (ev):

    -9.6439  -0.2518   1.3620   2.4016

          k = 0.0000-1.0000 0.0000 (   998 PWs)   bands (ev):

    -9.6085  -0.6387   2.1150   2.1150

          k =-0.2000 0.4000 0.0000 (  1004 PWs)   bands (ev):

   -10.7566   1.9488   2.9323   3.6081

          k =-0.3000 0.5000-0.1000 (  1018 PWs)   bands (ev):

   -10.4224   0.9926   2.5075   3.4453

          k = 0.6000-0.4000 0.8000 (  1018 PWs)   bands (ev):

   -10.1193   0.1719   2.3190   3.2421

          k = 0.5000-0.3000 0.7000 (  1018 PWs)   bands (ev):

    -9.9939  -0.1456   2.2693   3.1506

          k =-0.2000 0.6000 0.0000 (  1019 PWs)   bands (ev):

   -10.2791   0.9002   2.3304   2.9061

          k = 0.7000-0.3000 0.9000 (  1022 PWs)   bands (ev):

    -9.9898   0.3291   1.8138   2.7537

          k = 0.6000-0.2000 0.8000 (  1023 PWs)   bands (ev):

    -9.8286   0.0859   1.4196   2.7447

          k = 0.5000-0.1000 0.7000 (  1020 PWs)   bands (ev):

    -9.8821   0.2976   1.2432   2.9321

          k = 0.4000 0.0000 0.6000 (  1017 PWs)   bands (ev):

   -10.1194   0.6950   1.5819   3.2213

          k = 0.8000-0.2000 1.0000 (  1018 PWs)   bands (ev):

    -9.8177  -0.0458   1.8969   2.3548

          k = 0.7000-0.1000 0.9000 (  1015 PWs)   bands (ev):

    -9.6810  -0.0977   1.3316   2.3561

          k = 0.6000 0.0000 0.8000 (  1014 PWs)   bands (ev):

    -9.7081   0.2966   0.7857   2.5790

          k =-0.2000-1.0000 0.0000 (  1016 PWs)   bands (ev):

    -9.6166  -0.4441   1.7415   2.1627

          k = 0.6000-0.2000 1.0000 (  1031 PWs)   bands (ev):

    -9.7746   0.2783   1.0959   2.5301

          k = 0.5000-0.1000 0.9000 (  1022 PWs)   bands (ev):

    -9.6878   0.3690   0.7286   2.4177

          k =-0.4000-1.0000 0.0000 (  1028 PWs)   bands (ev):

    -9.6292   0.1114   0.9234   2.2406

     highest occupied level (ev):     3.9469

!    total energy              =     -30.70459152 Ry
     estimated scf accuracy    <       0.00000014 Ry

     The total energy is the sum of the following terms:
     one-electron contribution =      -0.94285556 Ry
     hartree contribution      =       4.52650652 Ry
     xc contribution           =      -6.48842842 Ry
     ewald contribution        =     -27.79981406 Ry

     convergence has been achieved in  15 iterations
     Writing meta-gga kinetic term

     Writing all to output data dir ./input_pw/LiCl/7/pwscf.save/
     Writing meta-gga kinetic term
 
     init_run     :      1.33s CPU      3.14s WALL (       1 calls)
     electrons    :     15.86s CPU     35.45s WALL (       1 calls)

     Called by init_run:
     wfcinit      :      1.21s CPU      2.85s WALL (       1 calls)
     potinit      :      0.02s CPU      0.03s WALL (       1 calls)
     hinit0       :      0.09s CPU      0.22s WALL (       1 calls)

     Called by electrons:
     c_bands      :     12.46s CPU     27.64s WALL (      15 calls)
     sum_band     :      3.04s CPU      6.97s WALL (      15 calls)
     v_of_rho     :      0.20s CPU      0.47s WALL (      16 calls)
     mix_rho      :      0.17s CPU      0.37s WALL (      15 calls)

     Called by c_bands:
     init_us_2    :      0.19s CPU      0.50s WALL (    1457 calls)
     init_us_2:cp :      0.19s CPU      0.50s WALL (    1457 calls)
     cegterg      :     12.28s CPU     27.14s WALL (     705 calls)

     Called by *egterg:
     cdiaghg      :      0.08s CPU      0.24s WALL (    1551 calls)
     h_psi        :     13.15s CPU     29.04s WALL (    1598 calls)
     g_psi        :      0.01s CPU      0.01s WALL (     846 calls)

     Called by h_psi:
     h_psi:calbec :      0.05s CPU      0.07s WALL (    1598 calls)
     vloc_psi     :      3.23s CPU      7.17s WALL (    1598 calls)
     add_vuspsi   :      0.05s CPU      0.12s WALL (    1598 calls)
     h_psi_meta   :      9.79s CPU     21.62s WALL (    1598 calls)

     General routines
     calbec       :      0.04s CPU      0.05s WALL (    1598 calls)
     fft          :      0.04s CPU      0.23s WALL (     189 calls)
     ffts         :      0.07s CPU      0.16s WALL (     336 calls)
     fftw         :     14.19s CPU     31.69s WALL (   65800 calls)
     interpolate  :      0.00s CPU      0.00s WALL (      16 calls)
 
     Parallel routines
 
     PWSCF        :     17.25s CPU     38.75s WALL

 
   This run was terminated on:  14:29:21  14Mar2023            

=------------------------------------------------------------------------------=
   JOB DONE.
=------------------------------------------------------------------------------=
