
     Program PWSCF v.7.0 starts on 29Mar2023 at 10:21:34 

     This program is part of the open-source Quantum ESPRESSO suite
     for quantum simulation of materials; please cite
         "P. Giannozzi et al., J. Phys.:Condens. Matter 21 395502 (2009);
         "P. Giannozzi et al., J. Phys.:Condens. Matter 29 465901 (2017);
         "P. Giannozzi et al., J. Chem. Phys. 152 154105 (2020);
          URL http://www.quantum-espresso.org", 
     in publications or presentations arising from this work. More details at
     http://www.quantum-espresso.org/quote

     Parallel version (MPI), running on     1 processors

     MPI processes distributed on     1 nodes
     24435 MiB available memory on the printing compute node when the environment starts
 
     Waiting for input...
     Reading input from standard input
Warning: card &CELL ignored
Warning: card / ignored

     Current dimensions of program PWSCF are:
     Max number of different atomic species (ntypx) = 10
     Max number of k-points (npk) =  40000
     Max angular momentum in pseudopotentials (lmaxx) =  4
     file Cl.SCAN.UPF2: wavefunction(s)  0D renormalized

     WARNING: the MGGA functional with ID    5 has been 
     read together with other dft terms, but it should 
     stand alone in order to work properly. The other 
     terms will be ignored.

     WARNING: the MGGA functional with ID    5 has been 
     read together with other dft terms, but it should 
     stand alone in order to work properly. The other 
     terms will be ignored.

     Subspace diagonalization in iterative solution of the eigenvalue problem:
     a serial algorithm will be used

 
     G-vector sticks info
     --------------------
     sticks:   dense  smooth     PW     G-vecs:    dense   smooth      PW
     Sum         673     673    211                11575    11575    2085
 
     Using Slab Decomposition
 


     bravais-lattice index     =            2
     lattice parameter (alat)  =       9.9111  a.u.
     unit-cell volume          =     243.3891 (a.u.)^3
     number of atoms/cell      =            2
     number of atomic types    =            2
     number of electrons       =         8.00
     number of Kohn-Sham states=            4
     kinetic-energy cutoff     =      50.0000  Ry
     charge density cutoff     =     200.0000  Ry
     scf convergence threshold =      1.0E-06
     mixing beta               =       0.0100
     number of iterations used =            8  local-TF  mixing
     Exchange-correlation= SLA  PW   SCAN SCAN
                           (   0   0   0   0   0 263 267)

     celldm(1)=   9.911067  celldm(2)=   0.000000  celldm(3)=   0.000000
     celldm(4)=   0.000000  celldm(5)=   0.000000  celldm(6)=   0.000000

     crystal axes: (cart. coord. in units of alat)
               a(1) = (  -0.500000   0.000000   0.500000 )  
               a(2) = (   0.000000   0.500000   0.500000 )  
               a(3) = (  -0.500000   0.500000   0.000000 )  

     reciprocal axes: (cart. coord. in units 2 pi/alat)
               b(1) = ( -1.000000 -1.000000  1.000000 )  
               b(2) = (  1.000000  1.000000  1.000000 )  
               b(3) = ( -1.000000  1.000000 -1.000000 )  


     PseudoPot. # 1 for Li read from file:
     ~/Documents/TA/PWDFT.jl/pseudopotentials/scan_upf/Li.SCAN.UPF2
     MD5 check sum: Not computed, couldn't open file
     Pseudo is Norm-conserving, Zval =  1.0
     Generated by new atomic code, or converted to UPF format
     Using radial grid of 1321 points,  1 beta functions with: 
                l(1) =   0

     PseudoPot. # 2 for Cl read from file:
     ~/Documents/TA/PWDFT.jl/pseudopotentials/scan_upf/Cl.SCAN.UPF2
     MD5 check sum: Not computed, couldn't open file
     Pseudo is Norm-conserving, Zval =  7.0
     Generated by new atomic code, or converted to UPF format
     Using radial grid of 1493 points,  2 beta functions with: 
                l(1) =   0
                l(2) =   1

     atomic species   valence    mass     pseudopotential
        Li             1.00     6.94100     Li( 1.00)
        Cl             7.00    35.45300     Cl( 1.00)

     48 Sym. Ops., with inversion, found



   Cartesian axes

     site n.     atom                  positions (alat units)
         1           Li  tau(   1) = (   0.0000000   0.0000000   0.0000000  )
         2           Cl  tau(   2) = (   0.5000000   0.5000000   0.5000000  )

     number of k points=    47
                       cart. coord. in units 2pi/alat
        k(    1) = (   0.0000000   0.0000000   0.0000000), wk =   0.0020000
        k(    2) = (  -0.1000000   0.1000000  -0.1000000), wk =   0.0160000
        k(    3) = (  -0.2000000   0.2000000  -0.2000000), wk =   0.0160000
        k(    4) = (  -0.3000000   0.3000000  -0.3000000), wk =   0.0160000
        k(    5) = (  -0.4000000   0.4000000  -0.4000000), wk =   0.0160000
        k(    6) = (   0.5000000  -0.5000000   0.5000000), wk =   0.0080000
        k(    7) = (   0.0000000   0.2000000   0.0000000), wk =   0.0120000
        k(    8) = (  -0.1000000   0.3000000  -0.1000000), wk =   0.0480000
        k(    9) = (  -0.2000000   0.4000000  -0.2000000), wk =   0.0480000
        k(   10) = (  -0.3000000   0.5000000  -0.3000000), wk =   0.0480000
        k(   11) = (   0.6000000  -0.4000000   0.6000000), wk =   0.0480000
        k(   12) = (   0.5000000  -0.3000000   0.5000000), wk =   0.0480000
        k(   13) = (   0.4000000  -0.2000000   0.4000000), wk =   0.0480000
        k(   14) = (   0.3000000  -0.1000000   0.3000000), wk =   0.0480000
        k(   15) = (   0.2000000   0.0000000   0.2000000), wk =   0.0240000
        k(   16) = (   0.0000000   0.4000000   0.0000000), wk =   0.0120000
        k(   17) = (  -0.1000000   0.5000000  -0.1000000), wk =   0.0480000
        k(   18) = (  -0.2000000   0.6000000  -0.2000000), wk =   0.0480000
        k(   19) = (   0.7000000  -0.3000000   0.7000000), wk =   0.0480000
        k(   20) = (   0.6000000  -0.2000000   0.6000000), wk =   0.0480000
        k(   21) = (   0.5000000  -0.1000000   0.5000000), wk =   0.0480000
        k(   22) = (   0.4000000   0.0000000   0.4000000), wk =   0.0240000
        k(   23) = (   0.0000000   0.6000000   0.0000000), wk =   0.0120000
        k(   24) = (  -0.1000000   0.7000000  -0.1000000), wk =   0.0480000
        k(   25) = (   0.8000000  -0.2000000   0.8000000), wk =   0.0480000
        k(   26) = (   0.7000000  -0.1000000   0.7000000), wk =   0.0480000
        k(   27) = (   0.6000000  -0.0000000   0.6000000), wk =   0.0240000
        k(   28) = (   0.0000000   0.8000000   0.0000000), wk =   0.0120000
        k(   29) = (   0.9000000  -0.1000000   0.9000000), wk =   0.0480000
        k(   30) = (   0.8000000   0.0000000   0.8000000), wk =   0.0240000
        k(   31) = (   0.0000000  -1.0000000   0.0000000), wk =   0.0060000
        k(   32) = (  -0.2000000   0.4000000   0.0000000), wk =   0.0480000
        k(   33) = (  -0.3000000   0.5000000  -0.1000000), wk =   0.0960000
        k(   34) = (   0.6000000  -0.4000000   0.8000000), wk =   0.0960000
        k(   35) = (   0.5000000  -0.3000000   0.7000000), wk =   0.0480000
        k(   36) = (  -0.2000000   0.6000000   0.0000000), wk =   0.0480000
        k(   37) = (   0.7000000  -0.3000000   0.9000000), wk =   0.0960000
        k(   38) = (   0.6000000  -0.2000000   0.8000000), wk =   0.0960000
        k(   39) = (   0.5000000  -0.1000000   0.7000000), wk =   0.0960000
        k(   40) = (   0.4000000   0.0000000   0.6000000), wk =   0.0480000
        k(   41) = (   0.8000000  -0.2000000   1.0000000), wk =   0.0480000
        k(   42) = (   0.7000000  -0.1000000   0.9000000), wk =   0.0960000
        k(   43) = (   0.6000000   0.0000000   0.8000000), wk =   0.0480000
        k(   44) = (  -0.2000000  -1.0000000   0.0000000), wk =   0.0240000
        k(   45) = (   0.6000000  -0.2000000   1.0000000), wk =   0.0480000
        k(   46) = (   0.5000000  -0.1000000   0.9000000), wk =   0.0480000
        k(   47) = (  -0.4000000  -1.0000000   0.0000000), wk =   0.0240000

     Dense  grid:    11575 G-vectors     FFT dimensions: (  32,  32,  32)

     Estimated max dynamical RAM per process >      21.78 MB

     WARNING: libxc functional with ID  263 depends
      on external parameters: check the user_guide of
      QE if you need to modify them or to check their
      default values.

     Initial potential from superposition of free atoms

     starting charge       7.9953, renormalised to       8.0000
     Starting wfcs are   13 randomized atomic wfcs

     total cpu time spent up to now is        3.0 secs

     Self-consistent Calculation

     iteration #  1     ecut=    50.00 Ry     beta= 0.01
     Davidson diagonalization with overlap
     ethr =  1.00E-02,  avg # of iterations =  1.0

     total cpu time spent up to now is        5.1 secs

     total energy              =     -30.65943139 Ry
     estimated scf accuracy    <       0.35477316 Ry

     iteration #  2     ecut=    50.00 Ry     beta= 0.01
     Davidson diagonalization with overlap
     ethr =  4.43E-03,  avg # of iterations =  1.0

     total cpu time spent up to now is        7.4 secs

     total energy              =     -30.68736107 Ry
     estimated scf accuracy    <       0.33817057 Ry

     iteration #  3     ecut=    50.00 Ry     beta= 0.01
     Davidson diagonalization with overlap
     ethr =  4.23E-03,  avg # of iterations =  1.0

     total cpu time spent up to now is        9.7 secs

     total energy              =     -30.74273590 Ry
     estimated scf accuracy    <       0.25151478 Ry

     iteration #  4     ecut=    50.00 Ry     beta= 0.01
     Davidson diagonalization with overlap
     ethr =  3.14E-03,  avg # of iterations =  1.0

     total cpu time spent up to now is       12.0 secs

     total energy              =     -30.74516910 Ry
     estimated scf accuracy    <       0.00448283 Ry

     iteration #  5     ecut=    50.00 Ry     beta= 0.01
     Davidson diagonalization with overlap
     ethr =  5.60E-05,  avg # of iterations =  1.0

     total cpu time spent up to now is       14.2 secs

     total energy              =     -30.74512663 Ry
     estimated scf accuracy    <       0.00445921 Ry

     iteration #  6     ecut=    50.00 Ry     beta= 0.01
     Davidson diagonalization with overlap
     ethr =  5.57E-05,  avg # of iterations =  1.0

     total cpu time spent up to now is       16.6 secs

     total energy              =     -30.74306878 Ry
     estimated scf accuracy    <       0.00404567 Ry

     iteration #  7     ecut=    50.00 Ry     beta= 0.01
     Davidson diagonalization with overlap
     ethr =  5.06E-05,  avg # of iterations =  2.0

     total cpu time spent up to now is       19.7 secs

     total energy              =     -30.74498794 Ry
     estimated scf accuracy    <       0.00350219 Ry

     iteration #  8     ecut=    50.00 Ry     beta= 0.01
     Davidson diagonalization with overlap
     ethr =  4.38E-05,  avg # of iterations =  1.0

     total cpu time spent up to now is       21.8 secs

     total energy              =     -30.74469328 Ry
     estimated scf accuracy    <       0.00351362 Ry

     iteration #  9     ecut=    50.00 Ry     beta= 0.01
     Davidson diagonalization with overlap
     ethr =  4.38E-05,  avg # of iterations =  1.0

     total cpu time spent up to now is       23.8 secs

     total energy              =     -30.74408885 Ry
     estimated scf accuracy    <       0.00221295 Ry

     iteration # 10     ecut=    50.00 Ry     beta= 0.01
     Davidson diagonalization with overlap
     ethr =  2.77E-05,  avg # of iterations =  2.0

     total cpu time spent up to now is       26.8 secs

     total energy              =     -30.74436962 Ry
     estimated scf accuracy    <       0.00011398 Ry

     iteration # 11     ecut=    50.00 Ry     beta= 0.01
     Davidson diagonalization with overlap
     ethr =  1.42E-06,  avg # of iterations =  2.0

     total cpu time spent up to now is       29.4 secs

     total energy              =     -30.74439415 Ry
     estimated scf accuracy    <       0.00002083 Ry

     iteration # 12     ecut=    50.00 Ry     beta= 0.01
     Davidson diagonalization with overlap
     ethr =  2.60E-07,  avg # of iterations =  1.0

     total cpu time spent up to now is       31.5 secs

     total energy              =     -30.74439324 Ry
     estimated scf accuracy    <       0.00000629 Ry

     iteration # 13     ecut=    50.00 Ry     beta= 0.01
     Davidson diagonalization with overlap
     ethr =  7.86E-08,  avg # of iterations =  2.0

     total cpu time spent up to now is       34.2 secs

     total energy              =     -30.74439504 Ry
     estimated scf accuracy    <       0.00000502 Ry

     iteration # 14     ecut=    50.00 Ry     beta= 0.01
     Davidson diagonalization with overlap
     ethr =  6.28E-08,  avg # of iterations =  1.0

     total cpu time spent up to now is       36.1 secs

     End of self-consistent calculation

          k = 0.0000 0.0000 0.0000 (  1459 PWs)   bands (ev):

   -13.1704   0.4766   0.4766   0.4766

          k =-0.1000 0.1000-0.1000 (  1441 PWs)   bands (ev):

   -13.1239   0.1604   0.4521   0.4521

          k =-0.2000 0.2000-0.2000 (  1435 PWs)   bands (ev):

   -12.9990  -0.5681   0.3900   0.3900

          k =-0.3000 0.3000-0.3000 (  1441 PWs)   bands (ev):

   -12.8360  -1.3451   0.3170   0.3170

          k =-0.4000 0.4000-0.4000 (  1459 PWs)   bands (ev):

   -12.6963  -1.9132   0.2609   0.2609

          k = 0.5000-0.5000 0.5000 (  1458 PWs)   bands (ev):

   -12.6407  -2.1202   0.2402   0.2402

          k = 0.0000 0.2000 0.0000 (  1443 PWs)   bands (ev):

   -13.1084   0.1947   0.3696   0.3696

          k =-0.1000 0.3000-0.1000 (  1435 PWs)   bands (ev):

   -13.0088  -0.3635   0.2623   0.3274

          k =-0.2000 0.4000-0.2000 (  1451 PWs)   bands (ev):

   -12.8572  -1.1058   0.1729   0.2413

          k =-0.3000 0.5000-0.3000 (  1448 PWs)   bands (ev):

   -12.7072  -1.7241   0.1173   0.1337

          k = 0.6000-0.4000 0.6000 (  1455 PWs)   bands (ev):

   -12.6217  -2.0397   0.0053   0.1568

          k = 0.5000-0.3000 0.5000 (  1455 PWs)   bands (ev):

   -12.6406  -1.9687  -0.0526   0.2334

          k = 0.4000-0.2000 0.4000 (  1445 PWs)   bands (ev):

   -12.7546  -1.5326  -0.0330   0.3370

          k = 0.3000-0.1000 0.3000 (  1446 PWs)   bands (ev):

   -12.9123  -0.8598   0.0689   0.4299

          k = 0.2000 0.0000 0.2000 (  1438 PWs)   bands (ev):

   -13.0511  -0.1954   0.2513   0.4751

          k = 0.0000 0.4000 0.0000 (  1463 PWs)   bands (ev):

   -12.9391  -0.4928   0.1025   0.1025

          k =-0.1000 0.5000-0.1000 (  1447 PWs)   bands (ev):

   -12.8108  -1.0205  -0.0389  -0.0277

          k =-0.2000 0.6000-0.2000 (  1447 PWs)   bands (ev):

   -12.6693  -1.5461  -0.2490  -0.0840

          k = 0.7000-0.3000 0.7000 (  1457 PWs)   bands (ev):

   -12.5710  -1.8556  -0.4859  -0.0492

          k = 0.6000-0.2000 0.6000 (  1467 PWs)   bands (ev):

   -12.5597  -1.8581  -0.6500   0.0656

          k = 0.5000-0.1000 0.5000 (  1453 PWs)   bands (ev):

   -12.6404  -1.5791  -0.6510   0.2227

          k = 0.4000 0.0000 0.4000 (  1444 PWs)   bands (ev):

   -12.7765  -1.1915  -0.3938   0.3639

          k = 0.0000 0.6000 0.0000 (  1447 PWs)   bands (ev):

   -12.7118  -1.2882  -0.2047  -0.2047

          k =-0.1000 0.7000-0.1000 (  1449 PWs)   bands (ev):

   -12.5949  -1.6438  -0.4123  -0.2991

          k = 0.8000-0.2000 0.8000 (  1460 PWs)   bands (ev):

   -12.5059  -1.8155  -0.7585  -0.2833

          k = 0.7000-0.1000 0.7000 (  1458 PWs)   bands (ev):

   -12.4827  -1.7040  -1.1311  -0.1615

          k = 0.6000-0.0000 0.6000 (  1458 PWs)   bands (ev):

   -12.5354  -1.4812  -1.2322   0.0294

          k = 0.0000 0.8000 0.0000 (  1451 PWs)   bands (ev):

   -12.5110  -1.9131  -0.4374  -0.4374

          k = 0.9000-0.1000 0.9000 (  1451 PWs)   bands (ev):

   -12.4510  -2.0337  -0.6288  -0.4588

          k = 0.8000 0.0000 0.8000 (  1470 PWs)   bands (ev):

   -12.4405  -1.9011  -0.9725  -0.3574

          k = 0.0000-1.0000 0.0000 (  1428 PWs)   bands (ev):

   -12.4291  -2.1503  -0.5229  -0.5229

          k =-0.2000 0.4000 0.0000 (  1455 PWs)   bands (ev):

   -12.8953  -0.7831  -0.0419   0.2965

          k =-0.3000 0.5000-0.1000 (  1450 PWs)   bands (ev):

   -12.7474  -1.3310  -0.2805   0.2108

          k = 0.6000-0.4000 0.8000 (  1452 PWs)   bands (ev):

   -12.6213  -1.7768  -0.3967   0.1013

          k = 0.5000-0.3000 0.7000 (  1452 PWs)   bands (ev):

   -12.5715  -1.9452  -0.4283   0.0510

          k =-0.2000 0.6000 0.0000 (  1455 PWs)   bands (ev):

   -12.6874  -1.3765  -0.3761  -0.0759

          k = 0.7000-0.3000 0.9000 (  1460 PWs)   bands (ev):

   -12.5702  -1.6637  -0.6687  -0.1655

          k = 0.6000-0.2000 0.8000 (  1459 PWs)   bands (ev):

   -12.5076  -1.7617  -0.9105  -0.1737

          k = 0.5000-0.1000 0.7000 (  1460 PWs)   bands (ev):

   -12.5277  -1.6529  -1.0106  -0.0683

          k = 0.4000 0.0000 0.6000 (  1459 PWs)   bands (ev):

   -12.6212  -1.4898  -0.7860   0.0912

          k = 0.8000-0.2000 1.0000 (  1453 PWs)   bands (ev):

   -12.5048  -1.8430  -0.6274  -0.3942

          k = 0.7000-0.1000 0.9000 (  1459 PWs)   bands (ev):

   -12.4534  -1.8238  -0.9626  -0.4004

          k = 0.6000 0.0000 0.8000 (  1465 PWs)   bands (ev):

   -12.4627  -1.5561  -1.3279  -0.2698

          k =-0.2000-1.0000 0.0000 (  1450 PWs)   bands (ev):

   -12.4311  -2.0246  -0.7194  -0.5126

          k = 0.6000-0.2000 1.0000 (  1452 PWs)   bands (ev):

   -12.4871  -1.6386  -1.0757  -0.3072

          k = 0.5000-0.1000 0.9000 (  1458 PWs)   bands (ev):

   -12.4549  -1.5419  -1.3029  -0.3812

          k =-0.4000-1.0000 0.0000 (  1446 PWs)   bands (ev):

   -12.4337  -1.6726  -1.1808  -0.4958

     highest occupied level (ev):     0.4766

!    total energy              =     -30.74439523 Ry
     estimated scf accuracy    <       0.00000005 Ry

     The total energy is the sum of the following terms:
     one-electron contribution =      -5.86725352 Ry
     hartree contribution      =       6.13313627 Ry
     xc contribution           =      -6.34094895 Ry
     ewald contribution        =     -24.66932903 Ry

     convergence has been achieved in  14 iterations
     Writing meta-gga kinetic term

     Writing all to output data dir ./input_pw/LiCl/7/pwscf.save/
     Writing meta-gga kinetic term
 
     init_run     :      1.38s CPU      2.85s WALL (       1 calls)
     electrons    :     16.22s CPU     33.16s WALL (       1 calls)

     Called by init_run:
     wfcinit      :      1.24s CPU      2.49s WALL (       1 calls)
     potinit      :      0.03s CPU      0.07s WALL (       1 calls)
     hinit0       :      0.09s CPU      0.26s WALL (       1 calls)

     Called by electrons:
     c_bands      :     12.62s CPU     26.01s WALL (      14 calls)
     sum_band     :      3.07s CPU      6.05s WALL (      14 calls)
     v_of_rho     :      0.30s CPU      0.67s WALL (      15 calls)
     mix_rho      :      0.24s CPU      0.47s WALL (      14 calls)

     Called by c_bands:
     init_us_2    :      0.25s CPU      0.51s WALL (    1363 calls)
     init_us_2:cp :      0.25s CPU      0.50s WALL (    1363 calls)
     cegterg      :     12.39s CPU     25.54s WALL (     658 calls)

     Called by *egterg:
     cdiaghg      :      0.09s CPU      0.15s WALL (    1504 calls)
     h_psi        :     13.18s CPU     27.13s WALL (    1551 calls)
     g_psi        :      0.02s CPU      0.03s WALL (     846 calls)

     Called by h_psi:
     h_psi:calbec :      0.07s CPU      0.14s WALL (    1551 calls)
     vloc_psi     :      3.22s CPU      6.81s WALL (    1551 calls)
     add_vuspsi   :      0.07s CPU      0.15s WALL (    1551 calls)
     h_psi_meta   :      9.78s CPU     19.98s WALL (    1551 calls)

     General routines
     calbec       :      0.07s CPU      0.14s WALL (    1551 calls)
     fft          :      0.04s CPU      0.13s WALL (     177 calls)
     ffts         :      0.07s CPU      0.10s WALL (     339 calls)
     fftw         :     13.04s CPU     26.85s WALL (   63368 calls)
     interpolate  :      0.00s CPU      0.00s WALL (      15 calls)
 
     Parallel routines
 
     PWSCF        :     17.65s CPU     36.13s WALL

 
   This run was terminated on:  10:22:10  29Mar2023            

=------------------------------------------------------------------------------=
   JOB DONE.
=------------------------------------------------------------------------------=
