
     Program PWSCF v.7.0 starts on  7Jul2023 at 14:24:17 

     This program is part of the open-source Quantum ESPRESSO suite
     for quantum simulation of materials; please cite
         "P. Giannozzi et al., J. Phys.:Condens. Matter 21 395502 (2009);
         "P. Giannozzi et al., J. Phys.:Condens. Matter 29 465901 (2017);
         "P. Giannozzi et al., J. Chem. Phys. 152 154105 (2020);
          URL http://www.quantum-espresso.org", 
     in publications or presentations arising from this work. More details at
     http://www.quantum-espresso.org/quote

     Parallel version (MPI), running on     1 processors

     MPI processes distributed on     1 nodes
     27155 MiB available memory on the printing compute node when the environment starts
 
     Waiting for input...
     Reading input from standard input
Warning: card &CELL ignored
Warning: card / ignored

     Current dimensions of program PWSCF are:
     Max number of different atomic species (ntypx) = 10
     Max number of k-points (npk) =  40000
     Max angular momentum in pseudopotentials (lmaxx) =  4
     file Cl.SCAN.UPF2: wavefunction(s)  0D renormalized

     WARNING: the MGGA functional with ID    5 has been 
     read together with other dft terms, but it should 
     stand alone in order to work properly. The other 
     terms will be ignored.

     WARNING: the MGGA functional with ID    5 has been 
     read together with other dft terms, but it should 
     stand alone in order to work properly. The other 
     terms will be ignored.

     Subspace diagonalization in iterative solution of the eigenvalue problem:
     a serial algorithm will be used

 
     G-vector sticks info
     --------------------
     sticks:   dense  smooth     PW     G-vecs:    dense   smooth      PW
     Sum         673     673    211                11575    11575    2085
 
     Using Slab Decomposition
 


     bravais-lattice index     =            2
     lattice parameter (alat)  =       9.9110  a.u.
     unit-cell volume          =     243.3876 (a.u.)^3
     number of atoms/cell      =            2
     number of atomic types    =            2
     number of electrons       =         8.00
     number of Kohn-Sham states=            4
     kinetic-energy cutoff     =      50.0000  Ry
     charge density cutoff     =     200.0000  Ry
     scf convergence threshold =      2.0E-05
     mixing beta               =       0.2000
     number of iterations used =            8  local-TF  mixing
     Exchange-correlation= SLA  PW   SCAN SCAN
                           (   0   0   0   0   0 263 267)

     celldm(1)=   9.911046  celldm(2)=   0.000000  celldm(3)=   0.000000
     celldm(4)=   0.000000  celldm(5)=   0.000000  celldm(6)=   0.000000

     crystal axes: (cart. coord. in units of alat)
               a(1) = (  -0.500000   0.000000   0.500000 )  
               a(2) = (   0.000000   0.500000   0.500000 )  
               a(3) = (  -0.500000   0.500000   0.000000 )  

     reciprocal axes: (cart. coord. in units 2 pi/alat)
               b(1) = ( -1.000000 -1.000000  1.000000 )  
               b(2) = (  1.000000  1.000000  1.000000 )  
               b(3) = ( -1.000000  1.000000 -1.000000 )  


     PseudoPot. # 1 for Li read from file:
     ~/Documents/TA/PWDFT.jl/pseudopotentials/scan_upf/Li.SCAN.UPF2
     MD5 check sum: Not computed, couldn't open file
     Pseudo is Norm-conserving, Zval =  1.0
     Generated by new atomic code, or converted to UPF format
     Using radial grid of 1321 points,  1 beta functions with: 
                l(1) =   0

     PseudoPot. # 2 for Cl read from file:
     ~/Documents/TA/PWDFT.jl/pseudopotentials/scan_upf/Cl.SCAN.UPF2
     MD5 check sum: Not computed, couldn't open file
     Pseudo is Norm-conserving, Zval =  7.0
     Generated by new atomic code, or converted to UPF format
     Using radial grid of 1493 points,  2 beta functions with: 
                l(1) =   0
                l(2) =   1

     atomic species   valence    mass     pseudopotential
        Li             1.00     6.94100     Li( 1.00)
        Cl             7.00    35.45300     Cl( 1.00)

     48 Sym. Ops., with inversion, found



   Cartesian axes

     site n.     atom                  positions (alat units)
         1           Li  tau(   1) = (   0.0000000   0.0000000   0.0000000  )
         2           Cl  tau(   2) = (   0.5000000   0.5000000   0.5000000  )

     number of k points=    47
                       cart. coord. in units 2pi/alat
        k(    1) = (   0.0000000   0.0000000   0.0000000), wk =   0.0020000
        k(    2) = (  -0.1000000   0.1000000  -0.1000000), wk =   0.0160000
        k(    3) = (  -0.2000000   0.2000000  -0.2000000), wk =   0.0160000
        k(    4) = (  -0.3000000   0.3000000  -0.3000000), wk =   0.0160000
        k(    5) = (  -0.4000000   0.4000000  -0.4000000), wk =   0.0160000
        k(    6) = (   0.5000000  -0.5000000   0.5000000), wk =   0.0080000
        k(    7) = (   0.0000000   0.2000000   0.0000000), wk =   0.0120000
        k(    8) = (  -0.1000000   0.3000000  -0.1000000), wk =   0.0480000
        k(    9) = (  -0.2000000   0.4000000  -0.2000000), wk =   0.0480000
        k(   10) = (  -0.3000000   0.5000000  -0.3000000), wk =   0.0480000
        k(   11) = (   0.6000000  -0.4000000   0.6000000), wk =   0.0480000
        k(   12) = (   0.5000000  -0.3000000   0.5000000), wk =   0.0480000
        k(   13) = (   0.4000000  -0.2000000   0.4000000), wk =   0.0480000
        k(   14) = (   0.3000000  -0.1000000   0.3000000), wk =   0.0480000
        k(   15) = (   0.2000000   0.0000000   0.2000000), wk =   0.0240000
        k(   16) = (   0.0000000   0.4000000   0.0000000), wk =   0.0120000
        k(   17) = (  -0.1000000   0.5000000  -0.1000000), wk =   0.0480000
        k(   18) = (  -0.2000000   0.6000000  -0.2000000), wk =   0.0480000
        k(   19) = (   0.7000000  -0.3000000   0.7000000), wk =   0.0480000
        k(   20) = (   0.6000000  -0.2000000   0.6000000), wk =   0.0480000
        k(   21) = (   0.5000000  -0.1000000   0.5000000), wk =   0.0480000
        k(   22) = (   0.4000000   0.0000000   0.4000000), wk =   0.0240000
        k(   23) = (   0.0000000   0.6000000   0.0000000), wk =   0.0120000
        k(   24) = (  -0.1000000   0.7000000  -0.1000000), wk =   0.0480000
        k(   25) = (   0.8000000  -0.2000000   0.8000000), wk =   0.0480000
        k(   26) = (   0.7000000  -0.1000000   0.7000000), wk =   0.0480000
        k(   27) = (   0.6000000  -0.0000000   0.6000000), wk =   0.0240000
        k(   28) = (   0.0000000   0.8000000   0.0000000), wk =   0.0120000
        k(   29) = (   0.9000000  -0.1000000   0.9000000), wk =   0.0480000
        k(   30) = (   0.8000000   0.0000000   0.8000000), wk =   0.0240000
        k(   31) = (   0.0000000  -1.0000000   0.0000000), wk =   0.0060000
        k(   32) = (  -0.2000000   0.4000000   0.0000000), wk =   0.0480000
        k(   33) = (  -0.3000000   0.5000000  -0.1000000), wk =   0.0960000
        k(   34) = (   0.6000000  -0.4000000   0.8000000), wk =   0.0960000
        k(   35) = (   0.5000000  -0.3000000   0.7000000), wk =   0.0480000
        k(   36) = (  -0.2000000   0.6000000   0.0000000), wk =   0.0480000
        k(   37) = (   0.7000000  -0.3000000   0.9000000), wk =   0.0960000
        k(   38) = (   0.6000000  -0.2000000   0.8000000), wk =   0.0960000
        k(   39) = (   0.5000000  -0.1000000   0.7000000), wk =   0.0960000
        k(   40) = (   0.4000000   0.0000000   0.6000000), wk =   0.0480000
        k(   41) = (   0.8000000  -0.2000000   1.0000000), wk =   0.0480000
        k(   42) = (   0.7000000  -0.1000000   0.9000000), wk =   0.0960000
        k(   43) = (   0.6000000   0.0000000   0.8000000), wk =   0.0480000
        k(   44) = (  -0.2000000  -1.0000000   0.0000000), wk =   0.0240000
        k(   45) = (   0.6000000  -0.2000000   1.0000000), wk =   0.0480000
        k(   46) = (   0.5000000  -0.1000000   0.9000000), wk =   0.0480000
        k(   47) = (  -0.4000000  -1.0000000   0.0000000), wk =   0.0240000

     Dense  grid:    11575 G-vectors     FFT dimensions: (  32,  32,  32)

     Estimated max dynamical RAM per process >      21.78 MB

     WARNING: libxc functional with ID  263 depends
      on external parameters: check the user_guide of
      QE if you need to modify them or to check their
      default values.

     Initial potential from superposition of free atoms

     starting charge       7.9953, renormalised to       8.0000
     Starting wfcs are   13 randomized atomic wfcs

     total cpu time spent up to now is        3.3 secs

     Self-consistent Calculation

     iteration #  1     ecut=    50.00 Ry     beta= 0.20
     Davidson diagonalization with overlap
     ethr =  1.00E-02,  avg # of iterations =  1.0

     total cpu time spent up to now is        5.3 secs

     total energy              =     -30.70499227 Ry
     estimated scf accuracy    <       0.35477309 Ry

     iteration #  2     ecut=    50.00 Ry     beta= 0.20
     Davidson diagonalization with overlap
     ethr =  4.43E-03,  avg # of iterations =  1.0

     total cpu time spent up to now is        7.4 secs

     total energy              =     -30.74077775 Ry
     estimated scf accuracy    <       0.23042037 Ry

     iteration #  3     ecut=    50.00 Ry     beta= 0.20
     Davidson diagonalization with overlap
     ethr =  2.88E-03,  avg # of iterations =  1.0

     total cpu time spent up to now is        9.5 secs

     total energy              =     -30.74386330 Ry
     estimated scf accuracy    <       0.00222086 Ry

     iteration #  4     ecut=    50.00 Ry     beta= 0.20
     Davidson diagonalization with overlap
     ethr =  2.78E-05,  avg # of iterations =  2.0

     total cpu time spent up to now is       12.2 secs

     total energy              =     -30.74415195 Ry
     estimated scf accuracy    <       0.00115962 Ry

     iteration #  5     ecut=    50.00 Ry     beta= 0.20
     Davidson diagonalization with overlap
     ethr =  1.45E-05,  avg # of iterations =  1.5

     total cpu time spent up to now is       14.5 secs

     total energy              =     -30.74434291 Ry
     estimated scf accuracy    <       0.00021073 Ry

     iteration #  6     ecut=    50.00 Ry     beta= 0.20
     Davidson diagonalization with overlap
     ethr =  2.63E-06,  avg # of iterations =  2.0

     total cpu time spent up to now is       17.3 secs

     total energy              =     -30.74439037 Ry
     estimated scf accuracy    <       0.00006406 Ry

     iteration #  7     ecut=    50.00 Ry     beta= 0.20
     Davidson diagonalization with overlap
     ethr =  8.01E-07,  avg # of iterations =  1.0

     total cpu time spent up to now is       19.2 secs

     End of self-consistent calculation

          k = 0.0000 0.0000 0.0000 (  1459 PWs)   bands (ev):

   -13.1643   0.4818   0.4818   0.4818

          k =-0.1000 0.1000-0.1000 (  1441 PWs)   bands (ev):

   -13.1178   0.1652   0.4573   0.4573

          k =-0.2000 0.2000-0.2000 (  1435 PWs)   bands (ev):

   -12.9927  -0.5641   0.3951   0.3951

          k =-0.3000 0.3000-0.3000 (  1441 PWs)   bands (ev):

   -12.8297  -1.3417   0.3221   0.3221

          k =-0.4000 0.4000-0.4000 (  1459 PWs)   bands (ev):

   -12.6899  -1.9101   0.2660   0.2660

          k = 0.5000-0.5000 0.5000 (  1458 PWs)   bands (ev):

   -12.6342  -2.1173   0.2452   0.2452

          k = 0.0000 0.2000 0.0000 (  1443 PWs)   bands (ev):

   -13.1022   0.1995   0.3747   0.3747

          k =-0.1000 0.3000-0.1000 (  1435 PWs)   bands (ev):

   -13.0026  -0.3593   0.2673   0.3324

          k =-0.2000 0.4000-0.2000 (  1451 PWs)   bands (ev):

   -12.8509  -1.1022   0.1778   0.2463

          k =-0.3000 0.5000-0.3000 (  1448 PWs)   bands (ev):

   -12.7008  -1.7209   0.1221   0.1386

          k = 0.6000-0.4000 0.6000 (  1455 PWs)   bands (ev):

   -12.6152  -2.0367   0.0100   0.1617

          k = 0.5000-0.3000 0.5000 (  1455 PWs)   bands (ev):

   -12.6341  -1.9657  -0.0480   0.2385

          k = 0.4000-0.2000 0.4000 (  1445 PWs)   bands (ev):

   -12.7483  -1.5292  -0.0283   0.3421

          k = 0.3000-0.1000 0.3000 (  1446 PWs)   bands (ev):

   -12.9061  -0.8560   0.0736   0.4350

          k = 0.2000 0.0000 0.2000 (  1438 PWs)   bands (ev):

   -13.0450  -0.1910   0.2563   0.4803

          k = 0.0000 0.4000 0.0000 (  1463 PWs)   bands (ev):

   -12.9329  -0.4887   0.1073   0.1073

          k =-0.1000 0.5000-0.1000 (  1447 PWs)   bands (ev):

   -12.8045  -1.0169  -0.0342  -0.0230

          k =-0.2000 0.6000-0.2000 (  1447 PWs)   bands (ev):

   -12.6629  -1.5429  -0.2446  -0.0794

          k = 0.7000-0.3000 0.7000 (  1457 PWs)   bands (ev):

   -12.5645  -1.8525  -0.4817  -0.0445

          k = 0.6000-0.2000 0.6000 (  1467 PWs)   bands (ev):

   -12.5532  -1.8550  -0.6460   0.0705

          k = 0.5000-0.1000 0.5000 (  1453 PWs)   bands (ev):

   -12.6340  -1.5758  -0.6470   0.2276

          k = 0.4000 0.0000 0.4000 (  1444 PWs)   bands (ev):

   -12.7702  -1.1879  -0.3896   0.3690

          k = 0.0000 0.6000 0.0000 (  1447 PWs)   bands (ev):

   -12.7054  -1.2849  -0.2002  -0.2002

          k =-0.1000 0.7000-0.1000 (  1449 PWs)   bands (ev):

   -12.5885  -1.6406  -0.4080  -0.2947

          k = 0.8000-0.2000 0.8000 (  1460 PWs)   bands (ev):

   -12.4994  -1.8125  -0.7546  -0.2788

          k = 0.7000-0.1000 0.7000 (  1458 PWs)   bands (ev):

   -12.4761  -1.7009  -1.1275  -0.1569

          k = 0.6000-0.0000 0.6000 (  1458 PWs)   bands (ev):

   -12.5289  -1.4778  -1.2287   0.0342

          k = 0.0000 0.8000 0.0000 (  1451 PWs)   bands (ev):

   -12.5045  -1.9101  -0.4330  -0.4330

          k = 0.9000-0.1000 0.9000 (  1451 PWs)   bands (ev):

   -12.4444  -2.0308  -0.6247  -0.4544

          k = 0.8000 0.0000 0.8000 (  1470 PWs)   bands (ev):

   -12.4339  -1.8981  -0.9687  -0.3530

          k = 0.0000-1.0000 0.0000 (  1428 PWs)   bands (ev):

   -12.4226  -2.1475  -0.5186  -0.5186

          k =-0.2000 0.4000 0.0000 (  1455 PWs)   bands (ev):

   -12.8890  -0.7793  -0.0373   0.3015

          k =-0.3000 0.5000-0.1000 (  1450 PWs)   bands (ev):

   -12.7410  -1.3276  -0.2761   0.2157

          k = 0.6000-0.4000 0.8000 (  1452 PWs)   bands (ev):

   -12.6149  -1.7736  -0.3925   0.1062

          k = 0.5000-0.3000 0.7000 (  1452 PWs)   bands (ev):

   -12.5650  -1.9421  -0.4241   0.0558

          k =-0.2000 0.6000 0.0000 (  1455 PWs)   bands (ev):

   -12.6810  -1.3731  -0.3718  -0.0713

          k = 0.7000-0.3000 0.9000 (  1460 PWs)   bands (ev):

   -12.5637  -1.6606  -0.6647  -0.1610

          k = 0.6000-0.2000 0.8000 (  1459 PWs)   bands (ev):

   -12.5011  -1.7586  -0.9067  -0.1692

          k = 0.5000-0.1000 0.7000 (  1460 PWs)   bands (ev):

   -12.5212  -1.6497  -1.0070  -0.0636

          k = 0.4000 0.0000 0.6000 (  1459 PWs)   bands (ev):

   -12.6148  -1.4864  -0.7821   0.0960

          k = 0.8000-0.2000 1.0000 (  1453 PWs)   bands (ev):

   -12.4983  -1.8400  -0.6233  -0.3899

          k = 0.7000-0.1000 0.9000 (  1459 PWs)   bands (ev):

   -12.4469  -1.8208  -0.9588  -0.3961

          k = 0.6000 0.0000 0.8000 (  1465 PWs)   bands (ev):

   -12.4561  -1.5529  -1.3244  -0.2653

          k =-0.2000-1.0000 0.0000 (  1450 PWs)   bands (ev):

   -12.4245  -2.0217  -0.7154  -0.5083

          k = 0.6000-0.2000 1.0000 (  1452 PWs)   bands (ev):

   -12.4806  -1.6354  -1.0720  -0.3028

          k = 0.5000-0.1000 0.9000 (  1458 PWs)   bands (ev):

   -12.4483  -1.5386  -1.2994  -0.3768

          k =-0.4000-1.0000 0.0000 (  1446 PWs)   bands (ev):

   -12.4271  -1.6695  -1.1772  -0.4916

     highest occupied level (ev):     0.4818

!    total energy              =     -30.74439327 Ry
     estimated scf accuracy    <       0.00000532 Ry

     The total energy is the sum of the following terms:
     one-electron contribution =      -5.86319072 Ry
     hartree contribution      =       6.12764887 Ry
     xc contribution           =      -6.33947179 Ry
     ewald contribution        =     -24.66937962 Ry

     convergence has been achieved in   7 iterations
     Writing meta-gga kinetic term

     Writing all to output data dir ./input_pw/LiCl/7/pwscf.save/
     Writing meta-gga kinetic term
 
     init_run     :      1.36s CPU      3.22s WALL (       1 calls)
     electrons    :      7.89s CPU     15.88s WALL (       1 calls)

     Called by init_run:
     wfcinit      :      1.23s CPU      2.80s WALL (       1 calls)
     potinit      :      0.02s CPU      0.12s WALL (       1 calls)
     hinit0       :      0.09s CPU      0.29s WALL (       1 calls)

     Called by electrons:
     c_bands      :      6.17s CPU     12.60s WALL (       7 calls)
     sum_band     :      1.49s CPU      2.85s WALL (       7 calls)
     v_of_rho     :      0.15s CPU      0.35s WALL (       8 calls)
     mix_rho      :      0.09s CPU      0.19s WALL (       7 calls)

     Called by c_bands:
     init_us_2    :      0.13s CPU      0.27s WALL (     705 calls)
     init_us_2:cp :      0.12s CPU      0.27s WALL (     705 calls)
     cegterg      :      6.06s CPU     12.38s WALL (     329 calls)

     Called by *egterg:
     cdiaghg      :      0.05s CPU      0.08s WALL (     774 calls)
     h_psi        :      7.04s CPU     14.63s WALL (     821 calls)
     g_psi        :      0.01s CPU      0.02s WALL (     445 calls)

     Called by h_psi:
     h_psi:calbec :      0.03s CPU      0.07s WALL (     821 calls)
     vloc_psi     :      1.71s CPU      3.63s WALL (     821 calls)
     add_vuspsi   :      0.03s CPU      0.07s WALL (     821 calls)
     h_psi_meta   :      5.24s CPU     10.82s WALL (     821 calls)

     General routines
     calbec       :      0.03s CPU      0.07s WALL (     821 calls)
     fft          :      0.02s CPU      0.05s WALL (      93 calls)
     ffts         :      0.03s CPU      0.03s WALL (     152 calls)
     fftw         :      6.97s CPU     14.38s WALL (   34104 calls)
     interpolate  :      0.00s CPU      0.00s WALL (       8 calls)
 
     Parallel routines
 
     PWSCF        :      9.31s CPU     19.24s WALL

 
   This run was terminated on:  14:24:37   7Jul2023            

=------------------------------------------------------------------------------=
   JOB DONE.
=------------------------------------------------------------------------------=
