
     Program PWSCF v.7.0 starts on 14Mar2023 at 12: 2:30 

     This program is part of the open-source Quantum ESPRESSO suite
     for quantum simulation of materials; please cite
         "P. Giannozzi et al., J. Phys.:Condens. Matter 21 395502 (2009);
         "P. Giannozzi et al., J. Phys.:Condens. Matter 29 465901 (2017);
         "P. Giannozzi et al., J. Chem. Phys. 152 154105 (2020);
          URL http://www.quantum-espresso.org", 
     in publications or presentations arising from this work. More details at
     http://www.quantum-espresso.org/quote

     Parallel version (MPI), running on     1 processors

     MPI processes distributed on     1 nodes
     27461 MiB available memory on the printing compute node when the environment starts
 
     Waiting for input...
     Reading input from standard input
Warning: card &CELL ignored
Warning: card / ignored

     Current dimensions of program PWSCF are:
     Max number of different atomic species (ntypx) = 10
     Max number of k-points (npk) =  40000
     Max angular momentum in pseudopotentials (lmaxx) =  4
     file Si.SCAN.UPF2: wavefunction(s)  0D renormalized

     WARNING: the MGGA functional with ID    5 has been 
     read together with other dft terms, but it should 
     stand alone in order to work properly. The other 
     terms will be ignored.

     WARNING: the MGGA functional with ID    5 has been 
     read together with other dft terms, but it should 
     stand alone in order to work properly. The other 
     terms will be ignored.

     Subspace diagonalization in iterative solution of the eigenvalue problem:
     a serial algorithm will be used

 
     G-vector sticks info
     --------------------
     sticks:   dense  smooth     PW     G-vecs:    dense   smooth      PW
     Sum         649     649    199                10849    10849    1917
 
     Using Slab Decomposition
 


     bravais-lattice index     =            2
     lattice parameter (alat)  =       9.6820  a.u.
     unit-cell volume          =     226.9004 (a.u.)^3
     number of atoms/cell      =            2
     number of atomic types    =            2
     number of electrons       =         8.00
     number of Kohn-Sham states=            4
     kinetic-energy cutoff     =      50.0000  Ry
     charge density cutoff     =     200.0000  Ry
     scf convergence threshold =      1.0E-06
     mixing beta               =       0.0100
     number of iterations used =            8  local-TF  mixing
     Exchange-correlation= SLA  PW   SCAN SCAN
                           (   0   0   0   0   0 263 267)

     celldm(1)=   9.682000  celldm(2)=   0.000000  celldm(3)=   0.000000
     celldm(4)=   0.000000  celldm(5)=   0.000000  celldm(6)=   0.000000

     crystal axes: (cart. coord. in units of alat)
               a(1) = (  -0.500000   0.000000   0.500000 )  
               a(2) = (   0.000000   0.500000   0.500000 )  
               a(3) = (  -0.500000   0.500000   0.000000 )  

     reciprocal axes: (cart. coord. in units 2 pi/alat)
               b(1) = ( -1.000000 -1.000000  1.000000 )  
               b(2) = (  1.000000  1.000000  1.000000 )  
               b(3) = ( -1.000000  1.000000 -1.000000 )  


     PseudoPot. # 1 for Si read from file:
     ~/Documents/TA/PWDFT.jl/pseudopotentials/scan_upf/Si.SCAN.UPF2
     MD5 check sum: Not computed, couldn't open file
     Pseudo is Norm-conserving, Zval =  4.0
     Generated by new atomic code, or converted to UPF format
     Using radial grid of 1475 points,  2 beta functions with: 
                l(1) =   0
                l(2) =   1

     PseudoPot. # 2 for C  read from file:
     ~/Documents/TA/PWDFT.jl/pseudopotentials/scan_upf/C.SCAN.UPF2
     MD5 check sum: Not computed, couldn't open file
     Pseudo is Norm-conserving, Zval =  4.0
     Generated by new atomic code, or converted to UPF format
     Using radial grid of 1389 points,  1 beta functions with: 
                l(1) =   0

     atomic species   valence    mass     pseudopotential
        Si             4.00    28.08550     Si( 1.00)
        C              4.00    12.01100     C ( 1.00)

     24 Sym. Ops. (no inversion) found



   Cartesian axes

     site n.     atom                  positions (alat units)
         1           Si  tau(   1) = (   0.0000000   0.0000000   0.0000000  )
         2           C   tau(   2) = (   0.2500000   0.2500000   0.2500000  )

     number of k points=    47
                       cart. coord. in units 2pi/alat
        k(    1) = (   0.0000000   0.0000000   0.0000000), wk =   0.0020000
        k(    2) = (  -0.1000000   0.1000000  -0.1000000), wk =   0.0160000
        k(    3) = (  -0.2000000   0.2000000  -0.2000000), wk =   0.0160000
        k(    4) = (  -0.3000000   0.3000000  -0.3000000), wk =   0.0160000
        k(    5) = (  -0.4000000   0.4000000  -0.4000000), wk =   0.0160000
        k(    6) = (   0.5000000  -0.5000000   0.5000000), wk =   0.0080000
        k(    7) = (   0.0000000   0.2000000   0.0000000), wk =   0.0120000
        k(    8) = (  -0.1000000   0.3000000  -0.1000000), wk =   0.0480000
        k(    9) = (  -0.2000000   0.4000000  -0.2000000), wk =   0.0480000
        k(   10) = (  -0.3000000   0.5000000  -0.3000000), wk =   0.0480000
        k(   11) = (   0.6000000  -0.4000000   0.6000000), wk =   0.0480000
        k(   12) = (   0.5000000  -0.3000000   0.5000000), wk =   0.0480000
        k(   13) = (   0.4000000  -0.2000000   0.4000000), wk =   0.0480000
        k(   14) = (   0.3000000  -0.1000000   0.3000000), wk =   0.0480000
        k(   15) = (   0.2000000   0.0000000   0.2000000), wk =   0.0240000
        k(   16) = (   0.0000000   0.4000000   0.0000000), wk =   0.0120000
        k(   17) = (  -0.1000000   0.5000000  -0.1000000), wk =   0.0480000
        k(   18) = (  -0.2000000   0.6000000  -0.2000000), wk =   0.0480000
        k(   19) = (   0.7000000  -0.3000000   0.7000000), wk =   0.0480000
        k(   20) = (   0.6000000  -0.2000000   0.6000000), wk =   0.0480000
        k(   21) = (   0.5000000  -0.1000000   0.5000000), wk =   0.0480000
        k(   22) = (   0.4000000   0.0000000   0.4000000), wk =   0.0240000
        k(   23) = (   0.0000000   0.6000000   0.0000000), wk =   0.0120000
        k(   24) = (  -0.1000000   0.7000000  -0.1000000), wk =   0.0480000
        k(   25) = (   0.8000000  -0.2000000   0.8000000), wk =   0.0480000
        k(   26) = (   0.7000000  -0.1000000   0.7000000), wk =   0.0480000
        k(   27) = (   0.6000000  -0.0000000   0.6000000), wk =   0.0240000
        k(   28) = (   0.0000000   0.8000000   0.0000000), wk =   0.0120000
        k(   29) = (   0.9000000  -0.1000000   0.9000000), wk =   0.0480000
        k(   30) = (   0.8000000   0.0000000   0.8000000), wk =   0.0240000
        k(   31) = (   0.0000000  -1.0000000   0.0000000), wk =   0.0060000
        k(   32) = (  -0.2000000   0.4000000   0.0000000), wk =   0.0480000
        k(   33) = (  -0.3000000   0.5000000  -0.1000000), wk =   0.0960000
        k(   34) = (   0.6000000  -0.4000000   0.8000000), wk =   0.0960000
        k(   35) = (   0.5000000  -0.3000000   0.7000000), wk =   0.0480000
        k(   36) = (  -0.2000000   0.6000000   0.0000000), wk =   0.0480000
        k(   37) = (   0.7000000  -0.3000000   0.9000000), wk =   0.0960000
        k(   38) = (   0.6000000  -0.2000000   0.8000000), wk =   0.0960000
        k(   39) = (   0.5000000  -0.1000000   0.7000000), wk =   0.0960000
        k(   40) = (   0.4000000   0.0000000   0.6000000), wk =   0.0480000
        k(   41) = (   0.8000000  -0.2000000   1.0000000), wk =   0.0480000
        k(   42) = (   0.7000000  -0.1000000   0.9000000), wk =   0.0960000
        k(   43) = (   0.6000000   0.0000000   0.8000000), wk =   0.0480000
        k(   44) = (  -0.2000000  -1.0000000   0.0000000), wk =   0.0240000
        k(   45) = (   0.6000000  -0.2000000   1.0000000), wk =   0.0480000
        k(   46) = (   0.5000000  -0.1000000   0.9000000), wk =   0.0480000
        k(   47) = (  -0.4000000  -1.0000000   0.0000000), wk =   0.0240000

     Dense  grid:    10849 G-vectors     FFT dimensions: (  32,  32,  32)

     Estimated max dynamical RAM per process >      20.64 MB

     WARNING: libxc functional with ID  263 depends
      on external parameters: check the user_guide of
      QE if you need to modify them or to check their
      default values.

     Initial potential from superposition of free atoms

     starting charge       7.9995, renormalised to       8.0000
     Starting wfcs are   13 randomized atomic wfcs

     total cpu time spent up to now is        3.8 secs

     Self-consistent Calculation

     iteration #  1     ecut=    50.00 Ry     beta= 0.01
     Davidson diagonalization with overlap
     ethr =  1.00E-02,  avg # of iterations =  1.6

     total cpu time spent up to now is        6.4 secs

     total energy              =     -19.11005550 Ry
     estimated scf accuracy    <       1.25714793 Ry

     iteration #  2     ecut=    50.00 Ry     beta= 0.01
     Davidson diagonalization with overlap
     ethr =  1.00E-02,  avg # of iterations =  1.0

     total cpu time spent up to now is        8.9 secs

     total energy              =     -19.07223081 Ry
     estimated scf accuracy    <       1.23590341 Ry

     iteration #  3     ecut=    50.00 Ry     beta= 0.01
     Davidson diagonalization with overlap
     ethr =  1.00E-02,  avg # of iterations =  1.0

     total cpu time spent up to now is       10.9 secs

     total energy              =     -19.08973936 Ry
     estimated scf accuracy    <       0.09269787 Ry

     iteration #  4     ecut=    50.00 Ry     beta= 0.01
     Davidson diagonalization with overlap
     ethr =  1.16E-03,  avg # of iterations =  2.0

     total cpu time spent up to now is       14.2 secs

     total energy              =     -19.10417018 Ry
     estimated scf accuracy    <       0.02967528 Ry

     iteration #  5     ecut=    50.00 Ry     beta= 0.01
     Davidson diagonalization with overlap
     ethr =  3.71E-04,  avg # of iterations =  2.0

     total cpu time spent up to now is       17.3 secs

     total energy              =     -19.10911273 Ry
     estimated scf accuracy    <       0.11659855 Ry

     iteration #  6     ecut=    50.00 Ry     beta= 0.01
     Davidson diagonalization with overlap
     ethr =  3.71E-04,  avg # of iterations =  1.0

     total cpu time spent up to now is       19.8 secs

     total energy              =     -19.11316309 Ry
     estimated scf accuracy    <       0.14183392 Ry

     iteration #  7     ecut=    50.00 Ry     beta= 0.01
     Davidson diagonalization with overlap
     ethr =  3.71E-04,  avg # of iterations =  1.0

     total cpu time spent up to now is       22.4 secs

     total energy              =     -19.11272782 Ry
     estimated scf accuracy    <       0.05744104 Ry

     iteration #  8     ecut=    50.00 Ry     beta= 0.01
     Davidson diagonalization with overlap
     ethr =  3.71E-04,  avg # of iterations =  1.0

     total cpu time spent up to now is       24.6 secs

     total energy              =     -19.11279281 Ry
     estimated scf accuracy    <       0.01830585 Ry

     iteration #  9     ecut=    50.00 Ry     beta= 0.01
     Davidson diagonalization with overlap
     ethr =  2.29E-04,  avg # of iterations =  1.0

     total cpu time spent up to now is       27.3 secs

     total energy              =     -19.11104101 Ry
     estimated scf accuracy    <       0.01571398 Ry

     iteration # 10     ecut=    50.00 Ry     beta= 0.01
     Davidson diagonalization with overlap
     ethr =  1.96E-04,  avg # of iterations =  1.0

     total cpu time spent up to now is       29.8 secs

     total energy              =     -19.10956364 Ry
     estimated scf accuracy    <       0.00478868 Ry

     iteration # 11     ecut=    50.00 Ry     beta= 0.01
     Davidson diagonalization with overlap
     ethr =  5.99E-05,  avg # of iterations =  3.0

     total cpu time spent up to now is       34.3 secs

     total energy              =     -19.11268676 Ry
     estimated scf accuracy    <       0.01172240 Ry

     iteration # 12     ecut=    50.00 Ry     beta= 0.01
     Davidson diagonalization with overlap
     ethr =  5.99E-05,  avg # of iterations =  1.0

     total cpu time spent up to now is       36.9 secs

     total energy              =     -19.11248362 Ry
     estimated scf accuracy    <       0.01219842 Ry

     iteration # 13     ecut=    50.00 Ry     beta= 0.01
     Davidson diagonalization with overlap
     ethr =  5.99E-05,  avg # of iterations =  1.0

     total cpu time spent up to now is       39.3 secs

     total energy              =     -19.11151243 Ry
     estimated scf accuracy    <       0.01163860 Ry

     iteration # 14     ecut=    50.00 Ry     beta= 0.01
     Davidson diagonalization with overlap
     ethr =  5.99E-05,  avg # of iterations =  1.0

     total cpu time spent up to now is       41.9 secs

     total energy              =     -19.11078055 Ry
     estimated scf accuracy    <       0.00588501 Ry

     iteration # 15     ecut=    50.00 Ry     beta= 0.01
     Davidson diagonalization with overlap
     ethr =  5.99E-05,  avg # of iterations =  1.0

     total cpu time spent up to now is       44.3 secs

     total energy              =     -19.11101262 Ry
     estimated scf accuracy    <       0.00056882 Ry

     iteration # 16     ecut=    50.00 Ry     beta= 0.01
     Davidson diagonalization with overlap
     ethr =  7.11E-06,  avg # of iterations =  1.0

     total cpu time spent up to now is       46.5 secs

     total energy              =     -19.11099582 Ry
     estimated scf accuracy    <       0.00033052 Ry

     iteration # 17     ecut=    50.00 Ry     beta= 0.01
     Davidson diagonalization with overlap
     ethr =  4.13E-06,  avg # of iterations =  1.7

     total cpu time spent up to now is       49.0 secs

     total energy              =     -19.11102397 Ry
     estimated scf accuracy    <       0.00003789 Ry

     iteration # 18     ecut=    50.00 Ry     beta= 0.01
     Davidson diagonalization with overlap
     ethr =  4.74E-07,  avg # of iterations =  2.0

     total cpu time spent up to now is       51.7 secs

     total energy              =     -19.11104037 Ry
     estimated scf accuracy    <       0.00001203 Ry

     iteration # 19     ecut=    50.00 Ry     beta= 0.01
     Davidson diagonalization with overlap
     ethr =  1.50E-07,  avg # of iterations =  2.0

     total cpu time spent up to now is       54.8 secs

     total energy              =     -19.11103335 Ry
     estimated scf accuracy    <       0.00006723 Ry

     iteration # 20     ecut=    50.00 Ry     beta= 0.01
     Davidson diagonalization with overlap
     ethr =  1.50E-07,  avg # of iterations =  1.2

     total cpu time spent up to now is       57.3 secs

     total energy              =     -19.11102962 Ry
     estimated scf accuracy    <       0.00002650 Ry

     iteration # 21     ecut=    50.00 Ry     beta= 0.01
     Davidson diagonalization with overlap
     ethr =  1.50E-07,  avg # of iterations =  2.0

     total cpu time spent up to now is       60.1 secs

     End of self-consistent calculation

          k = 0.0000 0.0000 0.0000 (  1363 PWs)   bands (ev):

    -8.5446   4.2251   4.2251   4.2251

          k =-0.1000 0.1000-0.1000 (  1369 PWs)   bands (ev):

    -8.4124   3.0110   4.1089   4.1089

          k =-0.2000 0.2000-0.2000 (  1369 PWs)   bands (ev):

    -8.0276   1.2458   3.8444   3.8444

          k =-0.3000 0.3000-0.3000 (  1359 PWs)   bands (ev):

    -7.4366  -0.4446   3.5726   3.5726

          k =-0.4000 0.4000-0.4000 (  1362 PWs)   bands (ev):

    -6.7795  -1.7986   3.3820   3.3820

          k = 0.5000-0.5000 0.5000 (  1350 PWs)   bands (ev):

    -6.4393  -2.3764   3.3161   3.3161

          k = 0.0000 0.2000 0.0000 (  1371 PWs)   bands (ev):

    -8.3682   2.9894   3.8741   3.8741

          k =-0.1000 0.3000-0.1000 (  1350 PWs)   bands (ev):

    -8.0664   1.6648   3.5458   3.6272

          k =-0.2000 0.4000-0.2000 (  1360 PWs)   bands (ev):

    -7.5395   0.0594   3.2666   3.2696

          k =-0.3000 0.5000-0.3000 (  1361 PWs)   bands (ev):

    -6.8843  -1.3765   2.9030   3.1190

          k = 0.6000-0.4000 0.6000 (  1361 PWs)   bands (ev):

    -6.3852  -2.2473   2.6410   3.1293

          k = 0.5000-0.3000 0.5000 (  1364 PWs)   bands (ev):

    -6.5053  -2.0501   2.5405   3.2894

          k = 0.4000-0.2000 0.4000 (  1355 PWs)   bands (ev):

    -7.1080  -0.9319   2.6329   3.5642

          k = 0.3000-0.1000 0.3000 (  1362 PWs)   bands (ev):

    -7.7383   0.5762   2.9371   3.8771

          k = 0.2000 0.0000 0.2000 (  1367 PWs)   bands (ev):

    -8.1955   2.0588   3.4857   4.1050

          k = 0.0000 0.4000 0.0000 (  1351 PWs)   bands (ev):

    -7.8508   1.3176   3.1568   3.1568

          k =-0.1000 0.5000-0.1000 (  1351 PWs)   bands (ev):

    -7.4024   0.2238   2.7107   2.8413

          k =-0.2000 0.6000-0.2000 (  1349 PWs)   bands (ev):

    -6.7909  -1.0169   2.1231   2.6829

          k = 0.7000-0.3000 0.7000 (  1355 PWs)   bands (ev):

    -6.2191  -1.9695   1.6178   2.7094

          k = 0.6000-0.2000 0.6000 (  1360 PWs)   bands (ev):

    -6.1205  -2.1121   1.3382   2.9134

          k = 0.5000-0.1000 0.5000 (  1348 PWs)   bands (ev):

    -6.6026  -1.3527   1.3803   3.2516

          k = 0.4000 0.0000 0.4000 (  1362 PWs)   bands (ev):

    -7.2314  -0.2947   1.8918   3.6252

          k = 0.0000 0.6000 0.0000 (  1351 PWs)   bands (ev):

    -7.0386  -0.3194   2.4797   2.4797

          k =-0.1000 0.7000-0.1000 (  1343 PWs)   bands (ev):

    -6.5026  -1.1798   1.9476   2.2797

          k = 0.8000-0.2000 0.8000 (  1349 PWs)   bands (ev):

    -5.9493  -1.9261   1.1794   2.2783

          k = 0.7000-0.1000 0.7000 (  1350 PWs)   bands (ev):

    -5.7251  -2.1743   0.6347   2.4750

          k = 0.6000-0.0000 0.6000 (  1344 PWs)   bands (ev):

    -6.0451  -1.8195   0.6298   2.8306

          k = 0.0000 0.8000 0.0000 (  1351 PWs)   bands (ev):

    -6.0707  -1.7827   2.0273   2.0273

          k = 0.9000-0.1000 0.9000 (  1351 PWs)   bands (ev):

    -5.6444  -2.2932   1.5333   1.9767

          k = 0.8000 0.0000 0.8000 (  1348 PWs)   bands (ev):

    -5.4971  -2.3757   0.8223   2.1361

          k = 0.0000-1.0000 0.0000 (  1362 PWs)   bands (ev):

    -5.4920  -2.5287   1.8697   1.8697

          k =-0.2000 0.4000 0.0000 (  1353 PWs)   bands (ev):

    -7.6912   0.7169   2.7165   3.5251

          k =-0.3000 0.5000-0.1000 (  1354 PWs)   bands (ev):

    -7.1176  -0.5387   2.1243   3.2370

          k = 0.6000-0.4000 0.8000 (  1352 PWs)   bands (ev):

    -6.4848  -1.6978   1.8345   2.9515

          k = 0.5000-0.3000 0.7000 (  1356 PWs)   bands (ev):

    -6.1607  -2.2142   1.7506   2.8362

          k =-0.2000 0.6000 0.0000 (  1353 PWs)   bands (ev):

    -6.9068  -0.6136   2.0223   2.6251

          k = 0.7000-0.3000 0.9000 (  1356 PWs)   bands (ev):

    -6.3065  -1.5165   1.4153   2.3485

          k = 0.6000-0.2000 0.8000 (  1360 PWs)   bands (ev):

    -5.8743  -2.1022   0.9900   2.2983

          k = 0.5000-0.1000 0.7000 (  1351 PWs)   bands (ev):

    -5.9975  -1.9326   0.8656   2.5113

          k = 0.4000 0.0000 0.6000 (  1348 PWs)   bands (ev):

    -6.5414  -1.2343   1.2111   2.8892

          k = 0.8000-0.2000 1.0000 (  1349 PWs)   bands (ev):

    -5.9929  -1.8285   1.6034   1.9032

          k = 0.7000-0.1000 0.9000 (  1348 PWs)   bands (ev):

    -5.5937  -2.2357   0.9603   1.8217

          k = 0.6000 0.0000 0.8000 (  1354 PWs)   bands (ev):

    -5.6064  -2.1906   0.5573   2.0741

          k =-0.2000-1.0000 0.0000 (  1358 PWs)   bands (ev):

    -5.4694  -2.4513   1.5418   1.5583

          k = 0.6000-0.2000 1.0000 (  1356 PWs)   bands (ev):

    -5.8019  -1.9784   0.9037   1.8521

          k = 0.5000-0.1000 0.9000 (  1358 PWs)   bands (ev):

    -5.5612  -2.2018   0.7435   1.6216

          k =-0.4000-1.0000 0.0000 (  1350 PWs)   bands (ev):

    -5.4319  -2.3103   1.0647   1.1536

     highest occupied level (ev):     4.2251

!    total energy              =     -19.11103169 Ry
     estimated scf accuracy    <       0.00000036 Ry

     The total energy is the sum of the following terms:
     one-electron contribution =       1.42037618 Ry
     hartree contribution      =       2.74984853 Ry
     xc contribution           =      -5.47733802 Ry
     ewald contribution        =     -17.80391838 Ry

     convergence has been achieved in  21 iterations
     Writing meta-gga kinetic term

     Writing all to output data dir ./input_pw/SiC/10/pwscf.save/
     Writing meta-gga kinetic term
 
     init_run     :      1.33s CPU      3.68s WALL (       1 calls)
     electrons    :     23.17s CPU     56.33s WALL (       1 calls)

     Called by init_run:
     wfcinit      :      1.20s CPU      3.29s WALL (       1 calls)
     potinit      :      0.02s CPU      0.05s WALL (       1 calls)
     hinit0       :      0.10s CPU      0.31s WALL (       1 calls)

     Called by electrons:
     c_bands      :     18.18s CPU     44.14s WALL (      21 calls)
     sum_band     :      4.29s CPU     10.36s WALL (      21 calls)
     v_of_rho     :      0.42s CPU      1.10s WALL (      22 calls)
     mix_rho      :      0.27s CPU      0.73s WALL (      21 calls)

     Called by c_bands:
     init_us_2    :      0.34s CPU      0.71s WALL (    2021 calls)
     init_us_2:cp :      0.33s CPU      0.70s WALL (    2021 calls)
     cegterg      :     17.86s CPU     43.46s WALL (     987 calls)

     Called by *egterg:
     cdiaghg      :      0.13s CPU      0.27s WALL (    2379 calls)
     h_psi        :     18.46s CPU     45.42s WALL (    2426 calls)
     g_psi        :      0.02s CPU      0.07s WALL (    1392 calls)

     Called by h_psi:
     h_psi:calbec :      0.09s CPU      0.17s WALL (    2426 calls)
     vloc_psi     :      4.52s CPU     11.09s WALL (    2426 calls)
     add_vuspsi   :      0.09s CPU      0.35s WALL (    2426 calls)
     h_psi_meta   :     13.71s CPU     33.60s WALL (    2426 calls)

     General routines
     calbec       :      0.08s CPU      0.14s WALL (    2426 calls)
     fft          :      0.05s CPU      0.15s WALL (     261 calls)
     ffts         :      0.09s CPU      0.29s WALL (     424 calls)
     fftw         :     18.48s CPU     45.71s WALL (   93352 calls)
     interpolate  :      0.00s CPU      0.00s WALL (      22 calls)
 
     Parallel routines
 
     PWSCF        :     24.56s CPU   1m 0.18s WALL

 
   This run was terminated on:  12: 3:30  14Mar2023            

=------------------------------------------------------------------------------=
   JOB DONE.
=------------------------------------------------------------------------------=
