
     Program PWSCF v.7.0 starts on  7Jul2023 at 14:30:56 

     This program is part of the open-source Quantum ESPRESSO suite
     for quantum simulation of materials; please cite
         "P. Giannozzi et al., J. Phys.:Condens. Matter 21 395502 (2009);
         "P. Giannozzi et al., J. Phys.:Condens. Matter 29 465901 (2017);
         "P. Giannozzi et al., J. Chem. Phys. 152 154105 (2020);
          URL http://www.quantum-espresso.org", 
     in publications or presentations arising from this work. More details at
     http://www.quantum-espresso.org/quote

     Parallel version (MPI), running on     1 processors

     MPI processes distributed on     1 nodes
     27466 MiB available memory on the printing compute node when the environment starts
 
     Waiting for input...
     Reading input from standard input
Warning: card &CELL ignored
Warning: card / ignored

     Current dimensions of program PWSCF are:
     Max number of different atomic species (ntypx) = 10
     Max number of k-points (npk) =  40000
     Max angular momentum in pseudopotentials (lmaxx) =  4
     file Si.SCAN.UPF2: wavefunction(s)  0D renormalized

     WARNING: the MGGA functional with ID    5 has been 
     read together with other dft terms, but it should 
     stand alone in order to work properly. The other 
     terms will be ignored.

     WARNING: the MGGA functional with ID    5 has been 
     read together with other dft terms, but it should 
     stand alone in order to work properly. The other 
     terms will be ignored.

     Subspace diagonalization in iterative solution of the eigenvalue problem:
     a serial algorithm will be used

 
     G-vector sticks info
     --------------------
     sticks:   dense  smooth     PW     G-vecs:    dense   smooth      PW
     Sum         571     571    187                 8873     8873    1639
 
     Using Slab Decomposition
 


     bravais-lattice index     =            2
     lattice parameter (alat)  =       9.0707  a.u.
     unit-cell volume          =     186.5780 (a.u.)^3
     number of atoms/cell      =            2
     number of atomic types    =            2
     number of electrons       =         8.00
     number of Kohn-Sham states=            4
     kinetic-energy cutoff     =      50.0000  Ry
     charge density cutoff     =     200.0000  Ry
     scf convergence threshold =      2.0E-05
     mixing beta               =       0.2000
     number of iterations used =            8  local-TF  mixing
     Exchange-correlation= SLA  PW   SCAN SCAN
                           (   0   0   0   0   0 263 267)

     celldm(1)=   9.070685  celldm(2)=   0.000000  celldm(3)=   0.000000
     celldm(4)=   0.000000  celldm(5)=   0.000000  celldm(6)=   0.000000

     crystal axes: (cart. coord. in units of alat)
               a(1) = (  -0.500000   0.000000   0.500000 )  
               a(2) = (   0.000000   0.500000   0.500000 )  
               a(3) = (  -0.500000   0.500000   0.000000 )  

     reciprocal axes: (cart. coord. in units 2 pi/alat)
               b(1) = ( -1.000000 -1.000000  1.000000 )  
               b(2) = (  1.000000  1.000000  1.000000 )  
               b(3) = ( -1.000000  1.000000 -1.000000 )  


     PseudoPot. # 1 for Si read from file:
     ~/Documents/TA/PWDFT.jl/pseudopotentials/scan_upf/Si.SCAN.UPF2
     MD5 check sum: Not computed, couldn't open file
     Pseudo is Norm-conserving, Zval =  4.0
     Generated by new atomic code, or converted to UPF format
     Using radial grid of 1475 points,  2 beta functions with: 
                l(1) =   0
                l(2) =   1

     PseudoPot. # 2 for C  read from file:
     ~/Documents/TA/PWDFT.jl/pseudopotentials/scan_upf/C.SCAN.UPF2
     MD5 check sum: Not computed, couldn't open file
     Pseudo is Norm-conserving, Zval =  4.0
     Generated by new atomic code, or converted to UPF format
     Using radial grid of 1389 points,  1 beta functions with: 
                l(1) =   0

     atomic species   valence    mass     pseudopotential
        Si             4.00    28.08550     Si( 1.00)
        C              4.00    12.01100     C ( 1.00)

     24 Sym. Ops. (no inversion) found



   Cartesian axes

     site n.     atom                  positions (alat units)
         1           Si  tau(   1) = (   0.0000000   0.0000000   0.0000000  )
         2           C   tau(   2) = (   0.2500000   0.2500000   0.2500000  )

     number of k points=    47
                       cart. coord. in units 2pi/alat
        k(    1) = (   0.0000000   0.0000000   0.0000000), wk =   0.0020000
        k(    2) = (  -0.1000000   0.1000000  -0.1000000), wk =   0.0160000
        k(    3) = (  -0.2000000   0.2000000  -0.2000000), wk =   0.0160000
        k(    4) = (  -0.3000000   0.3000000  -0.3000000), wk =   0.0160000
        k(    5) = (  -0.4000000   0.4000000  -0.4000000), wk =   0.0160000
        k(    6) = (   0.5000000  -0.5000000   0.5000000), wk =   0.0080000
        k(    7) = (   0.0000000   0.2000000   0.0000000), wk =   0.0120000
        k(    8) = (  -0.1000000   0.3000000  -0.1000000), wk =   0.0480000
        k(    9) = (  -0.2000000   0.4000000  -0.2000000), wk =   0.0480000
        k(   10) = (  -0.3000000   0.5000000  -0.3000000), wk =   0.0480000
        k(   11) = (   0.6000000  -0.4000000   0.6000000), wk =   0.0480000
        k(   12) = (   0.5000000  -0.3000000   0.5000000), wk =   0.0480000
        k(   13) = (   0.4000000  -0.2000000   0.4000000), wk =   0.0480000
        k(   14) = (   0.3000000  -0.1000000   0.3000000), wk =   0.0480000
        k(   15) = (   0.2000000   0.0000000   0.2000000), wk =   0.0240000
        k(   16) = (   0.0000000   0.4000000   0.0000000), wk =   0.0120000
        k(   17) = (  -0.1000000   0.5000000  -0.1000000), wk =   0.0480000
        k(   18) = (  -0.2000000   0.6000000  -0.2000000), wk =   0.0480000
        k(   19) = (   0.7000000  -0.3000000   0.7000000), wk =   0.0480000
        k(   20) = (   0.6000000  -0.2000000   0.6000000), wk =   0.0480000
        k(   21) = (   0.5000000  -0.1000000   0.5000000), wk =   0.0480000
        k(   22) = (   0.4000000   0.0000000   0.4000000), wk =   0.0240000
        k(   23) = (   0.0000000   0.6000000   0.0000000), wk =   0.0120000
        k(   24) = (  -0.1000000   0.7000000  -0.1000000), wk =   0.0480000
        k(   25) = (   0.8000000  -0.2000000   0.8000000), wk =   0.0480000
        k(   26) = (   0.7000000  -0.1000000   0.7000000), wk =   0.0480000
        k(   27) = (   0.6000000  -0.0000000   0.6000000), wk =   0.0240000
        k(   28) = (   0.0000000   0.8000000   0.0000000), wk =   0.0120000
        k(   29) = (   0.9000000  -0.1000000   0.9000000), wk =   0.0480000
        k(   30) = (   0.8000000   0.0000000   0.8000000), wk =   0.0240000
        k(   31) = (   0.0000000  -1.0000000   0.0000000), wk =   0.0060000
        k(   32) = (  -0.2000000   0.4000000   0.0000000), wk =   0.0480000
        k(   33) = (  -0.3000000   0.5000000  -0.1000000), wk =   0.0960000
        k(   34) = (   0.6000000  -0.4000000   0.8000000), wk =   0.0960000
        k(   35) = (   0.5000000  -0.3000000   0.7000000), wk =   0.0480000
        k(   36) = (  -0.2000000   0.6000000   0.0000000), wk =   0.0480000
        k(   37) = (   0.7000000  -0.3000000   0.9000000), wk =   0.0960000
        k(   38) = (   0.6000000  -0.2000000   0.8000000), wk =   0.0960000
        k(   39) = (   0.5000000  -0.1000000   0.7000000), wk =   0.0960000
        k(   40) = (   0.4000000   0.0000000   0.6000000), wk =   0.0480000
        k(   41) = (   0.8000000  -0.2000000   1.0000000), wk =   0.0480000
        k(   42) = (   0.7000000  -0.1000000   0.9000000), wk =   0.0960000
        k(   43) = (   0.6000000   0.0000000   0.8000000), wk =   0.0480000
        k(   44) = (  -0.2000000  -1.0000000   0.0000000), wk =   0.0240000
        k(   45) = (   0.6000000  -0.2000000   1.0000000), wk =   0.0480000
        k(   46) = (   0.5000000  -0.1000000   0.9000000), wk =   0.0480000
        k(   47) = (  -0.4000000  -1.0000000   0.0000000), wk =   0.0240000

     Dense  grid:     8873 G-vectors     FFT dimensions: (  30,  30,  30)

     Estimated max dynamical RAM per process >      16.96 MB

     WARNING: libxc functional with ID  263 depends
      on external parameters: check the user_guide of
      QE if you need to modify them or to check their
      default values.

     Initial potential from superposition of free atoms

     starting charge       7.9995, renormalised to       8.0000
     Starting wfcs are   13 randomized atomic wfcs

     total cpu time spent up to now is        3.7 secs

     Self-consistent Calculation

     iteration #  1     ecut=    50.00 Ry     beta= 0.20
     Davidson diagonalization with overlap
     ethr =  1.00E-02,  avg # of iterations =  1.9

     total cpu time spent up to now is        6.9 secs

     total energy              =     -19.20207512 Ry
     estimated scf accuracy    <       1.57350307 Ry

     iteration #  2     ecut=    50.00 Ry     beta= 0.20
     Davidson diagonalization with overlap
     ethr =  1.00E-02,  avg # of iterations =  1.0

     total cpu time spent up to now is        9.2 secs

     total energy              =     -19.16427892 Ry
     estimated scf accuracy    <       0.98267082 Ry

     iteration #  3     ecut=    50.00 Ry     beta= 0.20
     Davidson diagonalization with overlap
     ethr =  1.00E-02,  avg # of iterations =  1.0

     total cpu time spent up to now is       12.0 secs

     total energy              =     -19.21179030 Ry
     estimated scf accuracy    <       0.03384904 Ry

     iteration #  4     ecut=    50.00 Ry     beta= 0.20
     Davidson diagonalization with overlap
     ethr =  4.23E-04,  avg # of iterations =  2.0

     total cpu time spent up to now is       15.4 secs

     total energy              =     -19.21888868 Ry
     estimated scf accuracy    <       0.01535499 Ry

     iteration #  5     ecut=    50.00 Ry     beta= 0.20
     Davidson diagonalization with overlap
     ethr =  1.92E-04,  avg # of iterations =  1.0

     total cpu time spent up to now is       17.6 secs

     total energy              =     -19.21927453 Ry
     estimated scf accuracy    <       0.02113090 Ry

     iteration #  6     ecut=    50.00 Ry     beta= 0.20
     Davidson diagonalization with overlap
     ethr =  1.92E-04,  avg # of iterations =  1.0

     total cpu time spent up to now is       20.1 secs

     total energy              =     -19.22023664 Ry
     estimated scf accuracy    <       0.00179768 Ry

     iteration #  7     ecut=    50.00 Ry     beta= 0.20
     Davidson diagonalization with overlap
     ethr =  2.25E-05,  avg # of iterations =  2.0

     total cpu time spent up to now is       22.7 secs

     total energy              =     -19.22008951 Ry
     estimated scf accuracy    <       0.00242986 Ry

     iteration #  8     ecut=    50.00 Ry     beta= 0.20
     Davidson diagonalization with overlap
     ethr =  2.25E-05,  avg # of iterations =  2.0

     total cpu time spent up to now is       24.2 secs

     total energy              =     -19.22025855 Ry
     estimated scf accuracy    <       0.00003401 Ry

     iteration #  9     ecut=    50.00 Ry     beta= 0.20
     Davidson diagonalization with overlap
     ethr =  4.25E-07,  avg # of iterations =  3.2

     total cpu time spent up to now is       25.3 secs

     total energy              =     -19.22022166 Ry
     estimated scf accuracy    <       0.00014857 Ry

     iteration # 10     ecut=    50.00 Ry     beta= 0.20
     Davidson diagonalization with overlap
     ethr =  4.25E-07,  avg # of iterations =  3.0

     total cpu time spent up to now is       26.4 secs

     End of self-consistent calculation

          k = 0.0000 0.0000 0.0000 (  1139 PWs)   bands (ev):

    -7.9542   6.0582   6.0582   6.0582

          k =-0.1000 0.1000-0.1000 (  1118 PWs)   bands (ev):

    -7.7956   4.9987   5.9336   5.9336

          k =-0.2000 0.2000-0.2000 (  1119 PWs)   bands (ev):

    -7.3309   3.0542   5.6399   5.6399

          k =-0.3000 0.3000-0.3000 (  1095 PWs)   bands (ev):

    -6.6056   1.0805   5.3411   5.3411

          k =-0.4000 0.4000-0.4000 (  1113 PWs)   bands (ev):

    -5.7679  -0.5613   5.1294   5.1294

          k = 0.5000-0.5000 0.5000 (  1104 PWs)   bands (ev):

    -5.3063  -1.2972   5.0561   5.0561

          k = 0.0000 0.2000 0.0000 (  1119 PWs)   bands (ev):

    -7.7425   5.1037   5.6524   5.6524

          k =-0.1000 0.3000-0.1000 (  1114 PWs)   bands (ev):

    -7.3790   3.6155   5.2728   5.4286

          k =-0.2000 0.4000-0.2000 (  1109 PWs)   bands (ev):

    -6.7362   1.7286   4.9599   5.0591

          k =-0.3000 0.5000-0.3000 (  1117 PWs)   bands (ev):

    -5.9136  -0.0061   4.6540   4.8023

          k = 0.6000-0.4000 0.6000 (  1121 PWs)   bands (ev):

    -5.2492  -1.1049   4.3487   4.8264

          k = 0.5000-0.3000 0.5000 (  1123 PWs)   bands (ev):

    -5.4135  -0.8507   4.2147   5.0205

          k = 0.4000-0.2000 0.4000 (  1109 PWs)   bands (ev):

    -6.1977   0.5366   4.2904   5.3412

          k = 0.3000-0.1000 0.3000 (  1116 PWs)   bands (ev):

    -6.9794   2.3408   4.5975   5.6978

          k = 0.2000 0.0000 0.2000 (  1123 PWs)   bands (ev):

    -7.5345   4.0373   5.2009   5.9474

          k = 0.0000 0.4000 0.0000 (  1114 PWs)   bands (ev):

    -7.1197   3.3880   4.8133   4.8133

          k =-0.1000 0.5000-0.1000 (  1101 PWs)   bands (ev):

    -6.5741   2.0992   4.3423   4.4510

          k =-0.2000 0.6000-0.2000 (  1105 PWs)   bands (ev):

    -5.8130   0.5758   3.6981   4.2749

          k = 0.7000-0.3000 0.7000 (  1111 PWs)   bands (ev):

    -5.0651  -0.6381   3.1197   4.3173

          k = 0.6000-0.2000 0.6000 (  1120 PWs)   bands (ev):

    -4.9260  -0.8317   2.7726   4.5655

          k = 0.5000-0.1000 0.5000 (  1116 PWs)   bands (ev):

    -5.5652   0.1475   2.7698   4.9691

          k = 0.4000 0.0000 0.4000 (  1119 PWs)   bands (ev):

    -6.3574   1.4264   3.3311   5.4099

          k = 0.0000 0.6000 0.0000 (  1098 PWs)   bands (ev):

    -6.1323   1.5601   4.0260   4.0260

          k =-0.1000 0.7000-0.1000 (  1109 PWs)   bands (ev):

    -5.4661   0.5396   3.3903   3.7946

          k = 0.8000-0.2000 0.8000 (  1112 PWs)   bands (ev):

    -4.7467  -0.3857   2.4532   3.8003

          k = 0.7000-0.1000 0.7000 (  1127 PWs)   bands (ev):

    -4.4294  -0.7150   1.7721   4.0371

          k = 0.6000-0.0000 0.6000 (  1123 PWs)   bands (ev):

    -4.8500  -0.2851   1.7638   4.4644

          k = 0.0000 0.8000 0.0000 (  1102 PWs)   bands (ev):

    -4.9252  -0.1746   3.5002   3.5002

          k = 0.9000-0.1000 0.9000 (  1121 PWs)   bands (ev):

    -4.3625  -0.8085   2.8754   3.4424

          k = 0.8000 0.0000 0.8000 (  1122 PWs)   bands (ev):

    -4.1466  -0.8994   1.9583   3.6327

          k = 0.0000-1.0000 0.0000 (  1106 PWs)   bands (ev):

    -4.1583  -1.1249   3.3185   3.3185

          k =-0.2000 0.4000 0.0000 (  1110 PWs)   bands (ev):

    -6.9242   2.6032   4.3026   5.3002

          k =-0.3000 0.5000-0.1000 (  1107 PWs)   bands (ev):

    -6.2175   1.1128   3.6559   4.9600

          k = 0.6000-0.4000 0.8000 (  1112 PWs)   bands (ev):

    -5.4084  -0.3312   3.3795   4.6075

          k = 0.5000-0.3000 0.7000 (  1118 PWs)   bands (ev):

    -4.9690  -1.0026   3.3073   4.4610

          k =-0.2000 0.6000 0.0000 (  1106 PWs)   bands (ev):

    -5.9645   1.1680   3.4838   4.2107

          k = 0.7000-0.3000 0.9000 (  1114 PWs)   bands (ev):

    -5.2034   0.0738   2.7833   3.8607

          k = 0.6000-0.2000 0.8000 (  1112 PWs)   bands (ev):

    -4.6229  -0.6920   2.2899   3.7991

          k = 0.5000-0.1000 0.7000 (  1116 PWs)   bands (ev):

    -4.7862  -0.4698   2.1118   4.0648

          k = 0.4000 0.0000 0.6000 (  1112 PWs)   bands (ev):

    -5.4956   0.3915   2.5051   4.5300

          k = 0.8000-0.2000 1.0000 (  1111 PWs)   bands (ev):

    -4.8164  -0.2233   2.9769   3.3133

          k = 0.7000-0.1000 0.9000 (  1116 PWs)   bands (ev):

    -4.2779  -0.7158   2.1434   3.2204

          k = 0.6000 0.0000 0.8000 (  1112 PWs)   bands (ev):

    -4.2790  -0.6611   1.6266   3.5318

          k =-0.2000-1.0000 0.0000 (  1116 PWs)   bands (ev):

    -4.1208  -1.0036   2.8881   2.9032

          k = 0.6000-0.2000 1.0000 (  1123 PWs)   bands (ev):

    -4.5479  -0.4030   2.0946   3.2324

          k = 0.5000-0.1000 0.9000 (  1116 PWs)   bands (ev):

    -4.2222  -0.6629   1.8779   2.9443

          k =-0.4000-1.0000 0.0000 (  1114 PWs)   bands (ev):

    -4.0574  -0.7649   2.2386   2.3771

     highest occupied level (ev):     6.0582

!    total energy              =     -19.22024210 Ry
     estimated scf accuracy    <       0.00000154 Ry

     The total energy is the sum of the following terms:
     one-electron contribution =       2.90981012 Ry
     hartree contribution      =       2.58256798 Ry
     xc contribution           =      -5.70881506 Ry
     ewald contribution        =     -19.00380513 Ry

     convergence has been achieved in  10 iterations
     Writing meta-gga kinetic term

     Writing all to output data dir ./input_pw/SiC/10/pwscf.save/
     Writing meta-gga kinetic term
 
     init_run     :      1.75s CPU      3.62s WALL (       1 calls)
     electrons    :     13.68s CPU     22.86s WALL (       1 calls)

     Called by init_run:
     wfcinit      :      1.63s CPU      3.33s WALL (       1 calls)
     potinit      :      0.02s CPU      0.05s WALL (       1 calls)
     hinit0       :      0.09s CPU      0.21s WALL (       1 calls)

     Called by electrons:
     c_bands      :     11.14s CPU     18.77s WALL (      10 calls)
     sum_band     :      2.30s CPU      3.52s WALL (      10 calls)
     v_of_rho     :      0.17s CPU      0.27s WALL (      11 calls)
     mix_rho      :      0.09s CPU      0.19s WALL (      10 calls)

     Called by c_bands:
     init_us_2    :      0.12s CPU      0.26s WALL (     987 calls)
     init_us_2:cp :      0.12s CPU      0.26s WALL (     987 calls)
     cegterg      :     11.02s CPU     18.54s WALL (     470 calls)

     Called by *egterg:
     cdiaghg      :      0.06s CPU      0.09s WALL (    1316 calls)
     h_psi        :     12.37s CPU     21.34s WALL (    1363 calls)
     g_psi        :      0.01s CPU      0.01s WALL (     846 calls)

     Called by h_psi:
     h_psi:calbec :      0.04s CPU      0.08s WALL (    1363 calls)
     vloc_psi     :      3.04s CPU      5.11s WALL (    1363 calls)
     add_vuspsi   :      0.04s CPU      0.06s WALL (    1363 calls)
     h_psi_meta   :      9.24s CPU     16.07s WALL (    1363 calls)

     General routines
     calbec       :      0.03s CPU      0.08s WALL (    1363 calls)
     fft          :      0.03s CPU      0.06s WALL (     129 calls)
     ffts         :      0.05s CPU      0.07s WALL (     189 calls)
     fftw         :     13.04s CPU     21.95s WALL (   51008 calls)
     interpolate  :      0.00s CPU      0.00s WALL (      11 calls)
 
     Parallel routines
 
     PWSCF        :     15.50s CPU     26.88s WALL

 
   This run was terminated on:  14:31:23   7Jul2023            

=------------------------------------------------------------------------------=
   JOB DONE.
=------------------------------------------------------------------------------=
