
     Program PWSCF v.7.0 starts on 29Mar2023 at 12:56: 4 

     This program is part of the open-source Quantum ESPRESSO suite
     for quantum simulation of materials; please cite
         "P. Giannozzi et al., J. Phys.:Condens. Matter 21 395502 (2009);
         "P. Giannozzi et al., J. Phys.:Condens. Matter 29 465901 (2017);
         "P. Giannozzi et al., J. Chem. Phys. 152 154105 (2020);
          URL http://www.quantum-espresso.org", 
     in publications or presentations arising from this work. More details at
     http://www.quantum-espresso.org/quote

     Parallel version (MPI), running on     1 processors

     MPI processes distributed on     1 nodes
     22945 MiB available memory on the printing compute node when the environment starts
 
     Waiting for input...
     Reading input from standard input
Warning: card &CELL ignored
Warning: card / ignored

     Current dimensions of program PWSCF are:
     Max number of different atomic species (ntypx) = 10
     Max number of k-points (npk) =  40000
     Max angular momentum in pseudopotentials (lmaxx) =  4
     file Si.SCAN.UPF2: wavefunction(s)  0D renormalized

     WARNING: the MGGA functional with ID    5 has been 
     read together with other dft terms, but it should 
     stand alone in order to work properly. The other 
     terms will be ignored.

     WARNING: the MGGA functional with ID    5 has been 
     read together with other dft terms, but it should 
     stand alone in order to work properly. The other 
     terms will be ignored.

     Subspace diagonalization in iterative solution of the eigenvalue problem:
     a serial algorithm will be used

 
     G-vector sticks info
     --------------------
     sticks:   dense  smooth     PW     G-vecs:    dense   smooth      PW
     Sum         571     571    187                 8873     8873    1639
 
     Using Slab Decomposition
 


     bravais-lattice index     =            2
     lattice parameter (alat)  =       9.0707  a.u.
     unit-cell volume          =     186.5780 (a.u.)^3
     number of atoms/cell      =            2
     number of atomic types    =            2
     number of electrons       =         8.00
     number of Kohn-Sham states=            4
     kinetic-energy cutoff     =      50.0000  Ry
     charge density cutoff     =     200.0000  Ry
     scf convergence threshold =      1.0E-06
     mixing beta               =       0.0100
     number of iterations used =            8  local-TF  mixing
     Exchange-correlation= SLA  PW   SCAN SCAN
                           (   0   0   0   0   0 263 267)

     celldm(1)=   9.070685  celldm(2)=   0.000000  celldm(3)=   0.000000
     celldm(4)=   0.000000  celldm(5)=   0.000000  celldm(6)=   0.000000

     crystal axes: (cart. coord. in units of alat)
               a(1) = (  -0.500000   0.000000   0.500000 )  
               a(2) = (   0.000000   0.500000   0.500000 )  
               a(3) = (  -0.500000   0.500000   0.000000 )  

     reciprocal axes: (cart. coord. in units 2 pi/alat)
               b(1) = ( -1.000000 -1.000000  1.000000 )  
               b(2) = (  1.000000  1.000000  1.000000 )  
               b(3) = ( -1.000000  1.000000 -1.000000 )  


     PseudoPot. # 1 for Si read from file:
     ~/Documents/TA/PWDFT.jl/pseudopotentials/scan_upf/Si.SCAN.UPF2
     MD5 check sum: Not computed, couldn't open file
     Pseudo is Norm-conserving, Zval =  4.0
     Generated by new atomic code, or converted to UPF format
     Using radial grid of 1475 points,  2 beta functions with: 
                l(1) =   0
                l(2) =   1

     PseudoPot. # 2 for C  read from file:
     ~/Documents/TA/PWDFT.jl/pseudopotentials/scan_upf/C.SCAN.UPF2
     MD5 check sum: Not computed, couldn't open file
     Pseudo is Norm-conserving, Zval =  4.0
     Generated by new atomic code, or converted to UPF format
     Using radial grid of 1389 points,  1 beta functions with: 
                l(1) =   0

     atomic species   valence    mass     pseudopotential
        Si             4.00    28.08550     Si( 1.00)
        C              4.00    12.01100     C ( 1.00)

     24 Sym. Ops. (no inversion) found



   Cartesian axes

     site n.     atom                  positions (alat units)
         1           Si  tau(   1) = (   0.0000000   0.0000000   0.0000000  )
         2           C   tau(   2) = (   0.2500000   0.2500000   0.2500000  )

     number of k points=    47
                       cart. coord. in units 2pi/alat
        k(    1) = (   0.0000000   0.0000000   0.0000000), wk =   0.0020000
        k(    2) = (  -0.1000000   0.1000000  -0.1000000), wk =   0.0160000
        k(    3) = (  -0.2000000   0.2000000  -0.2000000), wk =   0.0160000
        k(    4) = (  -0.3000000   0.3000000  -0.3000000), wk =   0.0160000
        k(    5) = (  -0.4000000   0.4000000  -0.4000000), wk =   0.0160000
        k(    6) = (   0.5000000  -0.5000000   0.5000000), wk =   0.0080000
        k(    7) = (   0.0000000   0.2000000   0.0000000), wk =   0.0120000
        k(    8) = (  -0.1000000   0.3000000  -0.1000000), wk =   0.0480000
        k(    9) = (  -0.2000000   0.4000000  -0.2000000), wk =   0.0480000
        k(   10) = (  -0.3000000   0.5000000  -0.3000000), wk =   0.0480000
        k(   11) = (   0.6000000  -0.4000000   0.6000000), wk =   0.0480000
        k(   12) = (   0.5000000  -0.3000000   0.5000000), wk =   0.0480000
        k(   13) = (   0.4000000  -0.2000000   0.4000000), wk =   0.0480000
        k(   14) = (   0.3000000  -0.1000000   0.3000000), wk =   0.0480000
        k(   15) = (   0.2000000   0.0000000   0.2000000), wk =   0.0240000
        k(   16) = (   0.0000000   0.4000000   0.0000000), wk =   0.0120000
        k(   17) = (  -0.1000000   0.5000000  -0.1000000), wk =   0.0480000
        k(   18) = (  -0.2000000   0.6000000  -0.2000000), wk =   0.0480000
        k(   19) = (   0.7000000  -0.3000000   0.7000000), wk =   0.0480000
        k(   20) = (   0.6000000  -0.2000000   0.6000000), wk =   0.0480000
        k(   21) = (   0.5000000  -0.1000000   0.5000000), wk =   0.0480000
        k(   22) = (   0.4000000   0.0000000   0.4000000), wk =   0.0240000
        k(   23) = (   0.0000000   0.6000000   0.0000000), wk =   0.0120000
        k(   24) = (  -0.1000000   0.7000000  -0.1000000), wk =   0.0480000
        k(   25) = (   0.8000000  -0.2000000   0.8000000), wk =   0.0480000
        k(   26) = (   0.7000000  -0.1000000   0.7000000), wk =   0.0480000
        k(   27) = (   0.6000000  -0.0000000   0.6000000), wk =   0.0240000
        k(   28) = (   0.0000000   0.8000000   0.0000000), wk =   0.0120000
        k(   29) = (   0.9000000  -0.1000000   0.9000000), wk =   0.0480000
        k(   30) = (   0.8000000   0.0000000   0.8000000), wk =   0.0240000
        k(   31) = (   0.0000000  -1.0000000   0.0000000), wk =   0.0060000
        k(   32) = (  -0.2000000   0.4000000   0.0000000), wk =   0.0480000
        k(   33) = (  -0.3000000   0.5000000  -0.1000000), wk =   0.0960000
        k(   34) = (   0.6000000  -0.4000000   0.8000000), wk =   0.0960000
        k(   35) = (   0.5000000  -0.3000000   0.7000000), wk =   0.0480000
        k(   36) = (  -0.2000000   0.6000000   0.0000000), wk =   0.0480000
        k(   37) = (   0.7000000  -0.3000000   0.9000000), wk =   0.0960000
        k(   38) = (   0.6000000  -0.2000000   0.8000000), wk =   0.0960000
        k(   39) = (   0.5000000  -0.1000000   0.7000000), wk =   0.0960000
        k(   40) = (   0.4000000   0.0000000   0.6000000), wk =   0.0480000
        k(   41) = (   0.8000000  -0.2000000   1.0000000), wk =   0.0480000
        k(   42) = (   0.7000000  -0.1000000   0.9000000), wk =   0.0960000
        k(   43) = (   0.6000000   0.0000000   0.8000000), wk =   0.0480000
        k(   44) = (  -0.2000000  -1.0000000   0.0000000), wk =   0.0240000
        k(   45) = (   0.6000000  -0.2000000   1.0000000), wk =   0.0480000
        k(   46) = (   0.5000000  -0.1000000   0.9000000), wk =   0.0480000
        k(   47) = (  -0.4000000  -1.0000000   0.0000000), wk =   0.0240000

     Dense  grid:     8873 G-vectors     FFT dimensions: (  30,  30,  30)

     Estimated max dynamical RAM per process >      16.96 MB

     WARNING: libxc functional with ID  263 depends
      on external parameters: check the user_guide of
      QE if you need to modify them or to check their
      default values.

     Initial potential from superposition of free atoms

     starting charge       7.9995, renormalised to       8.0000
     Starting wfcs are   13 randomized atomic wfcs

     total cpu time spent up to now is        3.6 secs

     Self-consistent Calculation

     iteration #  1     ecut=    50.00 Ry     beta= 0.01
     Davidson diagonalization with overlap
     ethr =  1.00E-02,  avg # of iterations =  1.9

     total cpu time spent up to now is        6.6 secs

     total energy              =     -19.22469018 Ry
     estimated scf accuracy    <       1.57350307 Ry

     iteration #  2     ecut=    50.00 Ry     beta= 0.01
     Davidson diagonalization with overlap
     ethr =  1.00E-02,  avg # of iterations =  1.0

     total cpu time spent up to now is        9.2 secs

     total energy              =     -19.16566353 Ry
     estimated scf accuracy    <       1.54897455 Ry

     iteration #  3     ecut=    50.00 Ry     beta= 0.01
     Davidson diagonalization with overlap
     ethr =  1.00E-02,  avg # of iterations =  1.0

     total cpu time spent up to now is       11.8 secs

     total energy              =     -19.20684944 Ry
     estimated scf accuracy    <       0.02606024 Ry

     iteration #  4     ecut=    50.00 Ry     beta= 0.01
     Davidson diagonalization with overlap
     ethr =  3.26E-04,  avg # of iterations =  2.4

     total cpu time spent up to now is       15.5 secs

     total energy              =     -19.21558351 Ry
     estimated scf accuracy    <       0.03485516 Ry

     iteration #  5     ecut=    50.00 Ry     beta= 0.01
     Davidson diagonalization with overlap
     ethr =  3.26E-04,  avg # of iterations =  1.9

     total cpu time spent up to now is       18.7 secs

     total energy              =     -19.21689555 Ry
     estimated scf accuracy    <       0.12266356 Ry

     iteration #  6     ecut=    50.00 Ry     beta= 0.01
     Davidson diagonalization with overlap
     ethr =  3.26E-04,  avg # of iterations =  1.0

     total cpu time spent up to now is       21.3 secs

     total energy              =     -19.21965078 Ry
     estimated scf accuracy    <       0.15621602 Ry

     iteration #  7     ecut=    50.00 Ry     beta= 0.01
     Davidson diagonalization with overlap
     ethr =  3.26E-04,  avg # of iterations =  1.0

     total cpu time spent up to now is       23.9 secs

     total energy              =     -19.22111157 Ry
     estimated scf accuracy    <       0.01620432 Ry

     iteration #  8     ecut=    50.00 Ry     beta= 0.01
     Davidson diagonalization with overlap
     ethr =  2.03E-04,  avg # of iterations =  1.0

     total cpu time spent up to now is       26.5 secs

     total energy              =     -19.22110188 Ry
     estimated scf accuracy    <       0.01086636 Ry

     iteration #  9     ecut=    50.00 Ry     beta= 0.01
     Davidson diagonalization with overlap
     ethr =  1.36E-04,  avg # of iterations =  1.0

     total cpu time spent up to now is       29.0 secs

     total energy              =     -19.21963404 Ry
     estimated scf accuracy    <       0.00999948 Ry

     iteration # 10     ecut=    50.00 Ry     beta= 0.01
     Davidson diagonalization with overlap
     ethr =  1.25E-04,  avg # of iterations =  1.0

     total cpu time spent up to now is       31.0 secs

     total energy              =     -19.22000619 Ry
     estimated scf accuracy    <       0.00106809 Ry

     iteration # 11     ecut=    50.00 Ry     beta= 0.01
     Davidson diagonalization with overlap
     ethr =  1.34E-05,  avg # of iterations =  2.3

     total cpu time spent up to now is       34.0 secs

     total energy              =     -19.22042339 Ry
     estimated scf accuracy    <       0.00062651 Ry

     iteration # 12     ecut=    50.00 Ry     beta= 0.01
     Davidson diagonalization with overlap
     ethr =  7.83E-06,  avg # of iterations =  1.0

     total cpu time spent up to now is       36.1 secs

     total energy              =     -19.22049771 Ry
     estimated scf accuracy    <       0.00069940 Ry

     iteration # 13     ecut=    50.00 Ry     beta= 0.01
     Davidson diagonalization with overlap
     ethr =  7.83E-06,  avg # of iterations =  1.0

     total cpu time spent up to now is       38.1 secs

     total energy              =     -19.22037209 Ry
     estimated scf accuracy    <       0.00136982 Ry

     iteration # 14     ecut=    50.00 Ry     beta= 0.01
     Davidson diagonalization with overlap
     ethr =  7.83E-06,  avg # of iterations =  1.0

     total cpu time spent up to now is       40.1 secs

     total energy              =     -19.22016002 Ry
     estimated scf accuracy    <       0.00092911 Ry

     iteration # 15     ecut=    50.00 Ry     beta= 0.01
     Davidson diagonalization with overlap
     ethr =  7.83E-06,  avg # of iterations =  2.0

     total cpu time spent up to now is       42.2 secs

     total energy              =     -19.22023707 Ry
     estimated scf accuracy    <       0.00006046 Ry

     iteration # 16     ecut=    50.00 Ry     beta= 0.01
     Davidson diagonalization with overlap
     ethr =  7.56E-07,  avg # of iterations =  1.8

     total cpu time spent up to now is       44.4 secs

     total energy              =     -19.22024631 Ry
     estimated scf accuracy    <       0.00004612 Ry

     iteration # 17     ecut=    50.00 Ry     beta= 0.01
     Davidson diagonalization with overlap
     ethr =  5.77E-07,  avg # of iterations =  1.0

     total cpu time spent up to now is       46.1 secs

     total energy              =     -19.22024380 Ry
     estimated scf accuracy    <       0.00006602 Ry

     iteration # 18     ecut=    50.00 Ry     beta= 0.01
     Davidson diagonalization with overlap
     ethr =  5.77E-07,  avg # of iterations =  1.0

     total cpu time spent up to now is       47.7 secs

     total energy              =     -19.22024630 Ry
     estimated scf accuracy    <       0.00003130 Ry

     iteration # 19     ecut=    50.00 Ry     beta= 0.01
     Davidson diagonalization with overlap
     ethr =  3.91E-07,  avg # of iterations =  1.0

     total cpu time spent up to now is       49.1 secs

     total energy              =     -19.22024494 Ry
     estimated scf accuracy    <       0.00003171 Ry

     iteration # 20     ecut=    50.00 Ry     beta= 0.01
     Davidson diagonalization with overlap
     ethr =  3.91E-07,  avg # of iterations =  1.0

     total cpu time spent up to now is       50.4 secs

     total energy              =     -19.22024538 Ry
     estimated scf accuracy    <       0.00002746 Ry

     iteration # 21     ecut=    50.00 Ry     beta= 0.01
     Davidson diagonalization with overlap
     ethr =  3.43E-07,  avg # of iterations =  1.0

     total cpu time spent up to now is       51.7 secs

     total energy              =     -19.22024557 Ry
     estimated scf accuracy    <       0.00002741 Ry

     iteration # 22     ecut=    50.00 Ry     beta= 0.01
     Davidson diagonalization with overlap
     ethr =  3.43E-07,  avg # of iterations =  1.0

     total cpu time spent up to now is       53.0 secs

     total energy              =     -19.22024546 Ry
     estimated scf accuracy    <       0.00002683 Ry

     iteration # 23     ecut=    50.00 Ry     beta= 0.01
     Davidson diagonalization with overlap
     ethr =  3.35E-07,  avg # of iterations =  1.0

     total cpu time spent up to now is       54.3 secs

     total energy              =     -19.22024194 Ry
     estimated scf accuracy    <       0.00002359 Ry

     iteration # 24     ecut=    50.00 Ry     beta= 0.01
     Davidson diagonalization with overlap
     ethr =  2.95E-07,  avg # of iterations =  1.0

     total cpu time spent up to now is       55.6 secs

     total energy              =     -19.22024277 Ry
     estimated scf accuracy    <       0.00000206 Ry

     iteration # 25     ecut=    50.00 Ry     beta= 0.01
     Davidson diagonalization with overlap
     ethr =  2.57E-08,  avg # of iterations =  1.9

     total cpu time spent up to now is       57.1 secs

     End of self-consistent calculation

          k = 0.0000 0.0000 0.0000 (  1139 PWs)   bands (ev):

    -7.9549   6.0567   6.0567   6.0567

          k =-0.1000 0.1000-0.1000 (  1118 PWs)   bands (ev):

    -7.7963   4.9977   5.9322   5.9322

          k =-0.2000 0.2000-0.2000 (  1119 PWs)   bands (ev):

    -7.3316   3.0537   5.6387   5.6387

          k =-0.3000 0.3000-0.3000 (  1095 PWs)   bands (ev):

    -6.6065   1.0802   5.3400   5.3400

          k =-0.4000 0.4000-0.4000 (  1113 PWs)   bands (ev):

    -5.7690  -0.5613   5.1283   5.1283

          k = 0.5000-0.5000 0.5000 (  1104 PWs)   bands (ev):

    -5.3076  -1.2969   5.0551   5.0551

          k = 0.0000 0.2000 0.0000 (  1119 PWs)   bands (ev):

    -7.7433   5.1026   5.6511   5.6511

          k =-0.1000 0.3000-0.1000 (  1114 PWs)   bands (ev):

    -7.3797   3.6148   5.2717   5.4275

          k =-0.2000 0.4000-0.2000 (  1109 PWs)   bands (ev):

    -6.7370   1.7282   4.9590   5.0582

          k =-0.3000 0.5000-0.3000 (  1117 PWs)   bands (ev):

    -5.9146  -0.0062   4.6532   4.8014

          k = 0.6000-0.4000 0.6000 (  1121 PWs)   bands (ev):

    -5.2504  -1.1047   4.3479   4.8255

          k = 0.5000-0.3000 0.5000 (  1123 PWs)   bands (ev):

    -5.4147  -0.8506   4.2140   5.0195

          k = 0.4000-0.2000 0.4000 (  1109 PWs)   bands (ev):

    -6.1987   0.5364   4.2897   5.3401

          k = 0.3000-0.1000 0.3000 (  1116 PWs)   bands (ev):

    -6.9803   2.3404   4.5967   5.6965

          k = 0.2000 0.0000 0.2000 (  1123 PWs)   bands (ev):

    -7.5353   4.0366   5.1999   5.9460

          k = 0.0000 0.4000 0.0000 (  1114 PWs)   bands (ev):

    -7.1205   3.3874   4.8124   4.8124

          k =-0.1000 0.5000-0.1000 (  1101 PWs)   bands (ev):

    -6.5750   2.0988   4.3416   4.4502

          k =-0.2000 0.6000-0.2000 (  1105 PWs)   bands (ev):

    -5.8141   0.5757   3.6976   4.2741

          k = 0.7000-0.3000 0.7000 (  1111 PWs)   bands (ev):

    -5.0664  -0.6378   3.1192   4.3165

          k = 0.6000-0.2000 0.6000 (  1120 PWs)   bands (ev):

    -4.9273  -0.8314   2.7721   4.5647

          k = 0.5000-0.1000 0.5000 (  1116 PWs)   bands (ev):

    -5.5663   0.1476   2.7694   4.9681

          k = 0.4000 0.0000 0.4000 (  1119 PWs)   bands (ev):

    -6.3584   1.4261   3.3306   5.4088

          k = 0.0000 0.6000 0.0000 (  1098 PWs)   bands (ev):

    -6.1332   1.5598   4.0253   4.0253

          k =-0.1000 0.7000-0.1000 (  1109 PWs)   bands (ev):

    -5.4672   0.5396   3.3898   3.7939

          k = 0.8000-0.2000 0.8000 (  1112 PWs)   bands (ev):

    -4.7481  -0.3853   2.4528   3.7996

          k = 0.7000-0.1000 0.7000 (  1127 PWs)   bands (ev):

    -4.4310  -0.7142   1.7716   4.0364

          k = 0.6000-0.0000 0.6000 (  1123 PWs)   bands (ev):

    -4.8513  -0.2846   1.7633   4.4636

          k = 0.0000 0.8000 0.0000 (  1102 PWs)   bands (ev):

    -4.9265  -0.1743   3.4996   3.4996

          k = 0.9000-0.1000 0.9000 (  1121 PWs)   bands (ev):

    -4.3642  -0.8078   2.8749   3.4417

          k = 0.8000 0.0000 0.8000 (  1122 PWs)   bands (ev):

    -4.1484  -0.8984   1.9578   3.6321

          k = 0.0000-1.0000 0.0000 (  1106 PWs)   bands (ev):

    -4.1601  -1.1240   3.3179   3.3179

          k =-0.2000 0.4000 0.0000 (  1110 PWs)   bands (ev):

    -6.9250   2.6027   4.3019   5.2991

          k =-0.3000 0.5000-0.1000 (  1107 PWs)   bands (ev):

    -6.2184   1.1126   3.6554   4.9591

          k = 0.6000-0.4000 0.8000 (  1112 PWs)   bands (ev):

    -5.4096  -0.3311   3.3790   4.6067

          k = 0.5000-0.3000 0.7000 (  1118 PWs)   bands (ev):

    -4.9703  -1.0022   3.3068   4.4602

          k =-0.2000 0.6000 0.0000 (  1106 PWs)   bands (ev):

    -5.9655   1.1679   3.4833   4.2100

          k = 0.7000-0.3000 0.9000 (  1114 PWs)   bands (ev):

    -5.2046   0.0740   2.7829   3.8601

          k = 0.6000-0.2000 0.8000 (  1112 PWs)   bands (ev):

    -4.6244  -0.6915   2.2895   3.7985

          k = 0.5000-0.1000 0.7000 (  1116 PWs)   bands (ev):

    -4.7876  -0.4694   2.1114   4.0641

          k = 0.4000 0.0000 0.6000 (  1112 PWs)   bands (ev):

    -5.4967   0.3916   2.5047   4.5292

          k = 0.8000-0.2000 1.0000 (  1111 PWs)   bands (ev):

    -4.8178  -0.2229   2.9764   3.3127

          k = 0.7000-0.1000 0.9000 (  1116 PWs)   bands (ev):

    -4.2796  -0.7149   2.1430   3.2199

          k = 0.6000 0.0000 0.8000 (  1112 PWs)   bands (ev):

    -4.2807  -0.6602   1.6261   3.5312

          k =-0.2000-1.0000 0.0000 (  1116 PWs)   bands (ev):

    -4.1227  -1.0026   2.8875   2.9028

          k = 0.6000-0.2000 1.0000 (  1123 PWs)   bands (ev):

    -4.5494  -0.4024   2.0942   3.2319

          k = 0.5000-0.1000 0.9000 (  1116 PWs)   bands (ev):

    -4.2239  -0.6620   1.8774   2.9438

          k =-0.4000-1.0000 0.0000 (  1114 PWs)   bands (ev):

    -4.0593  -0.7638   2.2378   2.3768

     highest occupied level (ev):     6.0567

!    total energy              =     -19.22024261 Ry
     estimated scf accuracy    <       0.00000073 Ry

     The total energy is the sum of the following terms:
     one-electron contribution =       2.91008459 Ry
     hartree contribution      =       2.58215632 Ry
     xc contribution           =      -5.70867839 Ry
     ewald contribution        =     -19.00380513 Ry

     convergence has been achieved in  25 iterations
     Writing meta-gga kinetic term

     Writing all to output data dir ./input_pw/SiC/10/pwscf.save/
     Writing meta-gga kinetic term
 
     init_run     :      1.71s CPU      3.52s WALL (       1 calls)
     electrons    :     34.33s CPU     53.55s WALL (       1 calls)

     Called by init_run:
     wfcinit      :      1.59s CPU      3.34s WALL (       1 calls)
     potinit      :      0.01s CPU      0.06s WALL (       1 calls)
     hinit0       :      0.09s CPU      0.11s WALL (       1 calls)

     Called by electrons:
     c_bands      :     27.00s CPU     42.19s WALL (      25 calls)
     sum_band     :      6.62s CPU     10.23s WALL (      25 calls)
     v_of_rho     :      0.41s CPU      0.66s WALL (      26 calls)
     mix_rho      :      0.30s CPU      0.51s WALL (      25 calls)

     Called by c_bands:
     init_us_2    :      0.33s CPU      0.55s WALL (    2397 calls)
     init_us_2:cp :      0.33s CPU      0.55s WALL (    2397 calls)
     cegterg      :     26.68s CPU     41.65s WALL (    1175 calls)

     Called by *egterg:
     cdiaghg      :      0.12s CPU      0.14s WALL (    2690 calls)
     h_psi        :     27.74s CPU     44.22s WALL (    2737 calls)
     g_psi        :      0.02s CPU      0.02s WALL (    1515 calls)

     Called by h_psi:
     h_psi:calbec :      0.08s CPU      0.14s WALL (    2737 calls)
     vloc_psi     :      6.84s CPU     10.99s WALL (    2737 calls)
     add_vuspsi   :      0.08s CPU      0.10s WALL (    2737 calls)
     h_psi_meta   :     20.69s CPU     32.91s WALL (    2737 calls)

     General routines
     calbec       :      0.07s CPU      0.12s WALL (    2737 calls)
     fft          :      0.09s CPU      0.18s WALL (     309 calls)
     ffts         :      0.15s CPU      0.27s WALL (     500 calls)
     fftw         :     30.52s CPU     48.48s WALL (  105568 calls)
     interpolate  :      0.00s CPU      0.00s WALL (      26 calls)
 
     Parallel routines
 
     PWSCF        :     36.07s CPU     57.13s WALL

 
   This run was terminated on:  12:57: 2  29Mar2023            

=------------------------------------------------------------------------------=
   JOB DONE.
=------------------------------------------------------------------------------=
