
     Program PWSCF v.7.0 starts on 24Mar2023 at 10:42:50 

     This program is part of the open-source Quantum ESPRESSO suite
     for quantum simulation of materials; please cite
         "P. Giannozzi et al., J. Phys.:Condens. Matter 21 395502 (2009);
         "P. Giannozzi et al., J. Phys.:Condens. Matter 29 465901 (2017);
         "P. Giannozzi et al., J. Chem. Phys. 152 154105 (2020);
          URL http://www.quantum-espresso.org", 
     in publications or presentations arising from this work. More details at
     http://www.quantum-espresso.org/quote

     Parallel version (MPI), running on     1 processors

     MPI processes distributed on     1 nodes
     25680 MiB available memory on the printing compute node when the environment starts
 
     Waiting for input...
     Reading input from standard input

     Current dimensions of program PWSCF are:
     Max number of different atomic species (ntypx) = 10
     Max number of k-points (npk) =  40000
     Max angular momentum in pseudopotentials (lmaxx) =  4

     WARNING: the MGGA functional with ID    5 has been 
     read together with other dft terms, but it should 
     stand alone in order to work properly. The other 
     terms will be ignored.

     Subspace diagonalization in iterative solution of the eigenvalue problem:
     a serial algorithm will be used

 
     G-vector sticks info
     --------------------
     sticks:   dense  smooth     PW     G-vecs:    dense   smooth      PW
     Sum        1175    1175    345                25699    25699    4093
 
     Using Slab Decomposition
 


     bravais-lattice index     =            3
     lattice parameter (alat)  =      10.2631  a.u.
     unit-cell volume          =     540.5124 (a.u.)^3
     number of atoms/cell      =            1
     number of atomic types    =            1
     number of electrons       =         1.00
     number of Kohn-Sham states=            5
     kinetic-energy cutoff     =      50.0000  Ry
     charge density cutoff     =     200.0000  Ry
     scf convergence threshold =      1.0E-06
     mixing beta               =       0.0100
     number of iterations used =            8  local-TF  mixing
     energy convergence thresh.=      1.0E-04
     force convergence thresh. =      1.0E-03
     press convergence thresh. =      5.0E-01
     Exchange-correlation= SLA  PW   SCAN SCAN
                           (   0   0   0   0   0 263 267)
     nstep                     =           50


     celldm(1)=  10.263100  celldm(2)=   0.000000  celldm(3)=   0.000000
     celldm(4)=   0.000000  celldm(5)=   0.000000  celldm(6)=   0.000000

     crystal axes: (cart. coord. in units of alat)
               a(1) = (   0.500000   0.500000   0.500000 )  
               a(2) = (  -0.500000   0.500000   0.500000 )  
               a(3) = (  -0.500000  -0.500000   0.500000 )  

     reciprocal axes: (cart. coord. in units 2 pi/alat)
               b(1) = (  1.000000  0.000000  1.000000 )  
               b(2) = ( -1.000000  1.000000  0.000000 )  
               b(3) = (  0.000000 -1.000000  1.000000 )  


     PseudoPot. # 1 for Li read from file:
     ~/Documents/TA/PWDFT.jl/pseudopotentials/scan_upf/Li.SCAN.UPF2
     MD5 check sum: Not computed, couldn't open file
     Pseudo is Norm-conserving, Zval =  1.0
     Generated by new atomic code, or converted to UPF format
     Using radial grid of 1321 points,  1 beta functions with: 
                l(1) =   0

     atomic species   valence    mass     pseudopotential
        Li             1.00     6.94100     Li( 1.00)

     Starting magnetic structure 
     atomic species   magnetization
        Li           0.500

     48 Sym. Ops., with inversion, found



   Cartesian axes

     site n.     atom                  positions (alat units)
         1           Li  tau(   1) = (   0.0000000   0.0000000   0.0000000  )

     number of k points=    47  Gaussian smearing, width (Ry)=  0.1000
                       cart. coord. in units 2pi/alat
        k(    1) = (   0.0000000   0.0000000   0.0000000), wk =   0.0010000
        k(    2) = (   0.0000000  -0.1000000   0.1000000), wk =   0.0120000
        k(    3) = (   0.0000000  -0.2000000   0.2000000), wk =   0.0120000
        k(    4) = (   0.0000000  -0.3000000   0.3000000), wk =   0.0120000
        k(    5) = (   0.0000000  -0.4000000   0.4000000), wk =   0.0120000
        k(    6) = (   0.0000000   0.5000000  -0.5000000), wk =   0.0060000
        k(    7) = (  -0.1000000  -0.1000000   0.2000000), wk =   0.0240000
        k(    8) = (  -0.1000000  -0.2000000   0.3000000), wk =   0.0480000
        k(    9) = (  -0.1000000  -0.3000000   0.4000000), wk =   0.0480000
        k(   10) = (  -0.1000000   0.6000000  -0.5000000), wk =   0.0480000
        k(   11) = (  -0.2000000  -0.2000000   0.4000000), wk =   0.0240000
        k(   12) = (  -0.2000000   0.7000000  -0.5000000), wk =   0.0480000
        k(   13) = (  -0.2000000   0.6000000  -0.4000000), wk =   0.0240000
        k(   14) = (  -0.3000000   0.7000000  -0.4000000), wk =   0.0240000
        k(   15) = (   0.0000000   0.0000000   0.2000000), wk =   0.0060000
        k(   16) = (   0.0000000  -0.1000000   0.3000000), wk =   0.0240000
        k(   17) = (   0.0000000  -0.2000000   0.4000000), wk =   0.0240000
        k(   18) = (   0.0000000  -0.3000000   0.5000000), wk =   0.0240000
        k(   19) = (   0.0000000   0.6000000  -0.4000000), wk =   0.0120000
        k(   20) = (  -0.1000000  -0.1000000   0.4000000), wk =   0.0240000
        k(   21) = (  -0.1000000  -0.2000000   0.5000000), wk =   0.0480000
        k(   22) = (  -0.1000000   0.7000000  -0.4000000), wk =   0.0480000
        k(   23) = (  -0.2000000   0.2000000   0.2000000), wk =   0.0080000
        k(   24) = (  -0.2000000   0.8000000  -0.4000000), wk =   0.0240000
        k(   25) = (  -0.2000000   0.7000000  -0.3000000), wk =   0.0240000
        k(   26) = (  -0.3000000   0.3000000   0.2000000), wk =   0.0240000
        k(   27) = (   0.6000000  -0.6000000   0.2000000), wk =   0.0240000
        k(   28) = (   0.6000000  -0.7000000   0.3000000), wk =   0.0240000
        k(   29) = (   0.5000000  -0.5000000   0.2000000), wk =   0.0120000
        k(   30) = (   0.5000000  -0.6000000   0.3000000), wk =   0.0480000
        k(   31) = (   0.4000000  -0.6000000   0.4000000), wk =   0.0080000
        k(   32) = (   0.0000000   0.0000000   0.4000000), wk =   0.0060000
        k(   33) = (   0.0000000  -0.1000000   0.5000000), wk =   0.0240000
        k(   34) = (   0.0000000  -0.2000000   0.6000000), wk =   0.0240000
        k(   35) = (   0.0000000   0.7000000  -0.3000000), wk =   0.0120000
        k(   36) = (  -0.1000000  -0.1000000   0.6000000), wk =   0.0240000
        k(   37) = (  -0.1000000   0.8000000  -0.3000000), wk =   0.0480000
        k(   38) = (  -0.2000000   0.8000000  -0.2000000), wk =   0.0080000
        k(   39) = (   0.6000000  -0.6000000   0.4000000), wk =   0.0080000
        k(   40) = (   0.5000000  -0.5000000   0.4000000), wk =   0.0120000
        k(   41) = (   0.0000000   0.0000000   0.6000000), wk =   0.0060000
        k(   42) = (   0.0000000  -0.1000000   0.7000000), wk =   0.0240000
        k(   43) = (   0.0000000   0.8000000  -0.2000000), wk =   0.0120000
        k(   44) = (  -0.1000000   0.9000000  -0.2000000), wk =   0.0240000
        k(   45) = (   0.0000000   0.0000000   0.8000000), wk =   0.0060000
        k(   46) = (   0.0000000   0.9000000  -0.1000000), wk =   0.0120000
        k(   47) = (   0.0000000   0.0000000  -1.0000000), wk =   0.0010000

     Dense  grid:    25699 G-vectors     FFT dimensions: (  40,  40,  40)

     Estimated max dynamical RAM per process >      80.47 MB

     WARNING: libxc functional with ID  263 depends
      on external parameters: check the user_guide of
      QE if you need to modify them or to check their
      default values.
     Generating pointlists ...
     new r_m :   0.3572 (alat units)  3.6663 (a.u.) for type    1

     Initial potential from superposition of free atoms

     starting charge       0.9953, renormalised to       1.0000
     Starting wfcs are    4 randomized atomic wfcs +    1 random wfcs

     total cpu time spent up to now is        1.8 secs

     Self-consistent Calculation

     iteration #  1     ecut=    50.00 Ry     beta= 0.01
     Davidson diagonalization with overlap
     ethr =  1.00E-02,  avg # of iterations =  6.4

     Threshold (ethr) on eigenvalues was too large:
     Diagonalizing with lowered threshold

     Davidson diagonalization with overlap
     ethr =  1.43E-04,  avg # of iterations =  3.9

     total cpu time spent up to now is       12.5 secs

     total energy              =      -0.46784614 Ry
     estimated scf accuracy    <       0.00132961 Ry

     total magnetization       =     0.31 Bohr mag/cell
     absolute magnetization    =     0.31 Bohr mag/cell

     iteration #  2     ecut=    50.00 Ry     beta= 0.01
     Davidson diagonalization with overlap
     ethr =  1.33E-04,  avg # of iterations =  1.0

     total cpu time spent up to now is       16.0 secs

     total energy              =      -0.46933024 Ry
     estimated scf accuracy    <       0.00126009 Ry

     total magnetization       =     0.31 Bohr mag/cell
     absolute magnetization    =     0.31 Bohr mag/cell

     iteration #  3     ecut=    50.00 Ry     beta= 0.01
     Davidson diagonalization with overlap
     ethr =  1.26E-04,  avg # of iterations =  1.3

     negative rho (up,down):  0.000E+00 2.747E-03

     total cpu time spent up to now is       19.6 secs

     total energy              =      -0.25920993 Ry
     estimated scf accuracy    <       0.00068848 Ry

     total magnetization       =     0.26 Bohr mag/cell
     absolute magnetization    =     0.26 Bohr mag/cell

     iteration #  4     ecut=    50.00 Ry     beta= 0.01
     Davidson diagonalization with overlap
     c_bands:  5 eigenvalues not converged
     c_bands:  4 eigenvalues not converged
     c_bands:  5 eigenvalues not converged
     c_bands:  3 eigenvalues not converged
     c_bands:  3 eigenvalues not converged
     c_bands:  5 eigenvalues not converged
     c_bands:  5 eigenvalues not converged
     c_bands:  5 eigenvalues not converged
     c_bands:  5 eigenvalues not converged
     c_bands:  5 eigenvalues not converged
     c_bands:  5 eigenvalues not converged
     c_bands:  5 eigenvalues not converged
     c_bands:  4 eigenvalues not converged
     c_bands:  5 eigenvalues not converged
     c_bands:  5 eigenvalues not converged
     c_bands:  5 eigenvalues not converged
     c_bands:  5 eigenvalues not converged
     c_bands:  5 eigenvalues not converged
     c_bands:  5 eigenvalues not converged
     c_bands:  5 eigenvalues not converged
     c_bands:  5 eigenvalues not converged
     c_bands:  4 eigenvalues not converged
     c_bands:  5 eigenvalues not converged
     c_bands:  5 eigenvalues not converged
     c_bands:  5 eigenvalues not converged
     c_bands:  5 eigenvalues not converged
     c_bands:  5 eigenvalues not converged
     c_bands:  5 eigenvalues not converged
     c_bands:  5 eigenvalues not converged
     c_bands:  3 eigenvalues not converged
     c_bands:  4 eigenvalues not converged
     c_bands:  5 eigenvalues not converged
     c_bands:  5 eigenvalues not converged
     c_bands:  5 eigenvalues not converged
     c_bands:  5 eigenvalues not converged
     c_bands:  5 eigenvalues not converged
     c_bands:  5 eigenvalues not converged
     c_bands:  5 eigenvalues not converged
     c_bands:  5 eigenvalues not converged
     c_bands:  5 eigenvalues not converged
     c_bands:  5 eigenvalues not converged
     c_bands:  5 eigenvalues not converged
     c_bands:  5 eigenvalues not converged
     c_bands:  5 eigenvalues not converged
     c_bands:  4 eigenvalues not converged
     ethr =  6.88E-05,  avg # of iterations = 11.3

     total cpu time spent up to now is       36.6 secs

     total energy              =      29.48115435 Ry
     estimated scf accuracy    <    4536.81909513 Ry

     total magnetization       =    -1.00 Bohr mag/cell
     absolute magnetization    =     1.00 Bohr mag/cell

     iteration #  5     ecut=    50.00 Ry     beta= 0.01
     Davidson diagonalization with overlap
     c_bands:  1 eigenvalues not converged
     ethr =  6.88E-05,  avg # of iterations =  7.0

     total cpu time spent up to now is       46.8 secs

     total energy              =      -0.47433347 Ry
     estimated scf accuracy    <       0.00264557 Ry

     total magnetization       =     0.12 Bohr mag/cell
     absolute magnetization    =     0.12 Bohr mag/cell

     iteration #  6     ecut=    50.00 Ry     beta= 0.01
     Davidson diagonalization with overlap
     ethr =  6.88E-05,  avg # of iterations =  1.1

     total cpu time spent up to now is       50.3 secs

     total energy              =      -0.47436065 Ry
     estimated scf accuracy    <       0.00266736 Ry

     total magnetization       =     0.12 Bohr mag/cell
     absolute magnetization    =     0.12 Bohr mag/cell

     iteration #  7     ecut=    50.00 Ry     beta= 0.01
     Davidson diagonalization with overlap
     ethr =  6.88E-05,  avg # of iterations =  1.8

     total cpu time spent up to now is       54.3 secs

     total energy              =      -0.47347910 Ry
     estimated scf accuracy    <       0.00384472 Ry

     total magnetization       =     0.11 Bohr mag/cell
     absolute magnetization    =     0.11 Bohr mag/cell

     iteration #  8     ecut=    50.00 Ry     beta= 0.01
     Davidson diagonalization with overlap
     ethr =  6.88E-05,  avg # of iterations =  2.1

     negative rho (up,down):  0.000E+00 3.490E-06

     total cpu time spent up to now is       59.2 secs

     total energy              =      -0.47649132 Ry
     estimated scf accuracy    <       0.01607524 Ry

     total magnetization       =     0.09 Bohr mag/cell
     absolute magnetization    =     0.09 Bohr mag/cell

     iteration #  9     ecut=    50.00 Ry     beta= 0.01
     Davidson diagonalization with overlap
     ethr =  6.88E-05,  avg # of iterations =  2.0

     negative rho (up,down):  0.000E+00 2.406E-06

     total cpu time spent up to now is       64.1 secs

     total energy              =      -0.47625145 Ry
     estimated scf accuracy    <       0.02193429 Ry

     total magnetization       =     0.08 Bohr mag/cell
     absolute magnetization    =     0.08 Bohr mag/cell

     iteration # 10     ecut=    50.00 Ry     beta= 0.01
     Davidson diagonalization with overlap
     ethr =  6.88E-05,  avg # of iterations =  1.0

     negative rho (up,down):  0.000E+00 1.056E-05

     total cpu time spent up to now is       67.7 secs

     total energy              =      -0.47619617 Ry
     estimated scf accuracy    <       0.02129633 Ry

     total magnetization       =     0.08 Bohr mag/cell
     absolute magnetization    =     0.08 Bohr mag/cell

     iteration # 11     ecut=    50.00 Ry     beta= 0.01
     Davidson diagonalization with overlap
     ethr =  6.88E-05,  avg # of iterations =  2.0

     negative rho (up,down):  0.000E+00 1.221E-06

     total cpu time spent up to now is       72.4 secs

     total energy              =      -0.48027052 Ry
     estimated scf accuracy    <       0.02531868 Ry

     total magnetization       =     0.07 Bohr mag/cell
     absolute magnetization    =     0.07 Bohr mag/cell

     iteration # 12     ecut=    50.00 Ry     beta= 0.01
     Davidson diagonalization with overlap
     ethr =  6.88E-05,  avg # of iterations =  2.6

     total cpu time spent up to now is       77.5 secs

     total energy              =      -0.48077431 Ry
     estimated scf accuracy    <       0.03464754 Ry

     total magnetization       =     0.02 Bohr mag/cell
     absolute magnetization    =     0.02 Bohr mag/cell

     iteration # 13     ecut=    50.00 Ry     beta= 0.01
     Davidson diagonalization with overlap
     ethr =  6.88E-05,  avg # of iterations =  2.0

     total cpu time spent up to now is       82.0 secs

     total energy              =      -0.47027172 Ry
     estimated scf accuracy    <       0.02723786 Ry

     total magnetization       =     0.04 Bohr mag/cell
     absolute magnetization    =     0.04 Bohr mag/cell

     iteration # 14     ecut=    50.00 Ry     beta= 0.01
     Davidson diagonalization with overlap
     ethr =  6.88E-05,  avg # of iterations =  2.7

     total cpu time spent up to now is       87.3 secs

     total energy              =      -0.47289011 Ry
     estimated scf accuracy    <       0.00041519 Ry

     total magnetization       =     0.17 Bohr mag/cell
     absolute magnetization    =     0.17 Bohr mag/cell

     iteration # 15     ecut=    50.00 Ry     beta= 0.01
     Davidson diagonalization with overlap
     ethr =  4.15E-05,  avg # of iterations =  2.1

     total cpu time spent up to now is       92.2 secs

     total energy              =      -0.47403283 Ry
     estimated scf accuracy    <       0.00083827 Ry

     total magnetization       =     0.15 Bohr mag/cell
     absolute magnetization    =     0.15 Bohr mag/cell

     iteration # 16     ecut=    50.00 Ry     beta= 0.01
     Davidson diagonalization with overlap
     ethr =  4.15E-05,  avg # of iterations =  2.3

     total cpu time spent up to now is       97.2 secs

     total energy              =      -0.47459392 Ry
     estimated scf accuracy    <       0.00024512 Ry

     total magnetization       =     0.11 Bohr mag/cell
     absolute magnetization    =     0.11 Bohr mag/cell

     iteration # 17     ecut=    50.00 Ry     beta= 0.01
     Davidson diagonalization with overlap
     ethr =  2.45E-05,  avg # of iterations =  1.6

     total cpu time spent up to now is      101.0 secs

     total energy              =      -0.47401010 Ry
     estimated scf accuracy    <       0.00006220 Ry

     total magnetization       =     0.11 Bohr mag/cell
     absolute magnetization    =     0.11 Bohr mag/cell

     iteration # 18     ecut=    50.00 Ry     beta= 0.01
     Davidson diagonalization with overlap
     c_bands:  1 eigenvalues not converged
     c_bands:  1 eigenvalues not converged
     c_bands:  1 eigenvalues not converged
     ethr =  6.22E-06,  avg # of iterations =  4.6

     total cpu time spent up to now is      107.4 secs

     total energy              =      -0.47345001 Ry
     estimated scf accuracy    <       0.00127429 Ry

     total magnetization       =     0.07 Bohr mag/cell
     absolute magnetization    =     0.07 Bohr mag/cell

     iteration # 19     ecut=    50.00 Ry     beta= 0.01
     Davidson diagonalization with overlap
     ethr =  6.22E-06,  avg # of iterations =  3.0

     total cpu time spent up to now is      112.9 secs

     total energy              =      -0.47248974 Ry
     estimated scf accuracy    <       0.00002380 Ry

     total magnetization       =    -0.00 Bohr mag/cell
     absolute magnetization    =     0.02 Bohr mag/cell

     iteration # 20     ecut=    50.00 Ry     beta= 0.01
     Davidson diagonalization with overlap
     ethr =  2.38E-06,  avg # of iterations =  4.3

     total cpu time spent up to now is      119.5 secs

     total energy              =      -0.47365246 Ry
     estimated scf accuracy    <       0.00033398 Ry

     total magnetization       =     0.05 Bohr mag/cell
     absolute magnetization    =     0.05 Bohr mag/cell

     iteration # 21     ecut=    50.00 Ry     beta= 0.01
     Davidson diagonalization with overlap
     ethr =  2.38E-06,  avg # of iterations =  3.4

     total cpu time spent up to now is      125.6 secs

     total energy              =      -0.47383717 Ry
     estimated scf accuracy    <       0.00033132 Ry

     total magnetization       =     0.05 Bohr mag/cell
     absolute magnetization    =     0.05 Bohr mag/cell

     iteration # 22     ecut=    50.00 Ry     beta= 0.01
     Davidson diagonalization with overlap
     ethr =  2.38E-06,  avg # of iterations =  2.2

     total cpu time spent up to now is      130.7 secs

     total energy              =      -0.47392863 Ry
     estimated scf accuracy    <       0.00032249 Ry

     total magnetization       =     0.06 Bohr mag/cell
     absolute magnetization    =     0.06 Bohr mag/cell

     iteration # 23     ecut=    50.00 Ry     beta= 0.01
     Davidson diagonalization with overlap
     ethr =  2.38E-06,  avg # of iterations =  3.5

     total cpu time spent up to now is      137.3 secs

     total energy              =      -0.47470541 Ry
     estimated scf accuracy    <       0.00037940 Ry

     total magnetization       =     0.07 Bohr mag/cell
     absolute magnetization    =     0.07 Bohr mag/cell

     iteration # 24     ecut=    50.00 Ry     beta= 0.01
     Davidson diagonalization with overlap
     c_bands:  1 eigenvalues not converged
     c_bands:  1 eigenvalues not converged
     ethr =  2.38E-06,  avg # of iterations =  5.5

     total cpu time spent up to now is      144.8 secs

     total energy              =      -0.47584701 Ry
     estimated scf accuracy    <       0.00000626 Ry

     total magnetization       =    -0.00 Bohr mag/cell
     absolute magnetization    =     0.01 Bohr mag/cell

     iteration # 25     ecut=    50.00 Ry     beta= 0.01
     Davidson diagonalization with overlap
     c_bands:  1 eigenvalues not converged
     ethr =  6.26E-07,  avg # of iterations =  3.2

     total cpu time spent up to now is      150.4 secs

     total energy              =      -0.47548756 Ry
     estimated scf accuracy    <       0.00002104 Ry

     total magnetization       =    -0.02 Bohr mag/cell
     absolute magnetization    =     0.02 Bohr mag/cell

     iteration # 26     ecut=    50.00 Ry     beta= 0.01
     Davidson diagonalization with overlap
     c_bands:  1 eigenvalues not converged
     ethr =  6.26E-07,  avg # of iterations =  5.5

     total cpu time spent up to now is      157.9 secs

     total energy              =      -0.47491836 Ry
     estimated scf accuracy    <       0.00002038 Ry

     total magnetization       =     0.01 Bohr mag/cell
     absolute magnetization    =     0.01 Bohr mag/cell

     iteration # 27     ecut=    50.00 Ry     beta= 0.01
     Davidson diagonalization with overlap
     ethr =  6.26E-07,  avg # of iterations =  3.7

     total cpu time spent up to now is      164.4 secs

     total energy              =      -0.47520734 Ry
     estimated scf accuracy    <       0.00002955 Ry

     total magnetization       =     0.01 Bohr mag/cell
     absolute magnetization    =     0.01 Bohr mag/cell

     iteration # 28     ecut=    50.00 Ry     beta= 0.01
     Davidson diagonalization with overlap
     ethr =  6.26E-07,  avg # of iterations =  3.3

     total cpu time spent up to now is      170.6 secs

     total energy              =      -0.47556262 Ry
     estimated scf accuracy    <       0.00007346 Ry

     total magnetization       =    -0.00 Bohr mag/cell
     absolute magnetization    =     0.01 Bohr mag/cell

     iteration # 29     ecut=    50.00 Ry     beta= 0.01
     Davidson diagonalization with overlap
     ethr =  6.26E-07,  avg # of iterations =  2.7

     total cpu time spent up to now is      176.0 secs

     total energy              =      -0.47563958 Ry
     estimated scf accuracy    <       0.00004016 Ry

     total magnetization       =    -0.01 Bohr mag/cell
     absolute magnetization    =     0.01 Bohr mag/cell

     iteration # 30     ecut=    50.00 Ry     beta= 0.01
     Davidson diagonalization with overlap
     ethr =  6.26E-07,  avg # of iterations =  2.7

     total cpu time spent up to now is      181.4 secs

     total energy              =      -0.47510359 Ry
     estimated scf accuracy    <       0.00001925 Ry

     total magnetization       =    -0.01 Bohr mag/cell
     absolute magnetization    =     0.01 Bohr mag/cell

     iteration # 31     ecut=    50.00 Ry     beta= 0.01
     Davidson diagonalization with overlap
     ethr =  6.26E-07,  avg # of iterations =  5.5

     total cpu time spent up to now is      189.3 secs

     total energy              =      -0.47539780 Ry
     estimated scf accuracy    <       0.00002016 Ry

     total magnetization       =    -0.03 Bohr mag/cell
     absolute magnetization    =     0.03 Bohr mag/cell

     iteration # 32     ecut=    50.00 Ry     beta= 0.01
     Davidson diagonalization with overlap
     ethr =  6.26E-07,  avg # of iterations =  5.7

     total cpu time spent up to now is      197.4 secs

     total energy              =      -0.47584715 Ry
     estimated scf accuracy    <       0.00001951 Ry

     total magnetization       =    -0.02 Bohr mag/cell
     absolute magnetization    =     0.02 Bohr mag/cell

     iteration # 33     ecut=    50.00 Ry     beta= 0.01
     Davidson diagonalization with overlap
     ethr =  6.26E-07,  avg # of iterations =  4.1

     total cpu time spent up to now is      204.0 secs

     total energy              =      -0.47530712 Ry
     estimated scf accuracy    <       0.00000550 Ry

     total magnetization       =    -0.02 Bohr mag/cell
     absolute magnetization    =     0.02 Bohr mag/cell

     iteration # 34     ecut=    50.00 Ry     beta= 0.01
     Davidson diagonalization with overlap
     ethr =  5.50E-07,  avg # of iterations =  4.2

     total cpu time spent up to now is      210.8 secs

     total energy              =      -0.47549193 Ry
     estimated scf accuracy    <       0.00015953 Ry

     total magnetization       =    -0.01 Bohr mag/cell
     absolute magnetization    =     0.01 Bohr mag/cell

     iteration # 35     ecut=    50.00 Ry     beta= 0.01
     Davidson diagonalization with overlap
     ethr =  5.50E-07,  avg # of iterations =  2.9

     total cpu time spent up to now is      216.4 secs

     total energy              =      -0.47556700 Ry
     estimated scf accuracy    <       0.00011891 Ry

     total magnetization       =    -0.01 Bohr mag/cell
     absolute magnetization    =     0.01 Bohr mag/cell

     iteration # 36     ecut=    50.00 Ry     beta= 0.01
     Davidson diagonalization with overlap
     ethr =  5.50E-07,  avg # of iterations =  3.5

     total cpu time spent up to now is      222.2 secs

     total energy              =      -0.47577202 Ry
     estimated scf accuracy    <       0.00016069 Ry

     total magnetization       =    -0.00 Bohr mag/cell
     absolute magnetization    =     0.01 Bohr mag/cell

     iteration # 37     ecut=    50.00 Ry     beta= 0.01
     Davidson diagonalization with overlap
     ethr =  5.50E-07,  avg # of iterations =  3.7

     total cpu time spent up to now is      228.5 secs

     total energy              =      -0.47575552 Ry
     estimated scf accuracy    <       0.00010679 Ry

     total magnetization       =    -0.00 Bohr mag/cell
     absolute magnetization    =     0.01 Bohr mag/cell

     iteration # 38     ecut=    50.00 Ry     beta= 0.01
     Davidson diagonalization with overlap
     ethr =  5.50E-07,  avg # of iterations =  3.5

     total cpu time spent up to now is      234.5 secs

     total energy              =      -0.47615162 Ry
     estimated scf accuracy    <       0.00007780 Ry

     total magnetization       =    -0.01 Bohr mag/cell
     absolute magnetization    =     0.01 Bohr mag/cell

     iteration # 39     ecut=    50.00 Ry     beta= 0.01
     Davidson diagonalization with overlap
     ethr =  5.50E-07,  avg # of iterations =  2.7

     total cpu time spent up to now is      239.8 secs

     total energy              =      -0.47616404 Ry
     estimated scf accuracy    <       0.00003384 Ry

     total magnetization       =    -0.01 Bohr mag/cell
     absolute magnetization    =     0.01 Bohr mag/cell

     iteration # 40     ecut=    50.00 Ry     beta= 0.01
     Davidson diagonalization with overlap
     ethr =  5.50E-07,  avg # of iterations =  3.5

     total cpu time spent up to now is      245.9 secs

     total energy              =      -0.47628430 Ry
     estimated scf accuracy    <       0.00006103 Ry

     total magnetization       =    -0.01 Bohr mag/cell
     absolute magnetization    =     0.01 Bohr mag/cell

     iteration # 41     ecut=    50.00 Ry     beta= 0.01
     Davidson diagonalization with overlap
     ethr =  5.50E-07,  avg # of iterations =  1.7

     total cpu time spent up to now is      249.9 secs

     total energy              =      -0.47649188 Ry
     estimated scf accuracy    <       0.00005896 Ry

     total magnetization       =    -0.01 Bohr mag/cell
     absolute magnetization    =     0.01 Bohr mag/cell

     iteration # 42     ecut=    50.00 Ry     beta= 0.01
     Davidson diagonalization with overlap
     ethr =  5.50E-07,  avg # of iterations =  2.5

     total cpu time spent up to now is      255.1 secs

     total energy              =      -0.47643206 Ry
     estimated scf accuracy    <       0.00002488 Ry

     total magnetization       =     0.00 Bohr mag/cell
     absolute magnetization    =     0.01 Bohr mag/cell

     iteration # 43     ecut=    50.00 Ry     beta= 0.01
     Davidson diagonalization with overlap
     ethr =  5.50E-07,  avg # of iterations =  2.6

     total cpu time spent up to now is      260.3 secs

     total energy              =      -0.47649661 Ry
     estimated scf accuracy    <       0.00002065 Ry

     total magnetization       =     0.00 Bohr mag/cell
     absolute magnetization    =     0.01 Bohr mag/cell

     iteration # 44     ecut=    50.00 Ry     beta= 0.01
     Davidson diagonalization with overlap
     ethr =  5.50E-07,  avg # of iterations =  2.0

     total cpu time spent up to now is      264.9 secs

     total energy              =      -0.47656816 Ry
     estimated scf accuracy    <       0.00002555 Ry

     total magnetization       =    -0.00 Bohr mag/cell
     absolute magnetization    =     0.01 Bohr mag/cell

     iteration # 45     ecut=    50.00 Ry     beta= 0.01
     Davidson diagonalization with overlap
     ethr =  5.50E-07,  avg # of iterations =  2.1

     total cpu time spent up to now is      270.0 secs

     total energy              =      -0.47630472 Ry
     estimated scf accuracy    <       0.00002108 Ry

     total magnetization       =    -0.00 Bohr mag/cell
     absolute magnetization    =     0.01 Bohr mag/cell

     iteration # 46     ecut=    50.00 Ry     beta= 0.01
     Davidson diagonalization with overlap
     ethr =  5.50E-07,  avg # of iterations =  3.6

     total cpu time spent up to now is      276.0 secs

     total energy              =      -0.47598476 Ry
     estimated scf accuracy    <       0.00001415 Ry

     total magnetization       =     0.00 Bohr mag/cell
     absolute magnetization    =     0.01 Bohr mag/cell

     iteration # 47     ecut=    50.00 Ry     beta= 0.01
     Davidson diagonalization with overlap
     ethr =  5.50E-07,  avg # of iterations =  2.9

     total cpu time spent up to now is      281.5 secs

     total energy              =      -0.47543621 Ry
     estimated scf accuracy    <       0.00000259 Ry

     total magnetization       =    -0.00 Bohr mag/cell
     absolute magnetization    =     0.00 Bohr mag/cell

     iteration # 48     ecut=    50.00 Ry     beta= 0.01
     Davidson diagonalization with overlap
     ethr =  2.59E-07,  avg # of iterations =  4.9
 
     Magnetic moment per site  (integrated on atomic sphere of radius R)
     atom   1 (R=0.357)  charge=  0.5592  magn= -0.0036

     total cpu time spent up to now is      288.6 secs

     End of self-consistent calculation

 ------ SPIN UP ------------


          k = 0.0000 0.0000 0.0000 (  3151 PWs)   bands (ev):

    -3.6207   4.6615   4.6615   4.6615   7.5636

          k = 0.0000-0.1000 0.1000 (  3211 PWs)   bands (ev):

    -3.5138   4.1558   4.4041   4.5738   6.7158

          k = 0.0000-0.2000 0.2000 (  3224 PWs)   bands (ev):

    -3.1933   2.9263   3.9191   4.3403   6.1193

          k = 0.0000-0.3000 0.3000 (  3226 PWs)   bands (ev):

    -2.6610   1.5203   3.4913   4.0630   5.5539

          k = 0.0000-0.4000 0.4000 (  3202 PWs)   bands (ev):

    -1.9227   0.2092   3.2156   3.8548   5.2121

          k = 0.0000 0.5000-0.5000 (  3208 PWs)   bands (ev):

    -1.1352  -0.7747   3.1215   3.7793   5.0979

          k =-0.1000-0.1000 0.2000 (  3219 PWs)   bands (ev):

    -3.3000   3.5036   3.8127   4.2847   6.2903

          k =-0.1000-0.2000 0.3000 (  3225 PWs)   bands (ev):

    -2.8735   2.2841   3.1604   3.9310   5.8933

          k =-0.1000-0.3000 0.4000 (  3217 PWs)   bands (ev):

    -2.2370   0.9195   2.7749   3.6272   5.5693

          k =-0.1000 0.6000-0.5000 (  3213 PWs)   bands (ev):

    -1.4059  -0.2988   2.5812   3.4585   5.4009

          k =-0.2000-0.2000 0.4000 (  3222 PWs)   bands (ev):

    -2.3421   1.7661   1.8491   3.5683   6.0603

          k =-0.2000 0.7000-0.5000 (  3226 PWs)   bands (ev):

    -1.6041   0.5096   1.5058   3.3255   5.9593

          k =-0.2000 0.6000-0.4000 (  3225 PWs)   bands (ev):

    -0.7957  -0.4930   1.4052   3.2403   5.8966

          k =-0.3000 0.7000-0.4000 (  3229 PWs)   bands (ev):

    -0.7725   0.2144   0.3948   3.1683   6.3578

          k = 0.0000 0.0000 0.2000 (  3215 PWs)   bands (ev):

    -3.4068   4.1067   4.1067   4.1591   6.2034

          k = 0.0000-0.1000 0.3000 (  3225 PWs)   bands (ev):

    -3.0865   2.9906   3.5748   4.0004   5.5472

          k = 0.0000-0.2000 0.4000 (  3219 PWs)   bands (ev):

    -2.5543   1.6130   3.1201   3.7433   5.4357

          k = 0.0000-0.3000 0.5000 (  3225 PWs)   bands (ev):

    -1.8160   0.3088   2.8309   3.5290   5.4649

          k = 0.0000 0.6000-0.4000 (  3230 PWs)   bands (ev):

    -1.0222  -0.6799   2.7326   3.4504   5.4760

          k =-0.1000-0.1000 0.4000 (  3229 PWs)   bands (ev):

    -2.6603   2.3829   2.5259   3.8718   5.1644

          k =-0.1000-0.2000 0.5000 (  3228 PWs)   bands (ev):

    -2.0242   1.1122   2.0641   3.7491   5.2447

          k =-0.1000 0.7000-0.4000 (  3227 PWs)   bands (ev):

    -1.1917  -0.0996   1.8632   3.6352   5.3586

          k =-0.2000 0.2000 0.2000 (  3238 PWs)   bands (ev):

    -2.9800   2.8542   3.2724   3.2725   6.4578

          k =-0.2000 0.8000-0.4000 (  3230 PWs)   bands (ev):

    -1.2877   0.7607   0.8485   3.8412   5.4298

          k =-0.2000 0.7000-0.3000 (  3233 PWs)   bands (ev):

    -0.4590  -0.2192   0.7104   3.8483   5.6184

          k =-0.3000 0.3000 0.2000 (  3226 PWs)   bands (ev):

    -2.4483   1.7104   2.5558   2.8031   6.5882

          k = 0.6000-0.6000 0.2000 (  3228 PWs)   bands (ev):

    -1.7100   0.4111   2.2633   2.5028   6.5013

          k = 0.6000-0.7000 0.3000 (  3220 PWs)   bands (ev):

    -1.8133   1.3118   1.3211   2.2987   6.9344

          k = 0.5000-0.5000 0.2000 (  3224 PWs)   bands (ev):

    -0.9084  -0.5858   2.1684   2.4004   6.4638

          k = 0.5000-0.6000 0.3000 (  3225 PWs)   bands (ev):

    -0.9791   0.1009   1.1155   2.0990   7.0713

          k = 0.4000-0.6000 0.4000 (  3220 PWs)   bands (ev):

    -0.1190  -0.1190   0.1860   1.9997   7.3193

          k = 0.0000 0.0000 0.4000 (  3231 PWs)   bands (ev):

    -2.7664   2.9967   2.9967   3.3094   4.5240

          k = 0.0000-0.1000 0.5000 (  3226 PWs)   bands (ev):

    -2.2349   1.8725   2.5183   3.1823   4.3019

          k = 0.0000-0.2000 0.6000 (  3241 PWs)   bands (ev):

    -1.4969   0.6040   2.2179   3.0032   4.7346

          k = 0.0000 0.7000-0.3000 (  3240 PWs)   bands (ev):

    -0.6846  -0.3966   2.1161   2.9265   5.1361

          k =-0.1000-0.1000 0.6000 (  3237 PWs)   bands (ev):

    -1.6002   1.4691   1.4807   3.2630   4.0833

          k =-0.1000 0.8000-0.3000 (  3246 PWs)   bands (ev):

    -0.7671   0.2948   1.2718   3.2836   4.5241

          k =-0.2000 0.8000-0.2000 (  3225 PWs)   bands (ev):

     0.0943   0.0943   0.3484   3.5926   4.8042

          k = 0.6000-0.6000 0.4000 (  3223 PWs)   bands (ev):

    -1.0773   0.9957   0.9957   1.0505   7.8477

          k = 0.5000-0.5000 0.4000 (  3224 PWs)   bands (ev):

    -0.2308  -0.0298   0.8863   0.9450   8.0749

          k = 0.0000 0.0000 0.6000 (  3248 PWs)   bands (ev):

    -1.7047   2.0284   2.0284   2.6131   3.3226

          k = 0.0000-0.1000 0.7000 (  3243 PWs)   bands (ev):

    -0.9691   1.0701   1.7225   2.5544   3.4291

          k = 0.0000 0.8000-0.2000 (  3232 PWs)   bands (ev):

    -0.1294   0.0699   1.6192   2.4974   3.9992

          k =-0.1000 0.9000-0.2000 (  3239 PWs)   bands (ev):

    -0.1426   0.8311   0.8971   2.8099   3.4060

          k = 0.0000 0.0000 0.8000 (  3256 PWs)   bands (ev):

    -0.2419   1.4141   1.4141   2.1789   2.6011

          k = 0.0000 0.9000-0.1000 (  3260 PWs)   bands (ev):

     0.6121   0.6948   1.3100   2.2046   2.8903

          k = 0.0000 0.0000-1.0000 (  3300 PWs)   bands (ev):

     1.2057   1.2057   1.2057   1.9546   2.3606

 ------ SPIN DOWN ----------


          k = 0.0000 0.0000 0.0000 (  3151 PWs)   bands (ev):

    -3.6266   4.7122   4.7122   4.7122   7.4410

          k = 0.0000-0.1000 0.1000 (  3211 PWs)   bands (ev):

    -3.5198   4.1769   4.4285   4.6214   6.7258

          k = 0.0000-0.2000 0.2000 (  3224 PWs)   bands (ev):

    -3.2000   2.9181   3.9103   4.3829   5.9851

          k = 0.0000-0.3000 0.3000 (  3226 PWs)   bands (ev):

    -2.6684   1.5044   3.4620   4.1036   5.5649

          k = 0.0000-0.4000 0.4000 (  3202 PWs)   bands (ev):

    -1.9302   0.1915   3.1756   3.8954   5.1635

          k = 0.0000 0.5000-0.5000 (  3208 PWs)   bands (ev):

    -1.1269  -0.8084   3.0780   3.8201   5.0494

          k =-0.1000-0.1000 0.2000 (  3219 PWs)   bands (ev):

    -3.3065   3.5014   3.8138   4.3141   6.3352

          k =-0.1000-0.2000 0.3000 (  3225 PWs)   bands (ev):

    -2.8807   2.2693   3.1460   3.9497   5.9175

          k =-0.1000-0.3000 0.4000 (  3217 PWs)   bands (ev):

    -2.2448   0.9024   2.7518   3.6411   5.5874

          k =-0.1000 0.6000-0.5000 (  3213 PWs)   bands (ev):

    -1.4116  -0.3185   2.5540   3.4706   5.4160

          k =-0.2000-0.2000 0.4000 (  3222 PWs)   bands (ev):

    -2.3500   1.7393   1.8424   3.5737   6.0713

          k =-0.2000 0.7000-0.5000 (  3226 PWs)   bands (ev):

    -1.6122   0.4926   1.4870   3.3266   5.9774

          k =-0.2000 0.6000-0.4000 (  3225 PWs)   bands (ev):

    -0.7892  -0.5242   1.3853   3.2402   5.9149

          k =-0.3000 0.7000-0.4000 (  3229 PWs)   bands (ev):

    -0.7792   0.2154   0.3568   3.1665   6.3776

          k = 0.0000 0.0000 0.2000 (  3215 PWs)   bands (ev):

    -3.4131   4.1074   4.1074   4.2024   6.2364

          k = 0.0000-0.1000 0.3000 (  3225 PWs)   bands (ev):

    -3.0934   2.9784   3.5487   4.0337   5.5941

          k = 0.0000-0.2000 0.4000 (  3219 PWs)   bands (ev):

    -2.5621   1.5948   3.0781   3.7838   5.4830

          k = 0.0000-0.3000 0.5000 (  3225 PWs)   bands (ev):

    -1.8242   0.2901   2.7806   3.5734   5.5124

          k = 0.0000 0.6000-0.4000 (  3230 PWs)   bands (ev):

    -1.0151  -0.7138   2.6796   3.4960   5.5236

          k =-0.1000-0.1000 0.4000 (  3229 PWs)   bands (ev):

    -2.6681   2.3598   2.5044   3.8898   5.2068

          k =-0.1000-0.2000 0.5000 (  3228 PWs)   bands (ev):

    -2.0330   1.0916   2.0374   3.7658   5.2784

          k =-0.1000 0.7000-0.4000 (  3227 PWs)   bands (ev):

    -1.1994  -0.1203   1.8338   3.6522   5.3818

          k =-0.2000 0.2000 0.2000 (  3238 PWs)   bands (ev):

    -2.9870   2.8338   3.2756   3.2757   6.5029

          k =-0.2000 0.8000-0.4000 (  3230 PWs)   bands (ev):

    -1.2974   0.7533   0.8129   3.8497   5.4560

          k =-0.2000 0.7000-0.3000 (  3233 PWs)   bands (ev):

    -0.4567  -0.2481   0.6849   3.8553   5.6370

          k =-0.3000 0.3000 0.2000 (  3226 PWs)   bands (ev):

    -2.4559   1.6934   2.5371   2.8088   6.6187

          k = 0.6000-0.6000 0.2000 (  3228 PWs)   bands (ev):

    -1.7176   0.3947   2.2360   2.5102   6.5488

          k = 0.6000-0.7000 0.3000 (  3220 PWs)   bands (ev):

    -1.8212   1.2810   1.3213   2.2928   6.9739

          k = 0.5000-0.5000 0.2000 (  3224 PWs)   bands (ev):

    -0.9007  -0.6175   2.1387   2.4084   6.5088

          k = 0.5000-0.6000 0.3000 (  3225 PWs)   bands (ev):

    -0.9853   0.0855   1.0983   2.0911   7.1072

          k = 0.4000-0.6000 0.4000 (  3220 PWs)   bands (ev):

    -0.1141  -0.1141   0.1381   1.9906   7.3598

          k = 0.0000 0.0000 0.4000 (  3231 PWs)   bands (ev):

    -2.7742   2.9520   2.9520   3.3467   4.5863

          k = 0.0000-0.1000 0.5000 (  3226 PWs)   bands (ev):

    -2.2439   1.8439   2.4624   3.2157   4.3508

          k = 0.0000-0.2000 0.6000 (  3241 PWs)   bands (ev):

    -1.5072   0.5811   2.1559   3.0494   4.7659

          k = 0.0000 0.7000-0.3000 (  3240 PWs)   bands (ev):

    -0.6818  -0.4313   2.0522   2.9757   5.1645

          k =-0.1000-0.1000 0.6000 (  3237 PWs)   bands (ev):

    -1.6110   1.4309   1.4540   3.2725   4.1280

          k =-0.1000 0.8000-0.3000 (  3246 PWs)   bands (ev):

    -0.7790   0.2708   1.2369   3.2974   4.5529

          k =-0.2000 0.8000-0.2000 (  3225 PWs)   bands (ev):

     0.0877   0.0877   0.2965   3.5946   4.8295

          k = 0.6000-0.6000 0.4000 (  3223 PWs)   bands (ev):

    -1.0847   0.9993   0.9994   1.0036   7.9059

          k = 0.5000-0.5000 0.4000 (  3224 PWs)   bands (ev):

    -0.2247  -0.0525   0.8909   0.9092   8.1289

          k = 0.0000 0.0000 0.6000 (  3248 PWs)   bands (ev):

    -1.7158   1.9637   1.9637   2.6474   3.4053

          k = 0.0000-0.1000 0.7000 (  3243 PWs)   bands (ev):

    -0.9833   1.0339   1.6529   2.5939   3.4778

          k = 0.0000 0.8000-0.2000 (  3232 PWs)   bands (ev):

    -0.1356   0.0325   1.5479   2.5460   4.0250

          k =-0.1000 0.9000-0.2000 (  3239 PWs)   bands (ev):

    -0.1620   0.8033   0.8493   2.8135   3.4541

          k = 0.0000 0.0000 0.8000 (  3256 PWs)   bands (ev):

    -0.2632   1.3401   1.3401   2.2095   2.6961

          k = 0.0000 0.9000-0.1000 (  3260 PWs)   bands (ev):

     0.5842   0.6474   1.2346   2.2390   2.9393

          k = 0.0000 0.0000-1.0000 (  3300 PWs)   bands (ev):

     1.1288   1.1288   1.1288   1.9681   2.4596

     the Fermi energy is    -1.7131 ev

!    total energy              =      -0.47544809 Ry
     estimated scf accuracy    <       0.00000022 Ry
     smearing contrib. (-TS)   =      -0.04665552 Ry
     internal energy E=F+TS    =      -0.42879257 Ry

     The total energy is F=E-TS. E is the sum of the following terms:
     one-electron contribution =       0.16125358 Ry
     hartree contribution      =       0.00033860 Ry
     xc contribution           =      -0.23579077 Ry
     ewald contribution        =      -0.35459398 Ry

     total magnetization       =    -0.00 Bohr mag/cell
     absolute magnetization    =     0.01 Bohr mag/cell

     convergence has been achieved in  48 iterations
     Writing meta-gga kinetic term


     Computing stress (Cartesian axis) and pressure


 %%%%%%%%%%%%%%%%%%%%%%%%%%%%%%%%%%%%%%%%%%%%%%%%%%%%%%%%%%%%%%%%%%%%%%%%%%%%%%
     Error in routine stres_gradcorr (1):
     Meta-GGA stress does not work with spin polarization
 %%%%%%%%%%%%%%%%%%%%%%%%%%%%%%%%%%%%%%%%%%%%%%%%%%%%%%%%%%%%%%%%%%%%%%%%%%%%%%

     stopping ...
Abort(1) on node 0 (rank 0 in comm 0): application called MPI_Abort(MPI_COMM_WORLD, 1) - process 0
