
     Program PWSCF v.7.0 starts on 29Mar2023 at 12:34:19 

     This program is part of the open-source Quantum ESPRESSO suite
     for quantum simulation of materials; please cite
         "P. Giannozzi et al., J. Phys.:Condens. Matter 21 395502 (2009);
         "P. Giannozzi et al., J. Phys.:Condens. Matter 29 465901 (2017);
         "P. Giannozzi et al., J. Chem. Phys. 152 154105 (2020);
          URL http://www.quantum-espresso.org", 
     in publications or presentations arising from this work. More details at
     http://www.quantum-espresso.org/quote

     Parallel version (MPI), running on     1 processors

     MPI processes distributed on     1 nodes
     23336 MiB available memory on the printing compute node when the environment starts
 
     Waiting for input...
     Reading input from standard input
Warning: card &CELL ignored
Warning: card / ignored

     Current dimensions of program PWSCF are:
     Max number of different atomic species (ntypx) = 10
     Max number of k-points (npk) =  40000
     Max angular momentum in pseudopotentials (lmaxx) =  4

     WARNING: the MGGA functional with ID    5 has been 
     read together with other dft terms, but it should 
     stand alone in order to work properly. The other 
     terms will be ignored.

     Subspace diagonalization in iterative solution of the eigenvalue problem:
     a serial algorithm will be used

 
     G-vector sticks info
     --------------------
     sticks:   dense  smooth     PW     G-vecs:    dense   smooth      PW
     Sum         241     241     85                 2445     2445     531
 
     Using Slab Decomposition
 


     bravais-lattice index     =            2
     lattice parameter (alat)  =       5.9074  a.u.
     unit-cell volume          =      51.5371 (a.u.)^3
     number of atoms/cell      =            2
     number of atomic types    =            1
     number of electrons       =         8.00
     number of Kohn-Sham states=            4
     kinetic-energy cutoff     =      50.0000  Ry
     charge density cutoff     =     200.0000  Ry
     scf convergence threshold =      1.0E-06
     mixing beta               =       0.0100
     number of iterations used =            8  local-TF  mixing
     Exchange-correlation= SLA  PW   SCAN SCAN
                           (   0   0   0   0   0 263 267)

     celldm(1)=   5.907359  celldm(2)=   0.000000  celldm(3)=   0.000000
     celldm(4)=   0.000000  celldm(5)=   0.000000  celldm(6)=   0.000000

     crystal axes: (cart. coord. in units of alat)
               a(1) = (  -0.500000   0.000000   0.500000 )  
               a(2) = (   0.000000   0.500000   0.500000 )  
               a(3) = (  -0.500000   0.500000   0.000000 )  

     reciprocal axes: (cart. coord. in units 2 pi/alat)
               b(1) = ( -1.000000 -1.000000  1.000000 )  
               b(2) = (  1.000000  1.000000  1.000000 )  
               b(3) = ( -1.000000  1.000000 -1.000000 )  


     PseudoPot. # 1 for C  read from file:
     ~/Documents/TA/PWDFT.jl/pseudopotentials/scan_upf/C.SCAN.UPF2
     MD5 check sum: Not computed, couldn't open file
     Pseudo is Norm-conserving, Zval =  4.0
     Generated by new atomic code, or converted to UPF format
     Using radial grid of 1389 points,  1 beta functions with: 
                l(1) =   0

     atomic species   valence    mass     pseudopotential
        C              4.00    12.01100     C ( 1.00)

     48 Sym. Ops., with inversion, found (24 have fractional translation)



   Cartesian axes

     site n.     atom                  positions (alat units)
         1           C   tau(   1) = (   0.0000000   0.0000000   0.0000000  )
         2           C   tau(   2) = (   0.2500000   0.2500000   0.2500000  )

     number of k points=    47
                       cart. coord. in units 2pi/alat
        k(    1) = (   0.0000000   0.0000000   0.0000000), wk =   0.0020000
        k(    2) = (  -0.1000000   0.1000000  -0.1000000), wk =   0.0160000
        k(    3) = (  -0.2000000   0.2000000  -0.2000000), wk =   0.0160000
        k(    4) = (  -0.3000000   0.3000000  -0.3000000), wk =   0.0160000
        k(    5) = (  -0.4000000   0.4000000  -0.4000000), wk =   0.0160000
        k(    6) = (   0.5000000  -0.5000000   0.5000000), wk =   0.0080000
        k(    7) = (   0.0000000   0.2000000   0.0000000), wk =   0.0120000
        k(    8) = (  -0.1000000   0.3000000  -0.1000000), wk =   0.0480000
        k(    9) = (  -0.2000000   0.4000000  -0.2000000), wk =   0.0480000
        k(   10) = (  -0.3000000   0.5000000  -0.3000000), wk =   0.0480000
        k(   11) = (   0.6000000  -0.4000000   0.6000000), wk =   0.0480000
        k(   12) = (   0.5000000  -0.3000000   0.5000000), wk =   0.0480000
        k(   13) = (   0.4000000  -0.2000000   0.4000000), wk =   0.0480000
        k(   14) = (   0.3000000  -0.1000000   0.3000000), wk =   0.0480000
        k(   15) = (   0.2000000   0.0000000   0.2000000), wk =   0.0240000
        k(   16) = (   0.0000000   0.4000000   0.0000000), wk =   0.0120000
        k(   17) = (  -0.1000000   0.5000000  -0.1000000), wk =   0.0480000
        k(   18) = (  -0.2000000   0.6000000  -0.2000000), wk =   0.0480000
        k(   19) = (   0.7000000  -0.3000000   0.7000000), wk =   0.0480000
        k(   20) = (   0.6000000  -0.2000000   0.6000000), wk =   0.0480000
        k(   21) = (   0.5000000  -0.1000000   0.5000000), wk =   0.0480000
        k(   22) = (   0.4000000   0.0000000   0.4000000), wk =   0.0240000
        k(   23) = (   0.0000000   0.6000000   0.0000000), wk =   0.0120000
        k(   24) = (  -0.1000000   0.7000000  -0.1000000), wk =   0.0480000
        k(   25) = (   0.8000000  -0.2000000   0.8000000), wk =   0.0480000
        k(   26) = (   0.7000000  -0.1000000   0.7000000), wk =   0.0480000
        k(   27) = (   0.6000000  -0.0000000   0.6000000), wk =   0.0240000
        k(   28) = (   0.0000000   0.8000000   0.0000000), wk =   0.0120000
        k(   29) = (   0.9000000  -0.1000000   0.9000000), wk =   0.0480000
        k(   30) = (   0.8000000   0.0000000   0.8000000), wk =   0.0240000
        k(   31) = (   0.0000000  -1.0000000   0.0000000), wk =   0.0060000
        k(   32) = (  -0.2000000   0.4000000   0.0000000), wk =   0.0480000
        k(   33) = (  -0.3000000   0.5000000  -0.1000000), wk =   0.0960000
        k(   34) = (   0.6000000  -0.4000000   0.8000000), wk =   0.0960000
        k(   35) = (   0.5000000  -0.3000000   0.7000000), wk =   0.0480000
        k(   36) = (  -0.2000000   0.6000000   0.0000000), wk =   0.0480000
        k(   37) = (   0.7000000  -0.3000000   0.9000000), wk =   0.0960000
        k(   38) = (   0.6000000  -0.2000000   0.8000000), wk =   0.0960000
        k(   39) = (   0.5000000  -0.1000000   0.7000000), wk =   0.0960000
        k(   40) = (   0.4000000   0.0000000   0.6000000), wk =   0.0480000
        k(   41) = (   0.8000000  -0.2000000   1.0000000), wk =   0.0480000
        k(   42) = (   0.7000000  -0.1000000   0.9000000), wk =   0.0960000
        k(   43) = (   0.6000000   0.0000000   0.8000000), wk =   0.0480000
        k(   44) = (  -0.2000000  -1.0000000   0.0000000), wk =   0.0240000
        k(   45) = (   0.6000000  -0.2000000   1.0000000), wk =   0.0480000
        k(   46) = (   0.5000000  -0.1000000   0.9000000), wk =   0.0480000
        k(   47) = (  -0.4000000  -1.0000000   0.0000000), wk =   0.0240000

     Dense  grid:     2445 G-vectors     FFT dimensions: (  20,  20,  20)

     Estimated max dynamical RAM per process >       4.61 MB

     WARNING: libxc functional with ID  263 depends
      on external parameters: check the user_guide of
      QE if you need to modify them or to check their
      default values.

     Initial potential from superposition of free atoms

     starting charge       7.9999, renormalised to       8.0000
     Starting wfcs are    8 randomized atomic wfcs

     total cpu time spent up to now is        0.9 secs

     Self-consistent Calculation

     iteration #  1     ecut=    50.00 Ry     beta= 0.01
     Davidson diagonalization with overlap
     ethr =  1.00E-02,  avg # of iterations =  2.0

     total cpu time spent up to now is        2.1 secs

     total energy              =     -22.46786307 Ry
     estimated scf accuracy    <       3.63310549 Ry

     iteration #  2     ecut=    50.00 Ry     beta= 0.01
     Davidson diagonalization with overlap
     ethr =  1.00E-02,  avg # of iterations =  1.0

     total cpu time spent up to now is        2.9 secs

     total energy              =     -22.51536966 Ry
     estimated scf accuracy    <       3.62240775 Ry

     iteration #  3     ecut=    50.00 Ry     beta= 0.01
     Davidson diagonalization with overlap
     ethr =  1.00E-02,  avg # of iterations =  1.0

     total cpu time spent up to now is        3.6 secs

     total energy              =     -22.52292429 Ry
     estimated scf accuracy    <       0.04149679 Ry

     iteration #  4     ecut=    50.00 Ry     beta= 0.01
     Davidson diagonalization with overlap
     ethr =  5.19E-04,  avg # of iterations =  1.0

     total cpu time spent up to now is        4.4 secs

     total energy              =     -22.52282514 Ry
     estimated scf accuracy    <       0.03699333 Ry

     iteration #  5     ecut=    50.00 Ry     beta= 0.01
     Davidson diagonalization with overlap
     ethr =  4.62E-04,  avg # of iterations =  1.0

     total cpu time spent up to now is        5.2 secs

     total energy              =     -22.52023865 Ry
     estimated scf accuracy    <       0.03105397 Ry

     iteration #  6     ecut=    50.00 Ry     beta= 0.01
     Davidson diagonalization with overlap
     ethr =  3.88E-04,  avg # of iterations =  1.0

     total cpu time spent up to now is        6.0 secs

     total energy              =     -22.52242329 Ry
     estimated scf accuracy    <       0.00210302 Ry

     iteration #  7     ecut=    50.00 Ry     beta= 0.01
     Davidson diagonalization with overlap
     ethr =  2.63E-05,  avg # of iterations =  1.0

     total cpu time spent up to now is        6.8 secs

     total energy              =     -22.52254051 Ry
     estimated scf accuracy    <       0.00130897 Ry

     iteration #  8     ecut=    50.00 Ry     beta= 0.01
     Davidson diagonalization with overlap
     ethr =  1.64E-05,  avg # of iterations =  1.0

     total cpu time spent up to now is        7.5 secs

     total energy              =     -22.52256056 Ry
     estimated scf accuracy    <       0.00184469 Ry

     iteration #  9     ecut=    50.00 Ry     beta= 0.01
     Davidson diagonalization with overlap
     ethr =  1.64E-05,  avg # of iterations =  1.0

     total cpu time spent up to now is        8.4 secs

     total energy              =     -22.52260724 Ry
     estimated scf accuracy    <       0.00083161 Ry

     iteration # 10     ecut=    50.00 Ry     beta= 0.01
     Davidson diagonalization with overlap
     ethr =  1.04E-05,  avg # of iterations =  1.0

     total cpu time spent up to now is        9.1 secs

     total energy              =     -22.52263149 Ry
     estimated scf accuracy    <       0.00004622 Ry

     iteration # 11     ecut=    50.00 Ry     beta= 0.01
     Davidson diagonalization with overlap
     ethr =  5.78E-07,  avg # of iterations =  1.0

     total cpu time spent up to now is        9.9 secs

     total energy              =     -22.52263100 Ry
     estimated scf accuracy    <       0.00001745 Ry

     iteration # 12     ecut=    50.00 Ry     beta= 0.01
     Davidson diagonalization with overlap
     ethr =  2.18E-07,  avg # of iterations =  1.0

     total cpu time spent up to now is       10.7 secs

     total energy              =     -22.52263418 Ry
     estimated scf accuracy    <       0.00003054 Ry

     iteration # 13     ecut=    50.00 Ry     beta= 0.01
     Davidson diagonalization with overlap
     ethr =  2.18E-07,  avg # of iterations =  1.0

     total cpu time spent up to now is       11.4 secs

     total energy              =     -22.52263528 Ry
     estimated scf accuracy    <       0.00000502 Ry

     iteration # 14     ecut=    50.00 Ry     beta= 0.01
     Davidson diagonalization with overlap
     ethr =  6.28E-08,  avg # of iterations =  2.0

     total cpu time spent up to now is       12.5 secs

     End of self-consistent calculation

          k = 0.0000 0.0000 0.0000 (   331 PWs)   bands (ev):

    -7.0384  21.4823  21.4823  21.4823

          k =-0.1000 0.1000-0.1000 (   316 PWs)   bands (ev):

    -6.6675  19.1379  20.8206  20.8206

          k =-0.2000 0.2000-0.2000 (   311 PWs)   bands (ev):

    -5.5589  14.7728  19.5257  19.5257

          k =-0.3000 0.3000-0.3000 (   305 PWs)   bands (ev):

    -3.7230  10.1952  18.3900  18.3900

          k =-0.4000 0.4000-0.4000 (   302 PWs)   bands (ev):

    -1.1912   5.8929  17.6704  17.6704

          k = 0.5000-0.5000 0.5000 (   302 PWs)   bands (ev):

     1.6315   2.4717  17.4141  17.4141

          k = 0.0000 0.2000 0.0000 (   307 PWs)   bands (ev):

    -6.5437  19.5933  19.5933  20.5897

          k =-0.1000 0.3000-0.1000 (   310 PWs)   bands (ev):

    -5.6813  16.2630  18.1557  19.8303

          k =-0.2000 0.4000-0.2000 (   302 PWs)   bands (ev):

    -4.0879  11.8769  17.0962  18.5592

          k =-0.3000 0.5000-0.3000 (   307 PWs)   bands (ev):

    -1.7894   7.5344  16.5744  17.2713

          k = 0.6000-0.4000 0.6000 (   311 PWs)   bands (ev):

     1.1355   3.6367  16.3169  16.6440

          k = 0.5000-0.3000 0.5000 (   310 PWs)   bands (ev):

     0.1054   4.8653  15.8449  17.2821

          k = 0.4000-0.2000 0.4000 (   305 PWs)   bands (ev):

    -2.6326   8.9671  15.9395  18.3814

          k = 0.3000-0.1000 0.3000 (   311 PWs)   bands (ev):

    -4.7003  13.3927  16.6161  19.7261

          k = 0.2000 0.0000 0.2000 (   315 PWs)   bands (ev):

    -6.0508  17.5273  17.9847  20.8418

          k = 0.0000 0.4000 0.0000 (   303 PWs)   bands (ev):

    -5.0649  16.6141  16.6141  18.0028

          k =-0.1000 0.5000-0.1000 (   305 PWs)   bands (ev):

    -3.7206  13.5677  15.4723  16.7571

          k =-0.2000 0.6000-0.2000 (   316 PWs)   bands (ev):

    -1.6687   9.5804  14.9274  15.1714

          k = 0.7000-0.3000 0.7000 (   306 PWs)   bands (ev):

     1.0380   5.7071  13.7119  15.0541

          k = 0.6000-0.2000 0.6000 (   307 PWs)   bands (ev):

     2.0178   4.5717  12.7107  15.8088

          k = 0.5000-0.1000 0.5000 (   308 PWs)   bands (ev):

    -0.8433   8.3598  12.3169  17.0899

          k = 0.4000 0.0000 0.4000 (   305 PWs)   bands (ev):

    -3.1178  12.2573  12.8406  18.6136

          k = 0.0000 0.6000 0.0000 (   311 PWs)   bands (ev):

    -2.6266  14.1146  14.1945  14.1945

          k =-0.1000 0.7000-0.1000 (   313 PWs)   bands (ev):

    -0.8262  11.2284  12.8226  13.5178

          k = 0.8000-0.2000 0.8000 (   307 PWs)   bands (ev):

     1.6326   8.0382  10.8087  13.5294

          k = 0.7000-0.1000 0.7000 (   305 PWs)   bands (ev):

     4.0856   5.3551   9.2996  14.2191

          k = 0.6000-0.0000 0.6000 (   303 PWs)   bands (ev):

     1.5861   8.2024   8.7456  15.4968

          k = 0.0000 0.8000 0.0000 (   322 PWs)   bands (ev):

     0.7168   9.4804  12.6665  12.6665

          k = 0.9000-0.1000 0.9000 (   310 PWs)   bands (ev):

     2.9186   7.2776  11.0634  12.5104

          k = 0.8000 0.0000 0.8000 (   300 PWs)   bands (ev):

     5.4279   5.6976   8.3711  13.0498

          k = 0.0000-1.0000 0.0000 (   302 PWs)   bands (ev):

     4.8518   4.8518  12.1611  12.1611

          k =-0.2000 0.4000 0.0000 (   306 PWs)   bands (ev):

    -4.5760  14.7617  15.2777  18.9327

          k =-0.3000 0.5000-0.1000 (   311 PWs)   bands (ev):

    -2.7536  10.8207  14.2904  17.5320

          k = 0.6000-0.4000 0.8000 (   306 PWs)   bands (ev):

    -0.2470   6.7264  14.0953  16.1526

          k = 0.5000-0.3000 0.7000 (   308 PWs)   bands (ev):

     2.4595   3.4590  14.2155  15.4672

          k =-0.2000 0.6000 0.0000 (   309 PWs)   bands (ev):

    -2.1474  12.3291  12.9963  15.3128

          k = 0.7000-0.3000 0.9000 (   311 PWs)   bands (ev):

     0.1107   8.9354  12.2289  13.8179

          k = 0.6000-0.2000 0.8000 (   304 PWs)   bands (ev):

     2.9195   5.4201  11.4648  13.5181

          k = 0.5000-0.1000 0.7000 (   305 PWs)   bands (ev):

     1.9304   6.6130  10.6865  14.4507

          k = 0.4000 0.0000 0.6000 (   310 PWs)   bands (ev):

    -0.7235  10.1329  10.7252  15.9666

          k = 0.8000-0.2000 1.0000 (   315 PWs)   bands (ev):

     1.1763   9.5021  11.5599  12.0287

          k = 0.7000-0.1000 0.9000 (   306 PWs)   bands (ev):

     3.7616   7.3999   9.1517  11.9774

          k = 0.6000 0.0000 0.8000 (   300 PWs)   bands (ev):

     4.5065   6.8968   7.6910  12.9207

          k =-0.2000-1.0000 0.0000 (   308 PWs)   bands (ev):

     5.2415   5.2415  11.1394  11.1394

          k = 0.6000-0.2000 1.0000 (   305 PWs)   bands (ev):

     2.5159   8.5468   9.4230  11.9652

          k = 0.5000-0.1000 0.9000 (   304 PWs)   bands (ev):

     4.8892   6.2120   9.3283  11.0118

          k =-0.4000-1.0000 0.0000 (   302 PWs)   bands (ev):

     6.2128   6.2128   9.3263   9.3263

     highest occupied level (ev):    21.4823

!    total energy              =     -22.52263612 Ry
     estimated scf accuracy    <       0.00000068 Ry

     The total energy is the sum of the following terms:
     one-electron contribution =      12.87029871 Ry
     hartree contribution      =       1.60052504 Ry
     xc contribution           =      -7.81332608 Ry
     ewald contribution        =     -29.18013379 Ry

     convergence has been achieved in  14 iterations
     Writing meta-gga kinetic term

     Writing all to output data dir ./input_pw/C/1/pwscf.save/
     Writing meta-gga kinetic term
 
     init_run     :      0.34s CPU      0.88s WALL (       1 calls)
     electrons    :      5.52s CPU     11.53s WALL (       1 calls)

     Called by init_run:
     wfcinit      :      0.30s CPU      0.76s WALL (       1 calls)
     potinit      :      0.01s CPU      0.01s WALL (       1 calls)
     hinit0       :      0.03s CPU      0.10s WALL (       1 calls)

     Called by electrons:
     c_bands      :      4.34s CPU      9.12s WALL (      14 calls)
     sum_band     :      1.07s CPU      2.19s WALL (      14 calls)
     v_of_rho     :      0.07s CPU      0.18s WALL (      15 calls)
     mix_rho      :      0.03s CPU      0.05s WALL (      14 calls)

     Called by c_bands:
     init_us_2    :      0.02s CPU      0.04s WALL (    1363 calls)
     init_us_2:cp :      0.02s CPU      0.03s WALL (    1363 calls)
     cegterg      :      4.31s CPU      9.03s WALL (     658 calls)

     Called by *egterg:
     cdiaghg      :      0.05s CPU      0.10s WALL (    1412 calls)
     h_psi        :      4.46s CPU      9.48s WALL (    1459 calls)
     g_psi        :      0.00s CPU      0.02s WALL (     754 calls)

     Called by h_psi:
     h_psi:calbec :      0.01s CPU      0.05s WALL (    1459 calls)
     vloc_psi     :      1.10s CPU      2.30s WALL (    1459 calls)
     add_vuspsi   :      0.01s CPU      0.02s WALL (    1459 calls)
     h_psi_meta   :      3.32s CPU      7.09s WALL (    1459 calls)

     General routines
     calbec       :      0.01s CPU      0.01s WALL (    1459 calls)
     fft          :      0.02s CPU      0.06s WALL (     177 calls)
     ffts         :      0.02s CPU      0.05s WALL (     221 calls)
     fftw         :      4.88s CPU     10.33s WALL (   58568 calls)
     interpolate  :      0.00s CPU      0.00s WALL (      15 calls)
 
     Parallel routines
 
     PWSCF        :      5.90s CPU     12.51s WALL

 
   This run was terminated on:  12:34:31  29Mar2023            

=------------------------------------------------------------------------------=
   JOB DONE.
=------------------------------------------------------------------------------=
