
     Program PWSCF v.7.0 starts on  7Jul2023 at 14:25:23 

     This program is part of the open-source Quantum ESPRESSO suite
     for quantum simulation of materials; please cite
         "P. Giannozzi et al., J. Phys.:Condens. Matter 21 395502 (2009);
         "P. Giannozzi et al., J. Phys.:Condens. Matter 29 465901 (2017);
         "P. Giannozzi et al., J. Chem. Phys. 152 154105 (2020);
          URL http://www.quantum-espresso.org", 
     in publications or presentations arising from this work. More details at
     http://www.quantum-espresso.org/quote

     Parallel version (MPI), running on     1 processors

     MPI processes distributed on     1 nodes
     27515 MiB available memory on the printing compute node when the environment starts
 
     Waiting for input...
     Reading input from standard input
Warning: card &CELL ignored
Warning: card / ignored

     Current dimensions of program PWSCF are:
     Max number of different atomic species (ntypx) = 10
     Max number of k-points (npk) =  40000
     Max angular momentum in pseudopotentials (lmaxx) =  4

     WARNING: the MGGA functional with ID    5 has been 
     read together with other dft terms, but it should 
     stand alone in order to work properly. The other 
     terms will be ignored.

     Subspace diagonalization in iterative solution of the eigenvalue problem:
     a serial algorithm will be used

 
     G-vector sticks info
     --------------------
     sticks:   dense  smooth     PW     G-vecs:    dense   smooth      PW
     Sum         241     241     85                 2445     2445     531
 
     Using Slab Decomposition
 


     bravais-lattice index     =            2
     lattice parameter (alat)  =       5.9074  a.u.
     unit-cell volume          =      51.5371 (a.u.)^3
     number of atoms/cell      =            2
     number of atomic types    =            1
     number of electrons       =         8.00
     number of Kohn-Sham states=            4
     kinetic-energy cutoff     =      50.0000  Ry
     charge density cutoff     =     200.0000  Ry
     scf convergence threshold =      2.0E-05
     mixing beta               =       0.2000
     number of iterations used =            8  local-TF  mixing
     Exchange-correlation= SLA  PW   SCAN SCAN
                           (   0   0   0   0   0 263 267)

     celldm(1)=   5.907359  celldm(2)=   0.000000  celldm(3)=   0.000000
     celldm(4)=   0.000000  celldm(5)=   0.000000  celldm(6)=   0.000000

     crystal axes: (cart. coord. in units of alat)
               a(1) = (  -0.500000   0.000000   0.500000 )  
               a(2) = (   0.000000   0.500000   0.500000 )  
               a(3) = (  -0.500000   0.500000   0.000000 )  

     reciprocal axes: (cart. coord. in units 2 pi/alat)
               b(1) = ( -1.000000 -1.000000  1.000000 )  
               b(2) = (  1.000000  1.000000  1.000000 )  
               b(3) = ( -1.000000  1.000000 -1.000000 )  


     PseudoPot. # 1 for C  read from file:
     ~/Documents/TA/PWDFT.jl/pseudopotentials/scan_upf/C.SCAN.UPF2
     MD5 check sum: Not computed, couldn't open file
     Pseudo is Norm-conserving, Zval =  4.0
     Generated by new atomic code, or converted to UPF format
     Using radial grid of 1389 points,  1 beta functions with: 
                l(1) =   0

     atomic species   valence    mass     pseudopotential
        C              4.00    12.01100     C ( 1.00)

     48 Sym. Ops., with inversion, found (24 have fractional translation)



   Cartesian axes

     site n.     atom                  positions (alat units)
         1           C   tau(   1) = (   0.0000000   0.0000000   0.0000000  )
         2           C   tau(   2) = (   0.2500000   0.2500000   0.2500000  )

     number of k points=    47
                       cart. coord. in units 2pi/alat
        k(    1) = (   0.0000000   0.0000000   0.0000000), wk =   0.0020000
        k(    2) = (  -0.1000000   0.1000000  -0.1000000), wk =   0.0160000
        k(    3) = (  -0.2000000   0.2000000  -0.2000000), wk =   0.0160000
        k(    4) = (  -0.3000000   0.3000000  -0.3000000), wk =   0.0160000
        k(    5) = (  -0.4000000   0.4000000  -0.4000000), wk =   0.0160000
        k(    6) = (   0.5000000  -0.5000000   0.5000000), wk =   0.0080000
        k(    7) = (   0.0000000   0.2000000   0.0000000), wk =   0.0120000
        k(    8) = (  -0.1000000   0.3000000  -0.1000000), wk =   0.0480000
        k(    9) = (  -0.2000000   0.4000000  -0.2000000), wk =   0.0480000
        k(   10) = (  -0.3000000   0.5000000  -0.3000000), wk =   0.0480000
        k(   11) = (   0.6000000  -0.4000000   0.6000000), wk =   0.0480000
        k(   12) = (   0.5000000  -0.3000000   0.5000000), wk =   0.0480000
        k(   13) = (   0.4000000  -0.2000000   0.4000000), wk =   0.0480000
        k(   14) = (   0.3000000  -0.1000000   0.3000000), wk =   0.0480000
        k(   15) = (   0.2000000   0.0000000   0.2000000), wk =   0.0240000
        k(   16) = (   0.0000000   0.4000000   0.0000000), wk =   0.0120000
        k(   17) = (  -0.1000000   0.5000000  -0.1000000), wk =   0.0480000
        k(   18) = (  -0.2000000   0.6000000  -0.2000000), wk =   0.0480000
        k(   19) = (   0.7000000  -0.3000000   0.7000000), wk =   0.0480000
        k(   20) = (   0.6000000  -0.2000000   0.6000000), wk =   0.0480000
        k(   21) = (   0.5000000  -0.1000000   0.5000000), wk =   0.0480000
        k(   22) = (   0.4000000   0.0000000   0.4000000), wk =   0.0240000
        k(   23) = (   0.0000000   0.6000000   0.0000000), wk =   0.0120000
        k(   24) = (  -0.1000000   0.7000000  -0.1000000), wk =   0.0480000
        k(   25) = (   0.8000000  -0.2000000   0.8000000), wk =   0.0480000
        k(   26) = (   0.7000000  -0.1000000   0.7000000), wk =   0.0480000
        k(   27) = (   0.6000000  -0.0000000   0.6000000), wk =   0.0240000
        k(   28) = (   0.0000000   0.8000000   0.0000000), wk =   0.0120000
        k(   29) = (   0.9000000  -0.1000000   0.9000000), wk =   0.0480000
        k(   30) = (   0.8000000   0.0000000   0.8000000), wk =   0.0240000
        k(   31) = (   0.0000000  -1.0000000   0.0000000), wk =   0.0060000
        k(   32) = (  -0.2000000   0.4000000   0.0000000), wk =   0.0480000
        k(   33) = (  -0.3000000   0.5000000  -0.1000000), wk =   0.0960000
        k(   34) = (   0.6000000  -0.4000000   0.8000000), wk =   0.0960000
        k(   35) = (   0.5000000  -0.3000000   0.7000000), wk =   0.0480000
        k(   36) = (  -0.2000000   0.6000000   0.0000000), wk =   0.0480000
        k(   37) = (   0.7000000  -0.3000000   0.9000000), wk =   0.0960000
        k(   38) = (   0.6000000  -0.2000000   0.8000000), wk =   0.0960000
        k(   39) = (   0.5000000  -0.1000000   0.7000000), wk =   0.0960000
        k(   40) = (   0.4000000   0.0000000   0.6000000), wk =   0.0480000
        k(   41) = (   0.8000000  -0.2000000   1.0000000), wk =   0.0480000
        k(   42) = (   0.7000000  -0.1000000   0.9000000), wk =   0.0960000
        k(   43) = (   0.6000000   0.0000000   0.8000000), wk =   0.0480000
        k(   44) = (  -0.2000000  -1.0000000   0.0000000), wk =   0.0240000
        k(   45) = (   0.6000000  -0.2000000   1.0000000), wk =   0.0480000
        k(   46) = (   0.5000000  -0.1000000   0.9000000), wk =   0.0480000
        k(   47) = (  -0.4000000  -1.0000000   0.0000000), wk =   0.0240000

     Dense  grid:     2445 G-vectors     FFT dimensions: (  20,  20,  20)

     Estimated max dynamical RAM per process >       4.61 MB

     WARNING: libxc functional with ID  263 depends
      on external parameters: check the user_guide of
      QE if you need to modify them or to check their
      default values.

     Initial potential from superposition of free atoms

     starting charge       7.9999, renormalised to       8.0000
     Starting wfcs are    8 randomized atomic wfcs

     total cpu time spent up to now is        0.7 secs

     Self-consistent Calculation

     iteration #  1     ecut=    50.00 Ry     beta= 0.20
     Davidson diagonalization with overlap
     ethr =  1.00E-02,  avg # of iterations =  2.0

     total cpu time spent up to now is        1.8 secs

     total energy              =     -22.54004473 Ry
     estimated scf accuracy    <       3.63310549 Ry

     iteration #  2     ecut=    50.00 Ry     beta= 0.20
     Davidson diagonalization with overlap
     ethr =  1.00E-02,  avg # of iterations =  1.0

     total cpu time spent up to now is        2.5 secs

     total energy              =     -22.51027710 Ry
     estimated scf accuracy    <       2.42511008 Ry

     iteration #  3     ecut=    50.00 Ry     beta= 0.20
     Davidson diagonalization with overlap
     ethr =  1.00E-02,  avg # of iterations =  1.0

     total cpu time spent up to now is        3.3 secs

     total energy              =     -22.52103343 Ry
     estimated scf accuracy    <       0.03852089 Ry

     iteration #  4     ecut=    50.00 Ry     beta= 0.20
     Davidson diagonalization with overlap
     ethr =  4.82E-04,  avg # of iterations =  1.0

     total cpu time spent up to now is        4.1 secs

     total energy              =     -22.52159912 Ry
     estimated scf accuracy    <       0.01724962 Ry

     iteration #  5     ecut=    50.00 Ry     beta= 0.20
     Davidson diagonalization with overlap
     ethr =  2.16E-04,  avg # of iterations =  1.0

     total cpu time spent up to now is        4.8 secs

     total energy              =     -22.52251617 Ry
     estimated scf accuracy    <       0.00271818 Ry

     iteration #  6     ecut=    50.00 Ry     beta= 0.20
     Davidson diagonalization with overlap
     ethr =  3.40E-05,  avg # of iterations =  1.0

     total cpu time spent up to now is        5.6 secs

     total energy              =     -22.52259625 Ry
     estimated scf accuracy    <       0.00007865 Ry

     iteration #  7     ecut=    50.00 Ry     beta= 0.20
     Davidson diagonalization with overlap
     ethr =  9.83E-07,  avg # of iterations =  1.5

     total cpu time spent up to now is        6.4 secs

     total energy              =     -22.52262992 Ry
     estimated scf accuracy    <       0.00003394 Ry

     iteration #  8     ecut=    50.00 Ry     beta= 0.20
     Davidson diagonalization with overlap
     ethr =  4.24E-07,  avg # of iterations =  2.0

     total cpu time spent up to now is        7.5 secs

     End of self-consistent calculation

          k = 0.0000 0.0000 0.0000 (   331 PWs)   bands (ev):

    -7.0362  21.4848  21.4848  21.4848

          k =-0.1000 0.1000-0.1000 (   316 PWs)   bands (ev):

    -6.6654  19.1405  20.8232  20.8232

          k =-0.2000 0.2000-0.2000 (   311 PWs)   bands (ev):

    -5.5567  14.7754  19.5284  19.5284

          k =-0.3000 0.3000-0.3000 (   305 PWs)   bands (ev):

    -3.7208  10.1977  18.3928  18.3929

          k =-0.4000 0.4000-0.4000 (   302 PWs)   bands (ev):

    -1.1890   5.8952  17.6733  17.6733

          k = 0.5000-0.5000 0.5000 (   302 PWs)   bands (ev):

     1.6341   2.4736  17.4171  17.4171

          k = 0.0000 0.2000 0.0000 (   307 PWs)   bands (ev):

    -6.5415  19.5960  19.5960  20.5923

          k =-0.1000 0.3000-0.1000 (   310 PWs)   bands (ev):

    -5.6792  16.2657  18.1585  19.8330

          k =-0.2000 0.4000-0.2000 (   302 PWs)   bands (ev):

    -4.0857  11.8794  17.0990  18.5620

          k =-0.3000 0.5000-0.3000 (   307 PWs)   bands (ev):

    -1.7872   7.5368  16.5773  17.2742

          k = 0.6000-0.4000 0.6000 (   311 PWs)   bands (ev):

     1.1379   3.6388  16.3198  16.6469

          k = 0.5000-0.3000 0.5000 (   310 PWs)   bands (ev):

     0.1077   4.8675  15.8478  17.2850

          k = 0.4000-0.2000 0.4000 (   305 PWs)   bands (ev):

    -2.6304   8.9695  15.9423  18.3843

          k = 0.3000-0.1000 0.3000 (   311 PWs)   bands (ev):

    -4.6981  13.3953  16.6189  19.7289

          k = 0.2000 0.0000 0.2000 (   315 PWs)   bands (ev):

    -6.0487  17.5300  17.9875  20.8445

          k = 0.0000 0.4000 0.0000 (   303 PWs)   bands (ev):

    -5.0627  16.6169  16.6169  18.0055

          k =-0.1000 0.5000-0.1000 (   305 PWs)   bands (ev):

    -3.7184  13.5704  15.4751  16.7598

          k =-0.2000 0.6000-0.2000 (   316 PWs)   bands (ev):

    -1.6665   9.5829  14.9303  15.1741

          k = 0.7000-0.3000 0.7000 (   306 PWs)   bands (ev):

     1.0404   5.7094  13.7145  15.0570

          k = 0.6000-0.2000 0.6000 (   307 PWs)   bands (ev):

     2.0202   4.5739  12.7133  15.8117

          k = 0.5000-0.1000 0.5000 (   308 PWs)   bands (ev):

    -0.8411   8.3622  12.3195  17.0928

          k = 0.4000 0.0000 0.4000 (   305 PWs)   bands (ev):

    -3.1156  12.2599  12.8431  18.6164

          k = 0.0000 0.6000 0.0000 (   311 PWs)   bands (ev):

    -2.6244  14.1173  14.1974  14.1974

          k =-0.1000 0.7000-0.1000 (   313 PWs)   bands (ev):

    -0.8240  11.2312  12.8252  13.5206

          k = 0.8000-0.2000 0.8000 (   307 PWs)   bands (ev):

     1.6349   8.0408  10.8111  13.5322

          k = 0.7000-0.1000 0.7000 (   305 PWs)   bands (ev):

     4.0883   5.3572   9.3020  14.2220

          k = 0.6000-0.0000 0.6000 (   303 PWs)   bands (ev):

     1.5885   8.2049   8.7479  15.4996

          k = 0.0000 0.8000 0.0000 (   322 PWs)   bands (ev):

     0.7191   9.4830  12.6693  12.6693

          k = 0.9000-0.1000 0.9000 (   310 PWs)   bands (ev):

     2.9209   7.2802  11.0660  12.5132

          k = 0.8000 0.0000 0.8000 (   300 PWs)   bands (ev):

     5.4305   5.7001   8.3733  13.0527

          k = 0.0000-1.0000 0.0000 (   302 PWs)   bands (ev):

     4.8542   4.8542  12.1639  12.1639

          k =-0.2000 0.4000 0.0000 (   306 PWs)   bands (ev):

    -4.5738  14.7644  15.2804  18.9355

          k =-0.3000 0.5000-0.1000 (   311 PWs)   bands (ev):

    -2.7514  10.8232  14.2931  17.5348

          k = 0.6000-0.4000 0.8000 (   306 PWs)   bands (ev):

    -0.2447   6.7288  14.0980  16.1554

          k = 0.5000-0.3000 0.7000 (   308 PWs)   bands (ev):

     2.4622   3.4610  14.2183  15.4700

          k =-0.2000 0.6000 0.0000 (   309 PWs)   bands (ev):

    -2.1452  12.3318  12.9990  15.3155

          k = 0.7000-0.3000 0.9000 (   311 PWs)   bands (ev):

     0.1130   8.9379  12.2315  13.8205

          k = 0.6000-0.2000 0.8000 (   304 PWs)   bands (ev):

     2.9220   5.4223  11.4674  13.5208

          k = 0.5000-0.1000 0.7000 (   305 PWs)   bands (ev):

     1.9328   6.6153  10.6890  14.4534

          k = 0.4000 0.0000 0.6000 (   310 PWs)   bands (ev):

    -0.7213  10.1355  10.7276  15.9693

          k = 0.8000-0.2000 1.0000 (   315 PWs)   bands (ev):

     1.1786   9.5048  11.5626  12.0312

          k = 0.7000-0.1000 0.9000 (   306 PWs)   bands (ev):

     3.7641   7.4026   9.1539  11.9801

          k = 0.6000 0.0000 0.8000 (   300 PWs)   bands (ev):

     4.5091   6.8993   7.6931  12.9233

          k =-0.2000-1.0000 0.0000 (   308 PWs)   bands (ev):

     5.2439   5.2439  11.1420  11.1420

          k = 0.6000-0.2000 1.0000 (   305 PWs)   bands (ev):

     2.5183   8.5495   9.4254  11.9676

          k = 0.5000-0.1000 0.9000 (   304 PWs)   bands (ev):

     4.8919   6.2142   9.3308  11.0141

          k =-0.4000-1.0000 0.0000 (   302 PWs)   bands (ev):

     6.2154   6.2154   9.3286   9.3286

     highest occupied level (ev):    21.4848

!    total energy              =     -22.52263601 Ry
     estimated scf accuracy    <       0.00000145 Ry

     The total energy is the sum of the following terms:
     one-electron contribution =      12.87049179 Ry
     hartree contribution      =       1.60023693 Ry
     xc contribution           =      -7.81323095 Ry
     ewald contribution        =     -29.18013379 Ry

     convergence has been achieved in   8 iterations
     Writing meta-gga kinetic term

     Writing all to output data dir ./input_pw/C/1/pwscf.save/
     Writing meta-gga kinetic term
 
     init_run     :      0.34s CPU      0.61s WALL (       1 calls)
     electrons    :      3.32s CPU      6.83s WALL (       1 calls)

     Called by init_run:
     wfcinit      :      0.30s CPU      0.51s WALL (       1 calls)
     potinit      :      0.01s CPU      0.01s WALL (       1 calls)
     hinit0       :      0.03s CPU      0.08s WALL (       1 calls)

     Called by electrons:
     c_bands      :      2.65s CPU      5.44s WALL (       8 calls)
     sum_band     :      0.62s CPU      1.25s WALL (       8 calls)
     v_of_rho     :      0.04s CPU      0.08s WALL (       9 calls)
     mix_rho      :      0.01s CPU      0.03s WALL (       8 calls)

     Called by c_bands:
     init_us_2    :      0.01s CPU      0.03s WALL (     799 calls)
     init_us_2:cp :      0.01s CPU      0.03s WALL (     799 calls)
     cegterg      :      2.63s CPU      5.37s WALL (     376 calls)

     Called by *egterg:
     cdiaghg      :      0.03s CPU      0.03s WALL (     870 calls)
     h_psi        :      2.84s CPU      5.66s WALL (     917 calls)
     g_psi        :      0.00s CPU      0.02s WALL (     494 calls)

     Called by h_psi:
     h_psi:calbec :      0.01s CPU      0.01s WALL (     917 calls)
     vloc_psi     :      0.70s CPU      1.45s WALL (     917 calls)
     add_vuspsi   :      0.01s CPU      0.01s WALL (     917 calls)
     h_psi_meta   :      2.11s CPU      4.19s WALL (     917 calls)

     General routines
     calbec       :      0.00s CPU      0.00s WALL (     917 calls)
     fft          :      0.01s CPU      0.05s WALL (     105 calls)
     ffts         :      0.01s CPU      0.01s WALL (     119 calls)
     fftw         :      3.06s CPU      6.12s WALL (   36344 calls)
     interpolate  :      0.00s CPU      0.00s WALL (       9 calls)
 
     Parallel routines
 
     PWSCF        :      3.69s CPU      7.52s WALL

 
   This run was terminated on:  14:25:30   7Jul2023            

=------------------------------------------------------------------------------=
   JOB DONE.
=------------------------------------------------------------------------------=
