
     Program PWSCF v.7.0 starts on 14Mar2023 at 11:48:16 

     This program is part of the open-source Quantum ESPRESSO suite
     for quantum simulation of materials; please cite
         "P. Giannozzi et al., J. Phys.:Condens. Matter 21 395502 (2009);
         "P. Giannozzi et al., J. Phys.:Condens. Matter 29 465901 (2017);
         "P. Giannozzi et al., J. Chem. Phys. 152 154105 (2020);
          URL http://www.quantum-espresso.org", 
     in publications or presentations arising from this work. More details at
     http://www.quantum-espresso.org/quote

     Parallel version (MPI), running on     1 processors

     MPI processes distributed on     1 nodes
     27209 MiB available memory on the printing compute node when the environment starts
 
     Waiting for input...
     Reading input from standard input
Warning: card &CELL ignored
Warning: card / ignored

     Current dimensions of program PWSCF are:
     Max number of different atomic species (ntypx) = 10
     Max number of k-points (npk) =  40000
     Max angular momentum in pseudopotentials (lmaxx) =  4

     WARNING: the MGGA functional with ID    5 has been 
     read together with other dft terms, but it should 
     stand alone in order to work properly. The other 
     terms will be ignored.

     Subspace diagonalization in iterative solution of the eigenvalue problem:
     a serial algorithm will be used

 
     G-vector sticks info
     --------------------
     sticks:   dense  smooth     PW     G-vecs:    dense   smooth      PW
     Sum         241     241     85                 2445     2445     531
 
     Using Slab Decomposition
 


     bravais-lattice index     =            2
     lattice parameter (alat)  =       5.9210  a.u.
     unit-cell volume          =      51.8942 (a.u.)^3
     number of atoms/cell      =            2
     number of atomic types    =            1
     number of electrons       =         8.00
     number of Kohn-Sham states=            4
     kinetic-energy cutoff     =      50.0000  Ry
     charge density cutoff     =     200.0000  Ry
     scf convergence threshold =      1.0E-06
     mixing beta               =       0.0100
     number of iterations used =            8  local-TF  mixing
     Exchange-correlation= SLA  PW   SCAN SCAN
                           (   0   0   0   0   0 263 267)

     celldm(1)=   5.920971  celldm(2)=   0.000000  celldm(3)=   0.000000
     celldm(4)=   0.000000  celldm(5)=   0.000000  celldm(6)=   0.000000

     crystal axes: (cart. coord. in units of alat)
               a(1) = (  -0.500000   0.000000   0.500000 )  
               a(2) = (   0.000000   0.500000   0.500000 )  
               a(3) = (  -0.500000   0.500000   0.000000 )  

     reciprocal axes: (cart. coord. in units 2 pi/alat)
               b(1) = ( -1.000000 -1.000000  1.000000 )  
               b(2) = (  1.000000  1.000000  1.000000 )  
               b(3) = ( -1.000000  1.000000 -1.000000 )  


     PseudoPot. # 1 for C  read from file:
     ~/Documents/TA/PWDFT.jl/pseudopotentials/scan_upf/C.SCAN.UPF2
     MD5 check sum: Not computed, couldn't open file
     Pseudo is Norm-conserving, Zval =  4.0
     Generated by new atomic code, or converted to UPF format
     Using radial grid of 1389 points,  1 beta functions with: 
                l(1) =   0

     atomic species   valence    mass     pseudopotential
        C              4.00    12.01100     C ( 1.00)

     48 Sym. Ops., with inversion, found (24 have fractional translation)



   Cartesian axes

     site n.     atom                  positions (alat units)
         1           C   tau(   1) = (   0.0000000   0.0000000   0.0000000  )
         2           C   tau(   2) = (   0.2500000   0.2500000   0.2500000  )

     number of k points=    47
                       cart. coord. in units 2pi/alat
        k(    1) = (   0.0000000   0.0000000   0.0000000), wk =   0.0020000
        k(    2) = (  -0.1000000   0.1000000  -0.1000000), wk =   0.0160000
        k(    3) = (  -0.2000000   0.2000000  -0.2000000), wk =   0.0160000
        k(    4) = (  -0.3000000   0.3000000  -0.3000000), wk =   0.0160000
        k(    5) = (  -0.4000000   0.4000000  -0.4000000), wk =   0.0160000
        k(    6) = (   0.5000000  -0.5000000   0.5000000), wk =   0.0080000
        k(    7) = (   0.0000000   0.2000000   0.0000000), wk =   0.0120000
        k(    8) = (  -0.1000000   0.3000000  -0.1000000), wk =   0.0480000
        k(    9) = (  -0.2000000   0.4000000  -0.2000000), wk =   0.0480000
        k(   10) = (  -0.3000000   0.5000000  -0.3000000), wk =   0.0480000
        k(   11) = (   0.6000000  -0.4000000   0.6000000), wk =   0.0480000
        k(   12) = (   0.5000000  -0.3000000   0.5000000), wk =   0.0480000
        k(   13) = (   0.4000000  -0.2000000   0.4000000), wk =   0.0480000
        k(   14) = (   0.3000000  -0.1000000   0.3000000), wk =   0.0480000
        k(   15) = (   0.2000000   0.0000000   0.2000000), wk =   0.0240000
        k(   16) = (   0.0000000   0.4000000   0.0000000), wk =   0.0120000
        k(   17) = (  -0.1000000   0.5000000  -0.1000000), wk =   0.0480000
        k(   18) = (  -0.2000000   0.6000000  -0.2000000), wk =   0.0480000
        k(   19) = (   0.7000000  -0.3000000   0.7000000), wk =   0.0480000
        k(   20) = (   0.6000000  -0.2000000   0.6000000), wk =   0.0480000
        k(   21) = (   0.5000000  -0.1000000   0.5000000), wk =   0.0480000
        k(   22) = (   0.4000000   0.0000000   0.4000000), wk =   0.0240000
        k(   23) = (   0.0000000   0.6000000   0.0000000), wk =   0.0120000
        k(   24) = (  -0.1000000   0.7000000  -0.1000000), wk =   0.0480000
        k(   25) = (   0.8000000  -0.2000000   0.8000000), wk =   0.0480000
        k(   26) = (   0.7000000  -0.1000000   0.7000000), wk =   0.0480000
        k(   27) = (   0.6000000  -0.0000000   0.6000000), wk =   0.0240000
        k(   28) = (   0.0000000   0.8000000   0.0000000), wk =   0.0120000
        k(   29) = (   0.9000000  -0.1000000   0.9000000), wk =   0.0480000
        k(   30) = (   0.8000000   0.0000000   0.8000000), wk =   0.0240000
        k(   31) = (   0.0000000  -1.0000000   0.0000000), wk =   0.0060000
        k(   32) = (  -0.2000000   0.4000000   0.0000000), wk =   0.0480000
        k(   33) = (  -0.3000000   0.5000000  -0.1000000), wk =   0.0960000
        k(   34) = (   0.6000000  -0.4000000   0.8000000), wk =   0.0960000
        k(   35) = (   0.5000000  -0.3000000   0.7000000), wk =   0.0480000
        k(   36) = (  -0.2000000   0.6000000   0.0000000), wk =   0.0480000
        k(   37) = (   0.7000000  -0.3000000   0.9000000), wk =   0.0960000
        k(   38) = (   0.6000000  -0.2000000   0.8000000), wk =   0.0960000
        k(   39) = (   0.5000000  -0.1000000   0.7000000), wk =   0.0960000
        k(   40) = (   0.4000000   0.0000000   0.6000000), wk =   0.0480000
        k(   41) = (   0.8000000  -0.2000000   1.0000000), wk =   0.0480000
        k(   42) = (   0.7000000  -0.1000000   0.9000000), wk =   0.0960000
        k(   43) = (   0.6000000   0.0000000   0.8000000), wk =   0.0480000
        k(   44) = (  -0.2000000  -1.0000000   0.0000000), wk =   0.0240000
        k(   45) = (   0.6000000  -0.2000000   1.0000000), wk =   0.0480000
        k(   46) = (   0.5000000  -0.1000000   0.9000000), wk =   0.0480000
        k(   47) = (  -0.4000000  -1.0000000   0.0000000), wk =   0.0240000

     Dense  grid:     2445 G-vectors     FFT dimensions: (  20,  20,  20)

     Estimated max dynamical RAM per process >       4.61 MB

     WARNING: libxc functional with ID  263 depends
      on external parameters: check the user_guide of
      QE if you need to modify them or to check their
      default values.

     Initial potential from superposition of free atoms

     starting charge       7.9999, renormalised to       8.0000
     Starting wfcs are    8 randomized atomic wfcs

     total cpu time spent up to now is        0.7 secs

     Self-consistent Calculation

     iteration #  1     ecut=    50.00 Ry     beta= 0.01
     Davidson diagonalization with overlap
     ethr =  1.00E-02,  avg # of iterations =  2.0

     total cpu time spent up to now is        1.8 secs

     total energy              =     -22.47456995 Ry
     estimated scf accuracy    <       3.59993137 Ry

     iteration #  2     ecut=    50.00 Ry     beta= 0.01
     Davidson diagonalization with overlap
     ethr =  1.00E-02,  avg # of iterations =  1.0

     total cpu time spent up to now is        2.5 secs

     total energy              =     -22.52499305 Ry
     estimated scf accuracy    <       3.58966244 Ry

     iteration #  3     ecut=    50.00 Ry     beta= 0.01
     Davidson diagonalization with overlap
     ethr =  1.00E-02,  avg # of iterations =  1.0

     total cpu time spent up to now is        3.3 secs

     total energy              =     -22.53141444 Ry
     estimated scf accuracy    <       0.06305153 Ry

     iteration #  4     ecut=    50.00 Ry     beta= 0.01
     Davidson diagonalization with overlap
     ethr =  7.88E-04,  avg # of iterations =  1.0

     total cpu time spent up to now is        4.1 secs

     total energy              =     -22.53210906 Ry
     estimated scf accuracy    <       0.03755676 Ry

     iteration #  5     ecut=    50.00 Ry     beta= 0.01
     Davidson diagonalization with overlap
     ethr =  4.69E-04,  avg # of iterations =  1.0

     total cpu time spent up to now is        4.8 secs

     total energy              =     -22.52916917 Ry
     estimated scf accuracy    <       0.04721114 Ry

     iteration #  6     ecut=    50.00 Ry     beta= 0.01
     Davidson diagonalization with overlap
     ethr =  4.69E-04,  avg # of iterations =  1.0

     total cpu time spent up to now is        5.6 secs

     total energy              =     -22.53077295 Ry
     estimated scf accuracy    <       0.01349010 Ry

     iteration #  7     ecut=    50.00 Ry     beta= 0.01
     Davidson diagonalization with overlap
     ethr =  1.69E-04,  avg # of iterations =  1.0

     total cpu time spent up to now is        6.4 secs

     total energy              =     -22.53107317 Ry
     estimated scf accuracy    <       0.00124667 Ry

     iteration #  8     ecut=    50.00 Ry     beta= 0.01
     Davidson diagonalization with overlap
     ethr =  1.56E-05,  avg # of iterations =  1.0

     total cpu time spent up to now is        7.1 secs

     total energy              =     -22.53109681 Ry
     estimated scf accuracy    <       0.00154376 Ry

     iteration #  9     ecut=    50.00 Ry     beta= 0.01
     Davidson diagonalization with overlap
     ethr =  1.56E-05,  avg # of iterations =  1.0

     total cpu time spent up to now is        7.9 secs

     total energy              =     -22.53108717 Ry
     estimated scf accuracy    <       0.00086243 Ry

     iteration # 10     ecut=    50.00 Ry     beta= 0.01
     Davidson diagonalization with overlap
     ethr =  1.08E-05,  avg # of iterations =  1.0

     total cpu time spent up to now is        8.7 secs

     total energy              =     -22.53114577 Ry
     estimated scf accuracy    <       0.00001412 Ry

     iteration # 11     ecut=    50.00 Ry     beta= 0.01
     Davidson diagonalization with overlap
     ethr =  1.76E-07,  avg # of iterations =  2.0

     total cpu time spent up to now is        9.6 secs

     total energy              =     -22.53114501 Ry
     estimated scf accuracy    <       0.00002180 Ry

     iteration # 12     ecut=    50.00 Ry     beta= 0.01
     Davidson diagonalization with overlap
     ethr =  1.76E-07,  avg # of iterations =  1.0

     total cpu time spent up to now is       10.4 secs

     total energy              =     -22.53114644 Ry
     estimated scf accuracy    <       0.00002054 Ry

     iteration # 13     ecut=    50.00 Ry     beta= 0.01
     Davidson diagonalization with overlap
     ethr =  1.76E-07,  avg # of iterations =  1.0

     total cpu time spent up to now is       11.2 secs

     End of self-consistent calculation

          k = 0.0000 0.0000 0.0000 (   331 PWs)   bands (ev):

    -7.0852  21.3148  21.3148  21.3148

          k =-0.1000 0.1000-0.1000 (   316 PWs)   bands (ev):

    -6.7158  18.9853  20.6588  20.6588

          k =-0.2000 0.2000-0.2000 (   311 PWs)   bands (ev):

    -5.6117  14.6410  19.3721  19.3721

          k =-0.3000 0.3000-0.3000 (   305 PWs)   bands (ev):

    -3.7833  10.0830  18.2428  18.2428

          k =-0.4000 0.4000-0.4000 (   311 PWs)   bands (ev):

    -1.2634   5.7990  17.5166  17.5166

          k = 0.5000-0.5000 0.5000 (   302 PWs)   bands (ev):

     1.5286   2.4120  17.2716  17.2716

          k = 0.0000 0.2000 0.0000 (   315 PWs)   bands (ev):

    -6.5928  19.4374  19.4374  20.4167

          k =-0.1000 0.3000-0.1000 (   310 PWs)   bands (ev):

    -5.7336  16.1250  18.0122  19.6693

          k =-0.2000 0.4000-0.2000 (   310 PWs)   bands (ev):

    -4.1481  11.7558  16.9459  18.4009

          k =-0.3000 0.5000-0.3000 (   307 PWs)   bands (ev):

    -1.8582   7.4335  16.4389  17.1260

          k = 0.6000-0.4000 0.6000 (   311 PWs)   bands (ev):

     1.0494   3.5572  16.1777  16.5070

          k = 0.5000-0.3000 0.5000 (   310 PWs)   bands (ev):

     0.0271   4.7770  15.7092  17.1409

          k = 0.4000-0.2000 0.4000 (   311 PWs)   bands (ev):

    -2.6989   8.8566  15.7995  18.2320

          k = 0.3000-0.1000 0.3000 (   311 PWs)   bands (ev):

    -4.7566  13.2668  16.4781  19.5698

          k = 0.2000 0.0000 0.2000 (   315 PWs)   bands (ev):

    -6.1016  17.3811  17.8414  20.6784

          k = 0.0000 0.4000 0.0000 (   303 PWs)   bands (ev):

    -5.1198  16.4802  16.4802  17.8422

          k =-0.1000 0.5000-0.1000 (   309 PWs)   bands (ev):

    -3.7813  13.4406  15.3411  16.6040

          k =-0.2000 0.6000-0.2000 (   316 PWs)   bands (ev):

    -1.7380   9.4702  14.8025  15.0329

          k = 0.7000-0.3000 0.7000 (   312 PWs)   bands (ev):

     0.9551   5.6101  13.5778  14.9230

          k = 0.6000-0.2000 0.6000 (   307 PWs)   bands (ev):

     1.9271   4.4885  12.5876  15.6777

          k = 0.5000-0.1000 0.5000 (   308 PWs)   bands (ev):

    -0.9163   8.2550  12.1968  16.9507

          k = 0.4000 0.0000 0.4000 (   311 PWs)   bands (ev):

    -3.1807  12.1270  12.7142  18.4606

          k = 0.0000 0.6000 0.0000 (   311 PWs)   bands (ev):

    -2.6918  13.9692  14.0745  14.0745

          k =-0.1000 0.7000-0.1000 (   313 PWs)   bands (ev):

    -0.8993  11.1018  12.7044  13.4012

          k = 0.8000-0.2000 0.8000 (   307 PWs)   bands (ev):

     1.5478   7.9297  10.6981  13.4125

          k = 0.7000-0.1000 0.7000 (   305 PWs)   bands (ev):

     3.9755   5.2755   9.1942  14.0980

          k = 0.6000-0.0000 0.6000 (   303 PWs)   bands (ev):

     1.5012   8.0913   8.6486  15.3679

          k = 0.0000 0.8000 0.0000 (   322 PWs)   bands (ev):

     0.6367   9.3577  12.5546  12.5546

          k = 0.9000-0.1000 0.9000 (   310 PWs)   bands (ev):

     2.8282   7.1650  10.9603  12.3994

          k = 0.8000 0.0000 0.8000 (   310 PWs)   bands (ev):

     5.3150   5.5938   8.2808  12.9295

          k = 0.0000-1.0000 0.0000 (   302 PWs)   bands (ev):

     4.7524   4.7524  12.0522  12.0522

          k =-0.2000 0.4000 0.0000 (   310 PWs)   bands (ev):

    -4.6336  14.6270  15.1471  18.7760

          k =-0.3000 0.5000-0.1000 (   312 PWs)   bands (ev):

    -2.8185  10.7049  14.1627  17.3871

          k = 0.6000-0.4000 0.8000 (   313 PWs)   bands (ev):

    -0.3240   6.6246  13.9645  16.0090

          k = 0.5000-0.3000 0.7000 (   308 PWs)   bands (ev):

     2.3544   3.3933  14.0837  15.3389

          k =-0.2000 0.6000 0.0000 (   313 PWs)   bands (ev):

    -2.2146  12.1991  12.8794  15.1696

          k = 0.7000-0.3000 0.9000 (   311 PWs)   bands (ev):

     0.0333   8.8262  12.1072  13.6986

          k = 0.6000-0.2000 0.8000 (   310 PWs)   bands (ev):

     2.8223   5.3290  11.3413  13.3982

          k = 0.5000-0.1000 0.7000 (   309 PWs)   bands (ev):

     1.8424   6.5114  10.5714  14.3260

          k = 0.4000 0.0000 0.6000 (   310 PWs)   bands (ev):

    -0.7970  10.0143  10.6179  15.8330

          k = 0.8000-0.2000 1.0000 (   315 PWs)   bands (ev):

     1.0940   9.3759  11.4518  11.9236

          k = 0.7000-0.1000 0.9000 (   306 PWs)   bands (ev):

     3.6653   7.2834   9.0603  11.8694

          k = 0.6000 0.0000 0.8000 (   308 PWs)   bands (ev):

     4.3973   6.7831   7.5997  12.8034

          k =-0.2000-1.0000 0.0000 (   312 PWs)   bands (ev):

     5.1381   5.1381  11.0330  11.0330

          k = 0.6000-0.2000 1.0000 (   305 PWs)   bands (ev):

     2.4264   8.4276   9.3244  11.8584

          k = 0.5000-0.1000 0.9000 (   310 PWs)   bands (ev):

     4.7741   6.1159   9.2164  10.9104

          k =-0.4000-1.0000 0.0000 (   312 PWs)   bands (ev):

     6.0963   6.0963   9.2297   9.2297

     highest occupied level (ev):    21.3148

!    total energy              =     -22.53114690 Ry
     estimated scf accuracy    <       0.00000027 Ry

     The total energy is the sum of the following terms:
     one-electron contribution =      12.77522622 Ry
     hartree contribution      =       1.60647050 Ry
     xc contribution           =      -7.79979120 Ry
     ewald contribution        =     -29.11305242 Ry

     convergence has been achieved in  13 iterations
     Writing meta-gga kinetic term

     Writing all to output data dir ./input_pw/C/1/pwscf.save/
     Writing meta-gga kinetic term
 
     init_run     :      0.33s CPU      0.67s WALL (       1 calls)
     electrons    :      5.04s CPU     10.49s WALL (       1 calls)

     Called by init_run:
     wfcinit      :      0.30s CPU      0.60s WALL (       1 calls)
     potinit      :      0.00s CPU      0.01s WALL (       1 calls)
     hinit0       :      0.03s CPU      0.06s WALL (       1 calls)

     Called by electrons:
     c_bands      :      3.95s CPU      8.29s WALL (      13 calls)
     sum_band     :      0.99s CPU      2.00s WALL (      13 calls)
     v_of_rho     :      0.07s CPU      0.10s WALL (      14 calls)
     mix_rho      :      0.03s CPU      0.11s WALL (      13 calls)

     Called by c_bands:
     init_us_2    :      0.02s CPU      0.02s WALL (    1269 calls)
     init_us_2:cp :      0.02s CPU      0.02s WALL (    1269 calls)
     cegterg      :      3.93s CPU      8.24s WALL (     611 calls)

     Called by *egterg:
     cdiaghg      :      0.05s CPU      0.10s WALL (    1315 calls)
     h_psi        :      4.09s CPU      8.59s WALL (    1362 calls)
     g_psi        :      0.00s CPU      0.00s WALL (     704 calls)

     Called by h_psi:
     h_psi:calbec :      0.01s CPU      0.01s WALL (    1362 calls)
     vloc_psi     :      1.01s CPU      2.33s WALL (    1362 calls)
     add_vuspsi   :      0.01s CPU      0.02s WALL (    1362 calls)
     h_psi_meta   :      3.04s CPU      6.20s WALL (    1362 calls)

     General routines
     calbec       :      0.01s CPU      0.01s WALL (    1362 calls)
     fft          :      0.01s CPU      0.06s WALL (     165 calls)
     ffts         :      0.02s CPU      0.07s WALL (     204 calls)
     fftw         :      4.49s CPU      9.44s WALL (   54152 calls)
     interpolate  :      0.00s CPU      0.00s WALL (      14 calls)
 
     Parallel routines
 
     PWSCF        :      5.41s CPU     11.22s WALL

 
   This run was terminated on:  11:48:27  14Mar2023            

=------------------------------------------------------------------------------=
   JOB DONE.
=------------------------------------------------------------------------------=
