
     Program PWSCF v.7.0 starts on 10Apr2023 at  9:43:45 

     This program is part of the open-source Quantum ESPRESSO suite
     for quantum simulation of materials; please cite
         "P. Giannozzi et al., J. Phys.:Condens. Matter 21 395502 (2009);
         "P. Giannozzi et al., J. Phys.:Condens. Matter 29 465901 (2017);
         "P. Giannozzi et al., J. Chem. Phys. 152 154105 (2020);
          URL http://www.quantum-espresso.org", 
     in publications or presentations arising from this work. More details at
     http://www.quantum-espresso.org/quote

     Parallel version (MPI), running on     1 processors

     MPI processes distributed on     1 nodes
     18888 MiB available memory on the printing compute node when the environment starts
 
     Waiting for input...
     Reading input from standard input
Warning: card &CELL ignored
Warning: card / ignored

     Current dimensions of program PWSCF are:
     Max number of different atomic species (ntypx) = 10
     Max number of k-points (npk) =  40000
     Max angular momentum in pseudopotentials (lmaxx) =  4

     WARNING: the MGGA functional with ID    5 has been 
     read together with other dft terms, but it should 
     stand alone in order to work properly. The other 
     terms will be ignored.

     WARNING: the MGGA functional with ID    5 has been 
     read together with other dft terms, but it should 
     stand alone in order to work properly. The other 
     terms will be ignored.

     Subspace diagonalization in iterative solution of the eigenvalue problem:
     a serial algorithm will be used

 
     G-vector sticks info
     --------------------
     sticks:   dense  smooth     PW     G-vecs:    dense   smooth      PW
     Sum         433     433    139                 5817     5817    1067
 
     Using Slab Decomposition
 


     bravais-lattice index     =            2
     lattice parameter (alat)  =       7.8613  a.u.
     unit-cell volume          =     121.4553 (a.u.)^3
     number of atoms/cell      =            2
     number of atomic types    =            2
     number of electrons       =         8.00
     number of Kohn-Sham states=            4
     kinetic-energy cutoff     =      50.0000  Ry
     charge density cutoff     =     200.0000  Ry
     scf convergence threshold =      1.0E-06
     mixing beta               =       0.0100
     number of iterations used =            8  local-TF  mixing
     Exchange-correlation= SLA  PW   SCAN SCAN
                           (   0   0   0   0   0 263 267)

     celldm(1)=   7.861261  celldm(2)=   0.000000  celldm(3)=   0.000000
     celldm(4)=   0.000000  celldm(5)=   0.000000  celldm(6)=   0.000000

     crystal axes: (cart. coord. in units of alat)
               a(1) = (  -0.500000   0.000000   0.500000 )  
               a(2) = (   0.000000   0.500000   0.500000 )  
               a(3) = (  -0.500000   0.500000   0.000000 )  

     reciprocal axes: (cart. coord. in units 2 pi/alat)
               b(1) = ( -1.000000 -1.000000  1.000000 )  
               b(2) = (  1.000000  1.000000  1.000000 )  
               b(3) = ( -1.000000  1.000000 -1.000000 )  


     PseudoPot. # 1 for Li read from file:
     ~/Documents/TA/PWDFT.jl/pseudopotentials/scan_upf/Li.SCAN.UPF2
     MD5 check sum: Not computed, couldn't open file
     Pseudo is Norm-conserving, Zval =  1.0
     Generated by new atomic code, or converted to UPF format
     Using radial grid of 1321 points,  1 beta functions with: 
                l(1) =   0

     PseudoPot. # 2 for F  read from file:
     ~/Documents/TA/PWDFT.jl/pseudopotentials/scan_upf/F.SCAN.UPF2
     MD5 check sum: Not computed, couldn't open file
     Pseudo is Norm-conserving, Zval =  7.0
     Generated by new atomic code, or converted to UPF format
     Using radial grid of 1431 points,  1 beta functions with: 
                l(1) =   0

     atomic species   valence    mass     pseudopotential
        Li             1.00     6.94100     Li( 1.00)
        F              7.00    18.99800     F ( 1.00)

     48 Sym. Ops., with inversion, found



   Cartesian axes

     site n.     atom                  positions (alat units)
         1           Li  tau(   1) = (   0.0000000   0.0000000   0.0000000  )
         2           F   tau(   2) = (   0.5000000   0.5000000   0.5000000  )

     number of k points=    47
                       cart. coord. in units 2pi/alat
        k(    1) = (   0.0000000   0.0000000   0.0000000), wk =   0.0020000
        k(    2) = (  -0.1000000   0.1000000  -0.1000000), wk =   0.0160000
        k(    3) = (  -0.2000000   0.2000000  -0.2000000), wk =   0.0160000
        k(    4) = (  -0.3000000   0.3000000  -0.3000000), wk =   0.0160000
        k(    5) = (  -0.4000000   0.4000000  -0.4000000), wk =   0.0160000
        k(    6) = (   0.5000000  -0.5000000   0.5000000), wk =   0.0080000
        k(    7) = (   0.0000000   0.2000000   0.0000000), wk =   0.0120000
        k(    8) = (  -0.1000000   0.3000000  -0.1000000), wk =   0.0480000
        k(    9) = (  -0.2000000   0.4000000  -0.2000000), wk =   0.0480000
        k(   10) = (  -0.3000000   0.5000000  -0.3000000), wk =   0.0480000
        k(   11) = (   0.6000000  -0.4000000   0.6000000), wk =   0.0480000
        k(   12) = (   0.5000000  -0.3000000   0.5000000), wk =   0.0480000
        k(   13) = (   0.4000000  -0.2000000   0.4000000), wk =   0.0480000
        k(   14) = (   0.3000000  -0.1000000   0.3000000), wk =   0.0480000
        k(   15) = (   0.2000000   0.0000000   0.2000000), wk =   0.0240000
        k(   16) = (   0.0000000   0.4000000   0.0000000), wk =   0.0120000
        k(   17) = (  -0.1000000   0.5000000  -0.1000000), wk =   0.0480000
        k(   18) = (  -0.2000000   0.6000000  -0.2000000), wk =   0.0480000
        k(   19) = (   0.7000000  -0.3000000   0.7000000), wk =   0.0480000
        k(   20) = (   0.6000000  -0.2000000   0.6000000), wk =   0.0480000
        k(   21) = (   0.5000000  -0.1000000   0.5000000), wk =   0.0480000
        k(   22) = (   0.4000000   0.0000000   0.4000000), wk =   0.0240000
        k(   23) = (   0.0000000   0.6000000   0.0000000), wk =   0.0120000
        k(   24) = (  -0.1000000   0.7000000  -0.1000000), wk =   0.0480000
        k(   25) = (   0.8000000  -0.2000000   0.8000000), wk =   0.0480000
        k(   26) = (   0.7000000  -0.1000000   0.7000000), wk =   0.0480000
        k(   27) = (   0.6000000  -0.0000000   0.6000000), wk =   0.0240000
        k(   28) = (   0.0000000   0.8000000   0.0000000), wk =   0.0120000
        k(   29) = (   0.9000000  -0.1000000   0.9000000), wk =   0.0480000
        k(   30) = (   0.8000000   0.0000000   0.8000000), wk =   0.0240000
        k(   31) = (   0.0000000  -1.0000000   0.0000000), wk =   0.0060000
        k(   32) = (  -0.2000000   0.4000000   0.0000000), wk =   0.0480000
        k(   33) = (  -0.3000000   0.5000000  -0.1000000), wk =   0.0960000
        k(   34) = (   0.6000000  -0.4000000   0.8000000), wk =   0.0960000
        k(   35) = (   0.5000000  -0.3000000   0.7000000), wk =   0.0480000
        k(   36) = (  -0.2000000   0.6000000   0.0000000), wk =   0.0480000
        k(   37) = (   0.7000000  -0.3000000   0.9000000), wk =   0.0960000
        k(   38) = (   0.6000000  -0.2000000   0.8000000), wk =   0.0960000
        k(   39) = (   0.5000000  -0.1000000   0.7000000), wk =   0.0960000
        k(   40) = (   0.4000000   0.0000000   0.6000000), wk =   0.0480000
        k(   41) = (   0.8000000  -0.2000000   1.0000000), wk =   0.0480000
        k(   42) = (   0.7000000  -0.1000000   0.9000000), wk =   0.0960000
        k(   43) = (   0.6000000   0.0000000   0.8000000), wk =   0.0480000
        k(   44) = (  -0.2000000  -1.0000000   0.0000000), wk =   0.0240000
        k(   45) = (   0.6000000  -0.2000000   1.0000000), wk =   0.0480000
        k(   46) = (   0.5000000  -0.1000000   0.9000000), wk =   0.0480000
        k(   47) = (  -0.4000000  -1.0000000   0.0000000), wk =   0.0240000

     Dense  grid:     5817 G-vectors     FFT dimensions: (  25,  25,  25)

     Estimated max dynamical RAM per process >      10.72 MB

     WARNING: libxc functional with ID  263 depends
      on external parameters: check the user_guide of
      QE if you need to modify them or to check their
      default values.

     Initial potential from superposition of free atoms

     starting charge       7.9953, renormalised to       8.0000
     Starting wfcs are    8 randomized atomic wfcs

     total cpu time spent up to now is        1.4 secs

     Self-consistent Calculation

     iteration #  1     ecut=    50.00 Ry     beta= 0.01
     Davidson diagonalization with overlap
     ethr =  1.00E-02,  avg # of iterations =  2.0

     total cpu time spent up to now is        3.3 secs

     total energy              =     -48.54656253 Ry
     estimated scf accuracy    <      17.63463890 Ry

     iteration #  2     ecut=    50.00 Ry     beta= 0.01
     Davidson diagonalization with overlap
     ethr =  1.00E-02,  avg # of iterations =  1.0

     total cpu time spent up to now is        4.5 secs

     total energy              =     -48.60273249 Ry
     estimated scf accuracy    <      17.23649960 Ry

     iteration #  3     ecut=    50.00 Ry     beta= 0.01
     Davidson diagonalization with overlap
     ethr =  1.00E-02,  avg # of iterations =  1.0

     total cpu time spent up to now is        6.0 secs

     total energy              =     -48.60379425 Ry
     estimated scf accuracy    <       0.60607137 Ry

     iteration #  4     ecut=    50.00 Ry     beta= 0.01
     Davidson diagonalization with overlap
     ethr =  7.58E-03,  avg # of iterations =  1.0

     total cpu time spent up to now is        7.6 secs

     total energy              =     -48.60418877 Ry
     estimated scf accuracy    <       0.00526799 Ry

     iteration #  5     ecut=    50.00 Ry     beta= 0.01
     Davidson diagonalization with overlap
     ethr =  6.58E-05,  avg # of iterations =  1.0

     total cpu time spent up to now is        9.3 secs

     total energy              =     -48.60431880 Ry
     estimated scf accuracy    <       0.00536301 Ry

     iteration #  6     ecut=    50.00 Ry     beta= 0.01
     Davidson diagonalization with overlap
     ethr =  6.58E-05,  avg # of iterations =  1.0

     total cpu time spent up to now is       10.7 secs

     total energy              =     -48.60500946 Ry
     estimated scf accuracy    <       0.00617399 Ry

     iteration #  7     ecut=    50.00 Ry     beta= 0.01
     Davidson diagonalization with overlap
     ethr =  6.58E-05,  avg # of iterations =  2.0

     total cpu time spent up to now is       12.7 secs

     total energy              =     -48.60558838 Ry
     estimated scf accuracy    <       0.01801305 Ry

     iteration #  8     ecut=    50.00 Ry     beta= 0.01
     Davidson diagonalization with overlap
     ethr =  6.58E-05,  avg # of iterations =  1.0

     total cpu time spent up to now is       14.0 secs

     total energy              =     -48.60522597 Ry
     estimated scf accuracy    <       0.01743231 Ry

     iteration #  9     ecut=    50.00 Ry     beta= 0.01
     Davidson diagonalization with overlap
     ethr =  6.58E-05,  avg # of iterations =  1.0

     total cpu time spent up to now is       15.5 secs

     total energy              =     -48.60527903 Ry
     estimated scf accuracy    <       0.00371581 Ry

     iteration # 10     ecut=    50.00 Ry     beta= 0.01
     Davidson diagonalization with overlap
     ethr =  4.64E-05,  avg # of iterations =  1.0

     total cpu time spent up to now is       17.0 secs

     total energy              =     -48.60533217 Ry
     estimated scf accuracy    <       0.00289714 Ry

     iteration # 11     ecut=    50.00 Ry     beta= 0.01
     Davidson diagonalization with overlap
     ethr =  3.62E-05,  avg # of iterations =  1.0

     total cpu time spent up to now is       18.4 secs

     total energy              =     -48.60522244 Ry
     estimated scf accuracy    <       0.00481712 Ry

     iteration # 12     ecut=    50.00 Ry     beta= 0.01
     Davidson diagonalization with overlap
     ethr =  3.62E-05,  avg # of iterations =  1.0

     total cpu time spent up to now is       19.8 secs

     total energy              =     -48.60525602 Ry
     estimated scf accuracy    <       0.00060493 Ry

     iteration # 13     ecut=    50.00 Ry     beta= 0.01
     Davidson diagonalization with overlap
     ethr =  7.56E-06,  avg # of iterations =  1.0

     total cpu time spent up to now is       21.3 secs

     total energy              =     -48.60521360 Ry
     estimated scf accuracy    <       0.00106126 Ry

     iteration # 14     ecut=    50.00 Ry     beta= 0.01
     Davidson diagonalization with overlap
     ethr =  7.56E-06,  avg # of iterations =  1.0

     total cpu time spent up to now is       22.7 secs

     total energy              =     -48.60523437 Ry
     estimated scf accuracy    <       0.00000979 Ry

     iteration # 15     ecut=    50.00 Ry     beta= 0.01
     Davidson diagonalization with overlap
     ethr =  1.22E-07,  avg # of iterations =  1.9

     total cpu time spent up to now is       24.2 secs

     total energy              =     -48.60523513 Ry
     estimated scf accuracy    <       0.00001640 Ry

     iteration # 16     ecut=    50.00 Ry     beta= 0.01
     Davidson diagonalization with overlap
     ethr =  1.22E-07,  avg # of iterations =  1.0

     total cpu time spent up to now is       25.5 secs

     total energy              =     -48.60523323 Ry
     estimated scf accuracy    <       0.00001837 Ry

     iteration # 17     ecut=    50.00 Ry     beta= 0.01
     Davidson diagonalization with overlap
     ethr =  1.22E-07,  avg # of iterations =  1.0

     total cpu time spent up to now is       26.4 secs

     total energy              =     -48.60523379 Ry
     estimated scf accuracy    <       0.00000179 Ry

     iteration # 18     ecut=    50.00 Ry     beta= 0.01
     Davidson diagonalization with overlap
     ethr =  2.24E-08,  avg # of iterations =  1.0

     total cpu time spent up to now is       27.6 secs

     total energy              =     -48.60523381 Ry
     estimated scf accuracy    <       0.00000334 Ry

     iteration # 19     ecut=    50.00 Ry     beta= 0.01
     Davidson diagonalization with overlap
     ethr =  2.24E-08,  avg # of iterations =  1.0

     total cpu time spent up to now is       28.6 secs

     total energy              =     -48.60523382 Ry
     estimated scf accuracy    <       0.00000834 Ry

     iteration # 20     ecut=    50.00 Ry     beta= 0.01
     Davidson diagonalization with overlap
     ethr =  2.24E-08,  avg # of iterations =  1.0

     total cpu time spent up to now is       29.3 secs

     total energy              =     -48.60523400 Ry
     estimated scf accuracy    <       0.00000924 Ry

     iteration # 21     ecut=    50.00 Ry     beta= 0.01
     Davidson diagonalization with overlap
     ethr =  2.24E-08,  avg # of iterations =  1.0

     total cpu time spent up to now is       30.0 secs

     End of self-consistent calculation

          k = 0.0000 0.0000 0.0000 (   725 PWs)   bands (ev):

   -22.5005  -0.7005  -0.7005  -0.7005

          k =-0.1000 0.1000-0.1000 (   728 PWs)   bands (ev):

   -22.4639  -0.9763  -0.7302  -0.7302

          k =-0.2000 0.2000-0.2000 (   718 PWs)   bands (ev):

   -22.3656  -1.5687  -0.7455  -0.7455

          k =-0.3000 0.3000-0.3000 (   736 PWs)   bands (ev):

   -22.2430  -2.3383  -0.8851  -0.8851

          k =-0.4000 0.4000-0.4000 (   739 PWs)   bands (ev):

   -22.1404  -2.8731  -0.9525  -0.9525

          k = 0.5000-0.5000 0.5000 (   718 PWs)   bands (ev):

   -22.0990  -3.0032  -0.8808  -0.8808

          k = 0.0000 0.2000 0.0000 (   721 PWs)   bands (ev):

   -22.4508  -0.9310  -0.7638  -0.7638

          k =-0.1000 0.3000-0.1000 (   725 PWs)   bands (ev):

   -22.3728  -1.4465  -0.8431  -0.8399

          k =-0.2000 0.4000-0.2000 (   723 PWs)   bands (ev):

   -22.2562  -2.1316  -0.9326  -0.8798

          k =-0.3000 0.5000-0.3000 (   730 PWs)   bands (ev):

   -22.1453  -2.7087  -1.0228  -1.0198

          k = 0.6000-0.4000 0.6000 (   726 PWs)   bands (ev):

   -22.0831  -2.9720  -1.1445  -0.9664

          k = 0.5000-0.3000 0.5000 (   732 PWs)   bands (ev):

   -22.0972  -2.9100  -1.2008  -0.9580

          k = 0.4000-0.2000 0.4000 (   739 PWs)   bands (ev):

   -22.1812  -2.5571  -1.1627  -0.9031

          k = 0.3000-0.1000 0.3000 (   730 PWs)   bands (ev):

   -22.2992  -1.9071  -1.0318  -0.7798

          k = 0.2000 0.0000 0.2000 (   715 PWs)   bands (ev):

   -22.4055  -1.1946  -0.8430  -0.6987

          k = 0.0000 0.4000 0.0000 (   721 PWs)   bands (ev):

   -22.3165  -1.6109  -0.9841  -0.9841

          k =-0.1000 0.5000-0.1000 (   722 PWs)   bands (ev):

   -22.2171  -2.1203  -1.1401  -1.0948

          k =-0.2000 0.6000-0.2000 (   725 PWs)   bands (ev):

   -22.1109  -2.6071  -1.3513  -1.1682

          k = 0.7000-0.3000 0.7000 (   720 PWs)   bands (ev):

   -22.0390  -2.8665  -1.5552  -1.1134

          k = 0.6000-0.2000 0.6000 (   721 PWs)   bands (ev):

   -22.0319  -2.8163  -1.7133  -1.0512

          k = 0.5000-0.1000 0.5000 (   730 PWs)   bands (ev):

   -22.0926  -2.5699  -1.7417  -0.9427

          k = 0.4000 0.0000 0.4000 (   728 PWs)   bands (ev):

   -22.1949  -2.2252  -1.4414  -0.8281

          k = 0.0000 0.6000 0.0000 (   721 PWs)   bands (ev):

   -22.1383  -2.4476  -1.2719  -1.2719

          k =-0.1000 0.7000-0.1000 (   724 PWs)   bands (ev):

   -22.0494  -2.7984  -1.4941  -1.3803

          k = 0.8000-0.2000 0.8000 (   722 PWs)   bands (ev):

   -21.9843  -2.9483  -1.7894  -1.3639

          k = 0.7000-0.1000 0.7000 (   721 PWs)   bands (ev):

   -21.9696  -2.8004  -2.1308  -1.2469

          k = 0.6000-0.0000 0.6000 (   722 PWs)   bands (ev):

   -22.0114  -2.4188  -2.3340  -1.0899

          k = 0.0000 0.8000 0.0000 (   729 PWs)   bands (ev):

   -21.9839  -3.1488  -1.5320  -1.5320

          k = 0.9000-0.1000 0.9000 (   726 PWs)   bands (ev):

   -21.9392  -3.2641  -1.6846  -1.5549

          k = 0.8000 0.0000 0.8000 (   728 PWs)   bands (ev):

   -21.9342  -3.1094  -2.0058  -1.4479

          k = 0.0000-1.0000 0.0000 (   740 PWs)   bands (ev):

   -21.9227  -3.4182  -1.6816  -1.6816

          k =-0.2000 0.4000 0.0000 (   723 PWs)   bands (ev):

   -22.2839  -1.8585  -1.1169  -0.8262

          k =-0.3000 0.5000-0.1000 (   722 PWs)   bands (ev):

   -22.1715  -2.3670  -1.3464  -0.8884

          k = 0.6000-0.4000 0.8000 (   729 PWs)   bands (ev):

   -22.0788  -2.7606  -1.5042  -1.0529

          k = 0.5000-0.3000 0.7000 (   726 PWs)   bands (ev):

   -22.0424  -2.8990  -1.5290  -1.0907

          k =-0.2000 0.6000 0.0000 (   722 PWs)   bands (ev):

   -22.1219  -2.4837  -1.4308  -1.1615

          k = 0.7000-0.3000 0.9000 (   725 PWs)   bands (ev):

   -22.0347  -2.7481  -1.7407  -1.2524

          k = 0.6000-0.2000 0.8000 (   725 PWs)   bands (ev):

   -21.9896  -2.8000  -1.9974  -1.2569

          k = 0.5000-0.1000 0.7000 (   718 PWs)   bands (ev):

   -22.0050  -2.6364  -2.0792  -1.1303

          k = 0.4000 0.0000 0.6000 (   726 PWs)   bands (ev):

   -22.0758  -2.5053  -1.8597  -1.0310

          k = 0.8000-0.2000 1.0000 (   727 PWs)   bands (ev):

   -21.9814  -3.0408  -1.7243  -1.4390

          k = 0.7000-0.1000 0.9000 (   728 PWs)   bands (ev):

   -21.9448  -3.0012  -2.0406  -1.4510

          k = 0.6000 0.0000 0.8000 (   719 PWs)   bands (ev):

   -21.9535  -2.6870  -2.3238  -1.3003

          k =-0.2000-1.0000 0.0000 (   724 PWs)   bands (ev):

   -21.9249  -3.2360  -1.8103  -1.5497

          k = 0.6000-0.2000 1.0000 (   730 PWs)   bands (ev):

   -21.9724  -2.7479  -2.1880  -1.3581

          k = 0.5000-0.1000 0.9000 (   724 PWs)   bands (ev):

   -21.9478  -2.6214  -2.4194  -1.3862

          k =-0.4000-1.0000 0.0000 (   726 PWs)   bands (ev):

   -21.9306  -2.8341  -2.3119  -1.4497

     highest occupied level (ev):    -0.6987

!    total energy              =     -48.60523396 Ry
     estimated scf accuracy    <       0.00000098 Ry

     The total energy is the sum of the following terms:
     one-electron contribution =     -24.74069478 Ry
     hartree contribution      =      17.06858880 Ry
     xc contribution           =      -9.83132707 Ry
     ewald contribution        =     -31.10180090 Ry

     convergence has been achieved in  21 iterations
     Writing meta-gga kinetic term

     Writing all to output data dir ./input_pw/LiF/10/pwscf.save/
     Writing meta-gga kinetic term
 
     init_run     :      0.62s CPU      1.32s WALL (       1 calls)
     electrons    :     15.34s CPU     28.65s WALL (       1 calls)

     Called by init_run:
     wfcinit      :      0.55s CPU      1.21s WALL (       1 calls)
     potinit      :      0.01s CPU      0.03s WALL (       1 calls)
     hinit0       :      0.06s CPU      0.07s WALL (       1 calls)

     Called by electrons:
     c_bands      :     11.95s CPU     22.46s WALL (      21 calls)
     sum_band     :      3.00s CPU      5.48s WALL (      21 calls)
     v_of_rho     :      0.20s CPU      0.38s WALL (      22 calls)
     mix_rho      :      0.20s CPU      0.34s WALL (      21 calls)

     Called by c_bands:
     init_us_2    :      0.07s CPU      0.13s WALL (    2021 calls)
     init_us_2:cp :      0.07s CPU      0.13s WALL (    2021 calls)
     cegterg      :     11.87s CPU     22.29s WALL (     987 calls)

     Called by *egterg:
     cdiaghg      :      0.08s CPU      0.13s WALL (    2110 calls)
     h_psi        :     12.14s CPU     22.96s WALL (    2157 calls)
     g_psi        :      0.01s CPU      0.01s WALL (    1123 calls)

     Called by h_psi:
     h_psi:calbec :      0.02s CPU      0.07s WALL (    2157 calls)
     vloc_psi     :      2.99s CPU      5.84s WALL (    2157 calls)
     add_vuspsi   :      0.04s CPU      0.07s WALL (    2157 calls)
     h_psi_meta   :      9.06s CPU     16.93s WALL (    2157 calls)

     General routines
     calbec       :      0.02s CPU      0.03s WALL (    2157 calls)
     fft          :      0.04s CPU      0.09s WALL (     261 calls)
     ffts         :      0.10s CPU      0.17s WALL (     608 calls)
     fftw         :     13.45s CPU     25.44s WALL (   84336 calls)
     interpolate  :      0.00s CPU      0.00s WALL (      22 calls)
 
     Parallel routines
 
     PWSCF        :     16.01s CPU     30.05s WALL

 
   This run was terminated on:   9:44:15  10Apr2023            

=------------------------------------------------------------------------------=
   JOB DONE.
=------------------------------------------------------------------------------=
