
     Program PWSCF v.7.0 starts on  7Jul2023 at 14:23:45 

     This program is part of the open-source Quantum ESPRESSO suite
     for quantum simulation of materials; please cite
         "P. Giannozzi et al., J. Phys.:Condens. Matter 21 395502 (2009);
         "P. Giannozzi et al., J. Phys.:Condens. Matter 29 465901 (2017);
         "P. Giannozzi et al., J. Chem. Phys. 152 154105 (2020);
          URL http://www.quantum-espresso.org", 
     in publications or presentations arising from this work. More details at
     http://www.quantum-espresso.org/quote

     Parallel version (MPI), running on     1 processors

     MPI processes distributed on     1 nodes
     27405 MiB available memory on the printing compute node when the environment starts
 
     Waiting for input...
     Reading input from standard input
Warning: card &CELL ignored
Warning: card / ignored

     Current dimensions of program PWSCF are:
     Max number of different atomic species (ntypx) = 10
     Max number of k-points (npk) =  40000
     Max angular momentum in pseudopotentials (lmaxx) =  4

     WARNING: the MGGA functional with ID    5 has been 
     read together with other dft terms, but it should 
     stand alone in order to work properly. The other 
     terms will be ignored.

     WARNING: the MGGA functional with ID    5 has been 
     read together with other dft terms, but it should 
     stand alone in order to work properly. The other 
     terms will be ignored.

     Subspace diagonalization in iterative solution of the eigenvalue problem:
     a serial algorithm will be used

 
     G-vector sticks info
     --------------------
     sticks:   dense  smooth     PW     G-vecs:    dense   smooth      PW
     Sum         511     511    163                 7799     7799    1411
 
     Using Slab Decomposition
 


     bravais-lattice index     =            2
     lattice parameter (alat)  =       8.6675  a.u.
     unit-cell volume          =     162.7902 (a.u.)^3
     number of atoms/cell      =            2
     number of atomic types    =            2
     number of electrons       =         8.00
     number of Kohn-Sham states=            4
     kinetic-energy cutoff     =      50.0000  Ry
     charge density cutoff     =     200.0000  Ry
     scf convergence threshold =      2.0E-05
     mixing beta               =       0.2000
     number of iterations used =            8  local-TF  mixing
     Exchange-correlation= SLA  PW   SCAN SCAN
                           (   0   0   0   0   0 263 267)

     celldm(1)=   8.667544  celldm(2)=   0.000000  celldm(3)=   0.000000
     celldm(4)=   0.000000  celldm(5)=   0.000000  celldm(6)=   0.000000

     crystal axes: (cart. coord. in units of alat)
               a(1) = (  -0.500000   0.000000   0.500000 )  
               a(2) = (   0.000000   0.500000   0.500000 )  
               a(3) = (  -0.500000   0.500000   0.000000 )  

     reciprocal axes: (cart. coord. in units 2 pi/alat)
               b(1) = ( -1.000000 -1.000000  1.000000 )  
               b(2) = (  1.000000  1.000000  1.000000 )  
               b(3) = ( -1.000000  1.000000 -1.000000 )  


     PseudoPot. # 1 for Li read from file:
     ~/Documents/TA/PWDFT.jl/pseudopotentials/scan_upf/Li.SCAN.UPF2
     MD5 check sum: Not computed, couldn't open file
     Pseudo is Norm-conserving, Zval =  1.0
     Generated by new atomic code, or converted to UPF format
     Using radial grid of 1321 points,  1 beta functions with: 
                l(1) =   0

     PseudoPot. # 2 for F  read from file:
     ~/Documents/TA/PWDFT.jl/pseudopotentials/scan_upf/F.SCAN.UPF2
     MD5 check sum: Not computed, couldn't open file
     Pseudo is Norm-conserving, Zval =  7.0
     Generated by new atomic code, or converted to UPF format
     Using radial grid of 1431 points,  1 beta functions with: 
                l(1) =   0

     atomic species   valence    mass     pseudopotential
        Li             1.00     6.94100     Li( 1.00)
        F              7.00    18.99800     F ( 1.00)

     48 Sym. Ops., with inversion, found



   Cartesian axes

     site n.     atom                  positions (alat units)
         1           Li  tau(   1) = (   0.0000000   0.0000000   0.0000000  )
         2           F   tau(   2) = (   0.5000000   0.5000000   0.5000000  )

     number of k points=    47
                       cart. coord. in units 2pi/alat
        k(    1) = (   0.0000000   0.0000000   0.0000000), wk =   0.0020000
        k(    2) = (  -0.1000000   0.1000000  -0.1000000), wk =   0.0160000
        k(    3) = (  -0.2000000   0.2000000  -0.2000000), wk =   0.0160000
        k(    4) = (  -0.3000000   0.3000000  -0.3000000), wk =   0.0160000
        k(    5) = (  -0.4000000   0.4000000  -0.4000000), wk =   0.0160000
        k(    6) = (   0.5000000  -0.5000000   0.5000000), wk =   0.0080000
        k(    7) = (   0.0000000   0.2000000   0.0000000), wk =   0.0120000
        k(    8) = (  -0.1000000   0.3000000  -0.1000000), wk =   0.0480000
        k(    9) = (  -0.2000000   0.4000000  -0.2000000), wk =   0.0480000
        k(   10) = (  -0.3000000   0.5000000  -0.3000000), wk =   0.0480000
        k(   11) = (   0.6000000  -0.4000000   0.6000000), wk =   0.0480000
        k(   12) = (   0.5000000  -0.3000000   0.5000000), wk =   0.0480000
        k(   13) = (   0.4000000  -0.2000000   0.4000000), wk =   0.0480000
        k(   14) = (   0.3000000  -0.1000000   0.3000000), wk =   0.0480000
        k(   15) = (   0.2000000   0.0000000   0.2000000), wk =   0.0240000
        k(   16) = (   0.0000000   0.4000000   0.0000000), wk =   0.0120000
        k(   17) = (  -0.1000000   0.5000000  -0.1000000), wk =   0.0480000
        k(   18) = (  -0.2000000   0.6000000  -0.2000000), wk =   0.0480000
        k(   19) = (   0.7000000  -0.3000000   0.7000000), wk =   0.0480000
        k(   20) = (   0.6000000  -0.2000000   0.6000000), wk =   0.0480000
        k(   21) = (   0.5000000  -0.1000000   0.5000000), wk =   0.0480000
        k(   22) = (   0.4000000   0.0000000   0.4000000), wk =   0.0240000
        k(   23) = (   0.0000000   0.6000000   0.0000000), wk =   0.0120000
        k(   24) = (  -0.1000000   0.7000000  -0.1000000), wk =   0.0480000
        k(   25) = (   0.8000000  -0.2000000   0.8000000), wk =   0.0480000
        k(   26) = (   0.7000000  -0.1000000   0.7000000), wk =   0.0480000
        k(   27) = (   0.6000000  -0.0000000   0.6000000), wk =   0.0240000
        k(   28) = (   0.0000000   0.8000000   0.0000000), wk =   0.0120000
        k(   29) = (   0.9000000  -0.1000000   0.9000000), wk =   0.0480000
        k(   30) = (   0.8000000   0.0000000   0.8000000), wk =   0.0240000
        k(   31) = (   0.0000000  -1.0000000   0.0000000), wk =   0.0060000
        k(   32) = (  -0.2000000   0.4000000   0.0000000), wk =   0.0480000
        k(   33) = (  -0.3000000   0.5000000  -0.1000000), wk =   0.0960000
        k(   34) = (   0.6000000  -0.4000000   0.8000000), wk =   0.0960000
        k(   35) = (   0.5000000  -0.3000000   0.7000000), wk =   0.0480000
        k(   36) = (  -0.2000000   0.6000000   0.0000000), wk =   0.0480000
        k(   37) = (   0.7000000  -0.3000000   0.9000000), wk =   0.0960000
        k(   38) = (   0.6000000  -0.2000000   0.8000000), wk =   0.0960000
        k(   39) = (   0.5000000  -0.1000000   0.7000000), wk =   0.0960000
        k(   40) = (   0.4000000   0.0000000   0.6000000), wk =   0.0480000
        k(   41) = (   0.8000000  -0.2000000   1.0000000), wk =   0.0480000
        k(   42) = (   0.7000000  -0.1000000   0.9000000), wk =   0.0960000
        k(   43) = (   0.6000000   0.0000000   0.8000000), wk =   0.0480000
        k(   44) = (  -0.2000000  -1.0000000   0.0000000), wk =   0.0240000
        k(   45) = (   0.6000000  -0.2000000   1.0000000), wk =   0.0480000
        k(   46) = (   0.5000000  -0.1000000   0.9000000), wk =   0.0480000
        k(   47) = (  -0.4000000  -1.0000000   0.0000000), wk =   0.0240000

     Dense  grid:     7799 G-vectors     FFT dimensions: (  27,  27,  27)

     Estimated max dynamical RAM per process >      14.23 MB

     WARNING: libxc functional with ID  263 depends
      on external parameters: check the user_guide of
      QE if you need to modify them or to check their
      default values.

     Initial potential from superposition of free atoms

     starting charge       7.9953, renormalised to       8.0000
     Starting wfcs are    8 randomized atomic wfcs

     total cpu time spent up to now is        2.0 secs

     Self-consistent Calculation

     iteration #  1     ecut=    50.00 Ry     beta= 0.20
     Davidson diagonalization with overlap
     ethr =  1.00E-02,  avg # of iterations =  2.0

     total cpu time spent up to now is        4.5 secs

     total energy              =     -48.58848325 Ry
     estimated scf accuracy    <      17.61775306 Ry

     iteration #  2     ecut=    50.00 Ry     beta= 0.20
     Davidson diagonalization with overlap
     ethr =  1.00E-02,  avg # of iterations =  1.0

     total cpu time spent up to now is        6.5 secs

     total energy              =     -48.59653259 Ry
     estimated scf accuracy    <      11.30819560 Ry

     iteration #  3     ecut=    50.00 Ry     beta= 0.20
     Davidson diagonalization with overlap
     ethr =  1.00E-02,  avg # of iterations =  1.0

     total cpu time spent up to now is        8.5 secs

     total energy              =     -48.60043251 Ry
     estimated scf accuracy    <       0.01255961 Ry

     iteration #  4     ecut=    50.00 Ry     beta= 0.20
     Davidson diagonalization with overlap
     ethr =  1.57E-04,  avg # of iterations =  1.0

     total cpu time spent up to now is       10.4 secs

     total energy              =     -48.60022478 Ry
     estimated scf accuracy    <       0.01623104 Ry

     iteration #  5     ecut=    50.00 Ry     beta= 0.20
     Davidson diagonalization with overlap
     ethr =  1.57E-04,  avg # of iterations =  1.0

     total cpu time spent up to now is       11.9 secs

     total energy              =     -48.60210119 Ry
     estimated scf accuracy    <       0.03141913 Ry

     iteration #  6     ecut=    50.00 Ry     beta= 0.20
     Davidson diagonalization with overlap
     ethr =  1.57E-04,  avg # of iterations =  1.0

     total cpu time spent up to now is       13.6 secs

     total energy              =     -48.60236541 Ry
     estimated scf accuracy    <       0.00283884 Ry

     iteration #  7     ecut=    50.00 Ry     beta= 0.20
     Davidson diagonalization with overlap
     ethr =  3.55E-05,  avg # of iterations =  1.0

     total cpu time spent up to now is       15.0 secs

     total energy              =     -48.60241375 Ry
     estimated scf accuracy    <       0.00079723 Ry

     iteration #  8     ecut=    50.00 Ry     beta= 0.20
     Davidson diagonalization with overlap
     ethr =  9.97E-06,  avg # of iterations =  1.0

     total cpu time spent up to now is       16.6 secs

     End of self-consistent calculation

          k = 0.0000 0.0000 0.0000 (   941 PWs)   bands (ev):

   -23.5499  -2.2126  -2.2126  -2.2126

          k =-0.1000 0.1000-0.1000 (   950 PWs)   bands (ev):

   -23.5327  -2.4348  -2.2464  -2.2464

          k =-0.2000 0.2000-0.2000 (   956 PWs)   bands (ev):

   -23.4865  -2.9267  -2.2739  -2.2739

          k =-0.3000 0.3000-0.3000 (   968 PWs)   bands (ev):

   -23.4290  -3.4308  -2.3478  -2.3478

          k =-0.4000 0.4000-0.4000 (   966 PWs)   bands (ev):

   -23.3812  -3.7510  -2.3792  -2.3792

          k = 0.5000-0.5000 0.5000 (   978 PWs)   bands (ev):

   -23.3636  -3.9346  -2.4117  -2.4117

          k = 0.0000 0.2000 0.0000 (   953 PWs)   bands (ev):

   -23.5268  -2.4247  -2.3024  -2.3024

          k =-0.1000 0.3000-0.1000 (   963 PWs)   bands (ev):

   -23.4903  -2.8292  -2.3860  -2.3124

          k =-0.2000 0.4000-0.2000 (   964 PWs)   bands (ev):

   -23.4357  -3.2651  -2.4406  -2.3738

          k =-0.3000 0.5000-0.3000 (   972 PWs)   bands (ev):

   -23.3845  -3.6706  -2.4689  -2.4586

          k = 0.6000-0.4000 0.6000 (   972 PWs)   bands (ev):

   -23.3562  -3.8430  -2.5383  -2.4539

          k = 0.5000-0.3000 0.5000 (   971 PWs)   bands (ev):

   -23.3624  -3.7946  -2.5788  -2.3997

          k = 0.4000-0.2000 0.4000 (   967 PWs)   bands (ev):

   -23.4004  -3.5546  -2.5474  -2.3093

          k = 0.3000-0.1000 0.3000 (   963 PWs)   bands (ev):

   -23.4553  -3.1043  -2.4895  -2.2779

          k = 0.2000 0.0000 0.2000 (   961 PWs)   bands (ev):

   -23.5059  -2.7175  -2.3711  -2.2403

          k = 0.0000 0.4000 0.0000 (   966 PWs)   bands (ev):

   -23.4644  -2.9159  -2.4761  -2.4761

          k =-0.1000 0.5000-0.1000 (   978 PWs)   bands (ev):

   -23.4191  -3.2849  -2.5833  -2.5732

          k =-0.2000 0.6000-0.2000 (   986 PWs)   bands (ev):

   -23.3710  -3.6310  -2.7026  -2.6257

          k = 0.7000-0.3000 0.7000 (   980 PWs)   bands (ev):

   -23.3382  -3.7568  -2.8543  -2.5883

          k = 0.6000-0.2000 0.6000 (   963 PWs)   bands (ev):

   -23.3338  -3.6898  -2.9102  -2.4839

          k = 0.5000-0.1000 0.5000 (   974 PWs)   bands (ev):

   -23.3613  -3.5616  -2.9404  -2.4121

          k = 0.4000 0.0000 0.4000 (   969 PWs)   bands (ev):

   -23.4075  -3.3350  -2.7716  -2.3108

          k = 0.0000 0.6000 0.0000 (   982 PWs)   bands (ev):

   -23.3841  -3.4911  -2.6827  -2.6827

          k =-0.1000 0.7000-0.1000 (   982 PWs)   bands (ev):

   -23.3445  -3.6991  -2.8045  -2.7492

          k = 0.8000-0.2000 0.8000 (   983 PWs)   bands (ev):

   -23.3155  -3.7826  -3.0182  -2.7324

          k = 0.7000-0.1000 0.7000 (   971 PWs)   bands (ev):

   -23.3078  -3.6338  -3.2250  -2.6351

          k = 0.6000-0.0000 0.6000 (   975 PWs)   bands (ev):

   -23.3258  -3.4638  -3.3302  -2.5272

          k = 0.0000 0.8000 0.0000 (   990 PWs)   bands (ev):

   -23.3166  -3.9085  -2.8526  -2.8526

          k = 0.9000-0.1000 0.9000 (   973 PWs)   bands (ev):

   -23.2963  -3.9373  -2.9132  -2.8191

          k = 0.8000 0.0000 0.8000 (   973 PWs)   bands (ev):

   -23.2933  -3.8147  -3.1249  -2.7499

          k = 0.0000-1.0000 0.0000 (   982 PWs)   bands (ev):

   -23.2896  -4.0227  -2.9006  -2.9006

          k =-0.2000 0.4000 0.0000 (   960 PWs)   bands (ev):

   -23.4485  -3.0709  -2.5550  -2.3216

          k =-0.3000 0.5000-0.1000 (   966 PWs)   bands (ev):

   -23.3970  -3.4253  -2.6897  -2.3881

          k = 0.6000-0.4000 0.8000 (   977 PWs)   bands (ev):

   -23.3552  -3.7124  -2.7932  -2.4739

          k = 0.5000-0.3000 0.7000 (   968 PWs)   bands (ev):

   -23.3384  -3.7707  -2.7922  -2.4924

          k =-0.2000 0.6000 0.0000 (   975 PWs)   bands (ev):

   -23.3758  -3.5115  -2.7610  -2.5792

          k = 0.7000-0.3000 0.9000 (   972 PWs)   bands (ev):

   -23.3364  -3.6457  -2.9396  -2.6230

          k = 0.6000-0.2000 0.8000 (   968 PWs)   bands (ev):

   -23.3160  -3.6526  -3.1039  -2.6114

          k = 0.5000-0.1000 0.7000 (   967 PWs)   bands (ev):

   -23.3227  -3.5801  -3.1581  -2.5438

          k = 0.4000 0.0000 0.6000 (   978 PWs)   bands (ev):

   -23.3544  -3.5351  -3.0270  -2.4867

          k = 0.8000-0.2000 1.0000 (   976 PWs)   bands (ev):

   -23.3142  -3.8085  -2.9235  -2.7750

          k = 0.7000-0.1000 0.9000 (   976 PWs)   bands (ev):

   -23.2978  -3.7636  -3.1301  -2.7750

          k = 0.6000 0.0000 0.8000 (   976 PWs)   bands (ev):

   -23.3013  -3.5724  -3.3544  -2.6910

          k =-0.2000-1.0000 0.0000 (   970 PWs)   bands (ev):

   -23.2898  -3.9005  -2.9752  -2.8366

          k = 0.6000-0.2000 1.0000 (   974 PWs)   bands (ev):

   -23.3091  -3.6285  -3.2068  -2.6854

          k = 0.5000-0.1000 0.9000 (   976 PWs)   bands (ev):

   -23.2987  -3.5280  -3.4036  -2.7164

          k =-0.4000-1.0000 0.0000 (   972 PWs)   bands (ev):

   -23.2913  -3.6472  -3.2812  -2.7766

     highest occupied level (ev):    -2.2126

!    total energy              =     -48.60242094 Ry
     estimated scf accuracy    <       0.00000528 Ry

     The total energy is the sum of the following terms:
     one-electron contribution =     -29.87371176 Ry
     hartree contribution      =      19.23163506 Ry
     xc contribution           =      -9.75173411 Ry
     ewald contribution        =     -28.20861012 Ry

     convergence has been achieved in   8 iterations
     Writing meta-gga kinetic term

     Writing all to output data dir ./input_pw/LiF/10/pwscf.save/
     Writing meta-gga kinetic term
 
     init_run     :      0.84s CPU      1.97s WALL (       1 calls)
     electrons    :      8.12s CPU     14.61s WALL (       1 calls)

     Called by init_run:
     wfcinit      :      0.74s CPU      1.80s WALL (       1 calls)
     potinit      :      0.02s CPU      0.03s WALL (       1 calls)
     hinit0       :      0.06s CPU      0.13s WALL (       1 calls)

     Called by electrons:
     c_bands      :      6.32s CPU     11.43s WALL (       8 calls)
     sum_band     :      1.61s CPU      2.79s WALL (       8 calls)
     v_of_rho     :      0.11s CPU      0.21s WALL (       9 calls)
     mix_rho      :      0.10s CPU      0.20s WALL (       8 calls)

     Called by c_bands:
     init_us_2    :      0.04s CPU      0.07s WALL (     799 calls)
     init_us_2:cp :      0.04s CPU      0.07s WALL (     799 calls)
     cegterg      :      6.29s CPU     11.37s WALL (     376 calls)

     Called by *egterg:
     cdiaghg      :      0.04s CPU      0.04s WALL (     799 calls)
     h_psi        :      6.87s CPU     12.87s WALL (     846 calls)
     g_psi        :      0.00s CPU      0.02s WALL (     423 calls)

     Called by h_psi:
     h_psi:calbec :      0.01s CPU      0.01s WALL (     846 calls)
     vloc_psi     :      1.70s CPU      3.26s WALL (     846 calls)
     add_vuspsi   :      0.02s CPU      0.03s WALL (     846 calls)
     h_psi_meta   :      5.13s CPU      9.55s WALL (     846 calls)

     General routines
     calbec       :      0.01s CPU      0.01s WALL (     846 calls)
     fft          :      0.02s CPU      0.07s WALL (     105 calls)
     ffts         :      0.05s CPU      0.10s WALL (     221 calls)
     fftw         :      7.58s CPU     13.98s WALL (   34112 calls)
     interpolate  :      0.00s CPU      0.00s WALL (       9 calls)
 
     Parallel routines
 
     PWSCF        :      9.00s CPU     16.65s WALL

 
   This run was terminated on:  14:24: 2   7Jul2023            

=------------------------------------------------------------------------------=
   JOB DONE.
=------------------------------------------------------------------------------=
