
     Program PWSCF v.7.0 starts on 14Mar2023 at 14:28:42 

     This program is part of the open-source Quantum ESPRESSO suite
     for quantum simulation of materials; please cite
         "P. Giannozzi et al., J. Phys.:Condens. Matter 21 395502 (2009);
         "P. Giannozzi et al., J. Phys.:Condens. Matter 29 465901 (2017);
         "P. Giannozzi et al., J. Chem. Phys. 152 154105 (2020);
          URL http://www.quantum-espresso.org", 
     in publications or presentations arising from this work. More details at
     http://www.quantum-espresso.org/quote

     Parallel version (MPI), running on     1 processors

     MPI processes distributed on     1 nodes
     27362 MiB available memory on the printing compute node when the environment starts
 
     Waiting for input...
     Reading input from standard input
Warning: card &CELL ignored
Warning: card / ignored

     Current dimensions of program PWSCF are:
     Max number of different atomic species (ntypx) = 10
     Max number of k-points (npk) =  40000
     Max angular momentum in pseudopotentials (lmaxx) =  4
     file Cl.SCAN.UPF2: wavefunction(s)  0D renormalized

     WARNING: the MGGA functional with ID    5 has been 
     read together with other dft terms, but it should 
     stand alone in order to work properly. The other 
     terms will be ignored.

     WARNING: the MGGA functional with ID    5 has been 
     read together with other dft terms, but it should 
     stand alone in order to work properly. The other 
     terms will be ignored.

     Subspace diagonalization in iterative solution of the eigenvalue problem:
     a serial algorithm will be used

 
     G-vector sticks info
     --------------------
     sticks:   dense  smooth     PW     G-vecs:    dense   smooth      PW
     Sum         421     421    139                 5769     5769    1067
 
     Using Slab Decomposition
 


     bravais-lattice index     =            2
     lattice parameter (alat)  =       7.8270  a.u.
     unit-cell volume          =     119.8743 (a.u.)^3
     number of atoms/cell      =            2
     number of atomic types    =            2
     number of electrons       =         8.00
     number of Kohn-Sham states=            4
     kinetic-energy cutoff     =      50.0000  Ry
     charge density cutoff     =     200.0000  Ry
     scf convergence threshold =      1.0E-06
     mixing beta               =       0.0100
     number of iterations used =            8  local-TF  mixing
     Exchange-correlation= SLA  PW   SCAN SCAN
                           (   0   0   0   0   0 263 267)

     celldm(1)=   7.827000  celldm(2)=   0.000000  celldm(3)=   0.000000
     celldm(4)=   0.000000  celldm(5)=   0.000000  celldm(6)=   0.000000

     crystal axes: (cart. coord. in units of alat)
               a(1) = (  -0.500000   0.000000   0.500000 )  
               a(2) = (   0.000000   0.500000   0.500000 )  
               a(3) = (  -0.500000   0.500000   0.000000 )  

     reciprocal axes: (cart. coord. in units 2 pi/alat)
               b(1) = ( -1.000000 -1.000000  1.000000 )  
               b(2) = (  1.000000  1.000000  1.000000 )  
               b(3) = ( -1.000000  1.000000 -1.000000 )  


     PseudoPot. # 1 for Li read from file:
     ~/Documents/TA/PWDFT.jl/pseudopotentials/scan_upf/Li.SCAN.UPF2
     MD5 check sum: Not computed, couldn't open file
     Pseudo is Norm-conserving, Zval =  1.0
     Generated by new atomic code, or converted to UPF format
     Using radial grid of 1321 points,  1 beta functions with: 
                l(1) =   0

     PseudoPot. # 2 for Cl read from file:
     ~/Documents/TA/PWDFT.jl/pseudopotentials/scan_upf/Cl.SCAN.UPF2
     MD5 check sum: Not computed, couldn't open file
     Pseudo is Norm-conserving, Zval =  7.0
     Generated by new atomic code, or converted to UPF format
     Using radial grid of 1493 points,  2 beta functions with: 
                l(1) =   0
                l(2) =   1

     atomic species   valence    mass     pseudopotential
        Li             1.00     6.94100     Li( 1.00)
        Cl             7.00    35.45300     Cl( 1.00)

     48 Sym. Ops., with inversion, found



   Cartesian axes

     site n.     atom                  positions (alat units)
         1           Li  tau(   1) = (   0.0000000   0.0000000   0.0000000  )
         2           Cl  tau(   2) = (   0.5000000   0.5000000   0.5000000  )

     number of k points=    47
                       cart. coord. in units 2pi/alat
        k(    1) = (   0.0000000   0.0000000   0.0000000), wk =   0.0020000
        k(    2) = (  -0.1000000   0.1000000  -0.1000000), wk =   0.0160000
        k(    3) = (  -0.2000000   0.2000000  -0.2000000), wk =   0.0160000
        k(    4) = (  -0.3000000   0.3000000  -0.3000000), wk =   0.0160000
        k(    5) = (  -0.4000000   0.4000000  -0.4000000), wk =   0.0160000
        k(    6) = (   0.5000000  -0.5000000   0.5000000), wk =   0.0080000
        k(    7) = (   0.0000000   0.2000000   0.0000000), wk =   0.0120000
        k(    8) = (  -0.1000000   0.3000000  -0.1000000), wk =   0.0480000
        k(    9) = (  -0.2000000   0.4000000  -0.2000000), wk =   0.0480000
        k(   10) = (  -0.3000000   0.5000000  -0.3000000), wk =   0.0480000
        k(   11) = (   0.6000000  -0.4000000   0.6000000), wk =   0.0480000
        k(   12) = (   0.5000000  -0.3000000   0.5000000), wk =   0.0480000
        k(   13) = (   0.4000000  -0.2000000   0.4000000), wk =   0.0480000
        k(   14) = (   0.3000000  -0.1000000   0.3000000), wk =   0.0480000
        k(   15) = (   0.2000000   0.0000000   0.2000000), wk =   0.0240000
        k(   16) = (   0.0000000   0.4000000   0.0000000), wk =   0.0120000
        k(   17) = (  -0.1000000   0.5000000  -0.1000000), wk =   0.0480000
        k(   18) = (  -0.2000000   0.6000000  -0.2000000), wk =   0.0480000
        k(   19) = (   0.7000000  -0.3000000   0.7000000), wk =   0.0480000
        k(   20) = (   0.6000000  -0.2000000   0.6000000), wk =   0.0480000
        k(   21) = (   0.5000000  -0.1000000   0.5000000), wk =   0.0480000
        k(   22) = (   0.4000000   0.0000000   0.4000000), wk =   0.0240000
        k(   23) = (   0.0000000   0.6000000   0.0000000), wk =   0.0120000
        k(   24) = (  -0.1000000   0.7000000  -0.1000000), wk =   0.0480000
        k(   25) = (   0.8000000  -0.2000000   0.8000000), wk =   0.0480000
        k(   26) = (   0.7000000  -0.1000000   0.7000000), wk =   0.0480000
        k(   27) = (   0.6000000  -0.0000000   0.6000000), wk =   0.0240000
        k(   28) = (   0.0000000   0.8000000   0.0000000), wk =   0.0120000
        k(   29) = (   0.9000000  -0.1000000   0.9000000), wk =   0.0480000
        k(   30) = (   0.8000000   0.0000000   0.8000000), wk =   0.0240000
        k(   31) = (   0.0000000  -1.0000000   0.0000000), wk =   0.0060000
        k(   32) = (  -0.2000000   0.4000000   0.0000000), wk =   0.0480000
        k(   33) = (  -0.3000000   0.5000000  -0.1000000), wk =   0.0960000
        k(   34) = (   0.6000000  -0.4000000   0.8000000), wk =   0.0960000
        k(   35) = (   0.5000000  -0.3000000   0.7000000), wk =   0.0480000
        k(   36) = (  -0.2000000   0.6000000   0.0000000), wk =   0.0480000
        k(   37) = (   0.7000000  -0.3000000   0.9000000), wk =   0.0960000
        k(   38) = (   0.6000000  -0.2000000   0.8000000), wk =   0.0960000
        k(   39) = (   0.5000000  -0.1000000   0.7000000), wk =   0.0960000
        k(   40) = (   0.4000000   0.0000000   0.6000000), wk =   0.0480000
        k(   41) = (   0.8000000  -0.2000000   1.0000000), wk =   0.0480000
        k(   42) = (   0.7000000  -0.1000000   0.9000000), wk =   0.0960000
        k(   43) = (   0.6000000   0.0000000   0.8000000), wk =   0.0480000
        k(   44) = (  -0.2000000  -1.0000000   0.0000000), wk =   0.0240000
        k(   45) = (   0.6000000  -0.2000000   1.0000000), wk =   0.0480000
        k(   46) = (   0.5000000  -0.1000000   0.9000000), wk =   0.0480000
        k(   47) = (  -0.4000000  -1.0000000   0.0000000), wk =   0.0240000

     Dense  grid:     5769 G-vectors     FFT dimensions: (  25,  25,  25)

     Estimated max dynamical RAM per process >      10.85 MB

     WARNING: libxc functional with ID  263 depends
      on external parameters: check the user_guide of
      QE if you need to modify them or to check their
      default values.

     Initial potential from superposition of free atoms

     starting charge       7.9953, renormalised to       8.0000
     Starting wfcs are   13 randomized atomic wfcs

     total cpu time spent up to now is        2.9 secs

     Self-consistent Calculation

     iteration #  1     ecut=    50.00 Ry     beta= 0.01
     Davidson diagonalization with overlap
     ethr =  1.00E-02,  avg # of iterations =  1.7

     total cpu time spent up to now is        4.9 secs

     total energy              =     -30.43340039 Ry
     estimated scf accuracy    <       0.37738835 Ry

     iteration #  2     ecut=    50.00 Ry     beta= 0.01
     Davidson diagonalization with overlap
     ethr =  4.72E-03,  avg # of iterations =  1.0

     total cpu time spent up to now is        6.9 secs

     total energy              =     -30.48026810 Ry
     estimated scf accuracy    <       0.36089939 Ry

     iteration #  3     ecut=    50.00 Ry     beta= 0.01
     Davidson diagonalization with overlap
     ethr =  4.51E-03,  avg # of iterations =  1.0

     total cpu time spent up to now is        8.7 secs

     total energy              =     -30.53682913 Ry
     estimated scf accuracy    <       0.26562969 Ry

     iteration #  4     ecut=    50.00 Ry     beta= 0.01
     Davidson diagonalization with overlap
     ethr =  3.32E-03,  avg # of iterations =  1.0

     total cpu time spent up to now is       10.5 secs

     total energy              =     -30.53899348 Ry
     estimated scf accuracy    <       0.00318571 Ry

     iteration #  5     ecut=    50.00 Ry     beta= 0.01
     Davidson diagonalization with overlap
     ethr =  3.98E-05,  avg # of iterations =  2.0

     total cpu time spent up to now is       12.5 secs

     total energy              =     -30.53916737 Ry
     estimated scf accuracy    <       0.00347537 Ry

     iteration #  6     ecut=    50.00 Ry     beta= 0.01
     Davidson diagonalization with overlap
     ethr =  3.98E-05,  avg # of iterations =  1.0

     total cpu time spent up to now is       14.3 secs

     total energy              =     -30.53857967 Ry
     estimated scf accuracy    <       0.00370470 Ry

     iteration #  7     ecut=    50.00 Ry     beta= 0.01
     Davidson diagonalization with overlap
     ethr =  3.98E-05,  avg # of iterations =  1.0

     total cpu time spent up to now is       16.2 secs

     total energy              =     -30.53842055 Ry
     estimated scf accuracy    <       0.00079625 Ry

     iteration #  8     ecut=    50.00 Ry     beta= 0.01
     Davidson diagonalization with overlap
     ethr =  9.95E-06,  avg # of iterations =  2.0

     total cpu time spent up to now is       18.6 secs

     total energy              =     -30.53868421 Ry
     estimated scf accuracy    <       0.00076862 Ry

     iteration #  9     ecut=    50.00 Ry     beta= 0.01
     Davidson diagonalization with overlap
     ethr =  9.61E-06,  avg # of iterations =  1.0

     total cpu time spent up to now is       20.3 secs

     total energy              =     -30.53871306 Ry
     estimated scf accuracy    <       0.00093194 Ry

     iteration # 10     ecut=    50.00 Ry     beta= 0.01
     Davidson diagonalization with overlap
     ethr =  9.61E-06,  avg # of iterations =  1.0

     total cpu time spent up to now is       21.9 secs

     total energy              =     -30.53859274 Ry
     estimated scf accuracy    <       0.00079113 Ry

     iteration # 11     ecut=    50.00 Ry     beta= 0.01
     Davidson diagonalization with overlap
     ethr =  9.61E-06,  avg # of iterations =  1.0

     total cpu time spent up to now is       23.7 secs

     total energy              =     -30.53862251 Ry
     estimated scf accuracy    <       0.00001387 Ry

     iteration # 12     ecut=    50.00 Ry     beta= 0.01
     Davidson diagonalization with overlap
     ethr =  1.73E-07,  avg # of iterations =  1.5

     total cpu time spent up to now is       25.6 secs

     total energy              =     -30.53862228 Ry
     estimated scf accuracy    <       0.00000904 Ry

     iteration # 13     ecut=    50.00 Ry     beta= 0.01
     Davidson diagonalization with overlap
     ethr =  1.13E-07,  avg # of iterations =  1.0

     total cpu time spent up to now is       27.2 secs

     total energy              =     -30.53862177 Ry
     estimated scf accuracy    <       0.00000549 Ry

     iteration # 14     ecut=    50.00 Ry     beta= 0.01
     Davidson diagonalization with overlap
     ethr =  6.86E-08,  avg # of iterations =  2.0

     total cpu time spent up to now is       29.3 secs

     End of self-consistent calculation

          k = 0.0000 0.0000 0.0000 (   725 PWs)   bands (ev):

    -8.9200   8.9927   8.9927   8.9927

          k =-0.1000 0.1000-0.1000 (   712 PWs)   bands (ev):

    -8.7679   8.2102   8.9051   8.9051

          k =-0.2000 0.2000-0.2000 (   718 PWs)   bands (ev):

    -8.3362   6.3975   8.6975   8.6975

          k =-0.3000 0.3000-0.3000 (   718 PWs)   bands (ev):

    -7.7104   4.3983   8.4773   8.4773

          k =-0.4000 0.4000-0.4000 (   721 PWs)   bands (ev):

    -7.0899   2.8354   8.3236   8.3236

          k = 0.5000-0.5000 0.5000 (   718 PWs)   bands (ev):

    -6.8114   2.2264   8.2700   8.2700

          k = 0.0000 0.2000 0.0000 (   713 PWs)   bands (ev):

    -8.7154   8.5112   8.5734   8.5734

          k =-0.1000 0.3000-0.1000 (   707 PWs)   bands (ev):

    -8.3705   7.0125   8.1921   8.5384

          k =-0.2000 0.4000-0.2000 (   713 PWs)   bands (ev):

    -7.7952   5.0575   7.9131   8.2372

          k =-0.3000 0.5000-0.3000 (   712 PWs)   bands (ev):

    -7.1436   3.3291   7.8193   7.8223

          k = 0.6000-0.4000 0.6000 (   721 PWs)   bands (ev):

    -6.7154   2.3756   7.4538   7.9376

          k = 0.5000-0.3000 0.5000 (   721 PWs)   bands (ev):

    -6.8149   2.5926   7.2514   8.2193

          k = 0.4000-0.2000 0.4000 (   724 PWs)   bands (ev):

    -7.3623   3.8807   7.2702   8.5794

          k = 0.3000-0.1000 0.3000 (   720 PWs)   bands (ev):

    -8.0133   5.7438   7.5301   8.8943

          k = 0.2000 0.0000 0.2000 (   711 PWs)   bands (ev):

    -8.5202   7.4609   8.1040   9.0297

          k = 0.0000 0.4000 0.0000 (   709 PWs)   bands (ev):

    -8.1111   6.9756   7.6360   7.6360

          k =-0.1000 0.5000-0.1000 (   714 PWs)   bands (ev):

    -7.6008   5.4300   7.2277   7.2287

          k =-0.2000 0.6000-0.2000 (   718 PWs)   bands (ev):

    -6.9598   3.7942   6.5763   7.0745

          k = 0.7000-0.3000 0.7000 (   714 PWs)   bands (ev):

    -6.4416   2.7046   5.9221   7.2054

          k = 0.6000-0.2000 0.6000 (   711 PWs)   bands (ev):

    -6.3788   2.6372   5.4861   7.5931

          k = 0.5000-0.1000 0.5000 (   714 PWs)   bands (ev):

    -6.8203   3.6484   5.3776   8.1402

          k = 0.4000 0.0000 0.4000 (   728 PWs)   bands (ev):

    -7.4599   5.0498   5.9005   8.6589

          k = 0.0000 0.6000 0.0000 (   717 PWs)   bands (ev):

    -7.1578   4.6557   6.6869   6.6869

          k =-0.1000 0.7000-0.1000 (   716 PWs)   bands (ev):

    -6.5662   3.4242   6.0536   6.4196

          k = 0.8000-0.2000 0.8000 (   714 PWs)   bands (ev):

    -6.0448   2.5933   5.1196   6.4752

          k = 0.7000-0.1000 0.7000 (   718 PWs)   bands (ev):

    -5.9031   2.6136   4.2931   6.8450

          k = 0.6000-0.0000 0.6000 (   718 PWs)   bands (ev):

    -6.2425   3.5783   3.8466   7.4576

          k = 0.0000 0.8000 0.0000 (   717 PWs)   bands (ev):

    -6.0616   2.4243   6.0299   6.0299

          k = 0.9000-0.1000 0.9000 (   714 PWs)   bands (ev):

    -5.6528   1.8072   5.4868   5.9742

          k = 0.8000 0.0000 0.8000 (   714 PWs)   bands (ev):

    -5.5906   1.9752   4.6359   6.2613

          k = 0.0000-1.0000 0.0000 (   724 PWs)   bands (ev):

    -5.4785   1.4146   5.7987   5.7987

          k =-0.2000 0.4000 0.0000 (   713 PWs)   bands (ev):

    -7.9450   6.0952   7.0765   8.4119

          k =-0.3000 0.5000-0.1000 (   718 PWs)   bands (ev):

    -7.3288   4.4942   6.4078   8.1010

          k = 0.6000-0.4000 0.8000 (   716 PWs)   bands (ev):

    -6.7184   3.0469   6.1525   7.7326

          k = 0.5000-0.3000 0.7000 (   714 PWs)   bands (ev):

    -6.4449   2.4687   6.0878   7.5719

          k =-0.2000 0.6000 0.0000 (   716 PWs)   bands (ev):

    -7.0451   4.3865   6.0573   7.1318

          k = 0.7000-0.3000 0.9000 (   717 PWs)   bands (ev):

    -6.4365   3.2840   5.2274   6.8927

          k = 0.6000-0.2000 0.8000 (   710 PWs)   bands (ev):

    -6.0653   2.6988   4.6734   6.8885

          k = 0.5000-0.1000 0.7000 (   714 PWs)   bands (ev):

    -6.1940   3.0761   4.4044   7.1989

          k = 0.4000 0.0000 0.6000 (   716 PWs)   bands (ev):

    -6.7202   4.0309   4.7748   7.6934

          k = 0.8000-0.2000 1.0000 (   723 PWs)   bands (ev):

    -6.0324   2.5624   5.3601   6.2378

          k = 0.7000-0.1000 0.9000 (   719 PWs)   bands (ev):

    -5.6933   2.2767   4.4819   6.2725

          k = 0.6000 0.0000 0.8000 (   715 PWs)   bands (ev):

    -5.7694   2.7863   3.7790   6.6263

          k =-0.2000-1.0000 0.0000 (   716 PWs)   bands (ev):

    -5.5099   1.6958   5.1160   5.9495

          k = 0.6000-0.2000 1.0000 (   708 PWs)   bands (ev):

    -5.9350   3.0178   4.0198   6.5941

          k = 0.5000-0.1000 0.9000 (   716 PWs)   bands (ev):

    -5.7179   2.9800   3.4982   6.4493

          k =-0.4000-1.0000 0.0000 (   712 PWs)   bands (ev):

    -5.5603   2.5127   3.7577   6.1993

     highest occupied level (ev):     9.0297

!    total energy              =     -30.53862241 Ry
     estimated scf accuracy    <       0.00000022 Ry

     The total energy is the sum of the following terms:
     one-electron contribution =       4.25789309 Ry
     hartree contribution      =       3.14206002 Ry
     xc contribution           =      -6.70063450 Ry
     ewald contribution        =     -31.23794103 Ry

     convergence has been achieved in  14 iterations
     Writing meta-gga kinetic term

     Writing all to output data dir ./input_pw/LiCl/4/pwscf.save/
     Writing meta-gga kinetic term
 
     init_run     :      0.99s CPU      2.76s WALL (       1 calls)
     electrons    :     10.56s CPU     26.42s WALL (       1 calls)

     Called by init_run:
     wfcinit      :      0.87s CPU      2.38s WALL (       1 calls)
     potinit      :      0.01s CPU      0.04s WALL (       1 calls)
     hinit0       :      0.10s CPU      0.31s WALL (       1 calls)

     Called by electrons:
     c_bands      :      8.32s CPU     20.81s WALL (      14 calls)
     sum_band     :      2.01s CPU      4.99s WALL (      14 calls)
     v_of_rho     :      0.14s CPU      0.36s WALL (      15 calls)
     mix_rho      :      0.10s CPU      0.28s WALL (      14 calls)

     Called by c_bands:
     init_us_2    :      0.13s CPU      0.45s WALL (    1363 calls)
     init_us_2:cp :      0.12s CPU      0.42s WALL (    1363 calls)
     cegterg      :      8.19s CPU     20.52s WALL (     658 calls)

     Called by *egterg:
     cdiaghg      :      0.08s CPU      0.19s WALL (    1517 calls)
     h_psi        :      8.79s CPU     22.07s WALL (    1564 calls)
     g_psi        :      0.01s CPU      0.01s WALL (     859 calls)

     Called by h_psi:
     h_psi:calbec :      0.03s CPU      0.08s WALL (    1564 calls)
     vloc_psi     :      2.16s CPU      5.39s WALL (    1564 calls)
     add_vuspsi   :      0.03s CPU      0.15s WALL (    1564 calls)
     h_psi_meta   :      6.53s CPU     16.39s WALL (    1564 calls)

     General routines
     calbec       :      0.03s CPU      0.06s WALL (    1564 calls)
     fft          :      0.03s CPU      0.07s WALL (     177 calls)
     ffts         :      0.04s CPU      0.16s WALL (     283 calls)
     fftw         :      9.43s CPU     23.43s WALL (   61104 calls)
     interpolate  :      0.00s CPU      0.00s WALL (      15 calls)
 
     Parallel routines
 
     PWSCF        :     11.61s CPU     29.36s WALL

 
   This run was terminated on:  14:29:11  14Mar2023            

=------------------------------------------------------------------------------=
   JOB DONE.
=------------------------------------------------------------------------------=
