
     Program PWSCF v.7.0 starts on  7Jul2023 at 14:24:17 

     This program is part of the open-source Quantum ESPRESSO suite
     for quantum simulation of materials; please cite
         "P. Giannozzi et al., J. Phys.:Condens. Matter 21 395502 (2009);
         "P. Giannozzi et al., J. Phys.:Condens. Matter 29 465901 (2017);
         "P. Giannozzi et al., J. Chem. Phys. 152 154105 (2020);
          URL http://www.quantum-espresso.org", 
     in publications or presentations arising from this work. More details at
     http://www.quantum-espresso.org/quote

     Parallel version (MPI), running on     1 processors

     MPI processes distributed on     1 nodes
     27024 MiB available memory on the printing compute node when the environment starts
 
     Waiting for input...
     Reading input from standard input
Warning: card &CELL ignored
Warning: card / ignored

     Current dimensions of program PWSCF are:
     Max number of different atomic species (ntypx) = 10
     Max number of k-points (npk) =  40000
     Max angular momentum in pseudopotentials (lmaxx) =  4
     file Cl.SCAN.UPF2: wavefunction(s)  0D renormalized

     WARNING: the MGGA functional with ID    5 has been 
     read together with other dft terms, but it should 
     stand alone in order to work properly. The other 
     terms will be ignored.

     WARNING: the MGGA functional with ID    5 has been 
     read together with other dft terms, but it should 
     stand alone in order to work properly. The other 
     terms will be ignored.

     Subspace diagonalization in iterative solution of the eigenvalue problem:
     a serial algorithm will be used

 
     G-vector sticks info
     --------------------
     sticks:   dense  smooth     PW     G-vecs:    dense   smooth      PW
     Sum         583     583    187                 9185     9185    1639
 
     Using Slab Decomposition
 


     bravais-lattice index     =            2
     lattice parameter (alat)  =       9.1074  a.u.
     unit-cell volume          =     188.8557 (a.u.)^3
     number of atoms/cell      =            2
     number of atomic types    =            2
     number of electrons       =         8.00
     number of Kohn-Sham states=            4
     kinetic-energy cutoff     =      50.0000  Ry
     charge density cutoff     =     200.0000  Ry
     scf convergence threshold =      2.0E-05
     mixing beta               =       0.2000
     number of iterations used =            8  local-TF  mixing
     Exchange-correlation= SLA  PW   SCAN SCAN
                           (   0   0   0   0   0 263 267)

     celldm(1)=   9.107448  celldm(2)=   0.000000  celldm(3)=   0.000000
     celldm(4)=   0.000000  celldm(5)=   0.000000  celldm(6)=   0.000000

     crystal axes: (cart. coord. in units of alat)
               a(1) = (  -0.500000   0.000000   0.500000 )  
               a(2) = (   0.000000   0.500000   0.500000 )  
               a(3) = (  -0.500000   0.500000   0.000000 )  

     reciprocal axes: (cart. coord. in units 2 pi/alat)
               b(1) = ( -1.000000 -1.000000  1.000000 )  
               b(2) = (  1.000000  1.000000  1.000000 )  
               b(3) = ( -1.000000  1.000000 -1.000000 )  


     PseudoPot. # 1 for Li read from file:
     ~/Documents/TA/PWDFT.jl/pseudopotentials/scan_upf/Li.SCAN.UPF2
     MD5 check sum: Not computed, couldn't open file
     Pseudo is Norm-conserving, Zval =  1.0
     Generated by new atomic code, or converted to UPF format
     Using radial grid of 1321 points,  1 beta functions with: 
                l(1) =   0

     PseudoPot. # 2 for Cl read from file:
     ~/Documents/TA/PWDFT.jl/pseudopotentials/scan_upf/Cl.SCAN.UPF2
     MD5 check sum: Not computed, couldn't open file
     Pseudo is Norm-conserving, Zval =  7.0
     Generated by new atomic code, or converted to UPF format
     Using radial grid of 1493 points,  2 beta functions with: 
                l(1) =   0
                l(2) =   1

     atomic species   valence    mass     pseudopotential
        Li             1.00     6.94100     Li( 1.00)
        Cl             7.00    35.45300     Cl( 1.00)

     48 Sym. Ops., with inversion, found



   Cartesian axes

     site n.     atom                  positions (alat units)
         1           Li  tau(   1) = (   0.0000000   0.0000000   0.0000000  )
         2           Cl  tau(   2) = (   0.5000000   0.5000000   0.5000000  )

     number of k points=    47
                       cart. coord. in units 2pi/alat
        k(    1) = (   0.0000000   0.0000000   0.0000000), wk =   0.0020000
        k(    2) = (  -0.1000000   0.1000000  -0.1000000), wk =   0.0160000
        k(    3) = (  -0.2000000   0.2000000  -0.2000000), wk =   0.0160000
        k(    4) = (  -0.3000000   0.3000000  -0.3000000), wk =   0.0160000
        k(    5) = (  -0.4000000   0.4000000  -0.4000000), wk =   0.0160000
        k(    6) = (   0.5000000  -0.5000000   0.5000000), wk =   0.0080000
        k(    7) = (   0.0000000   0.2000000   0.0000000), wk =   0.0120000
        k(    8) = (  -0.1000000   0.3000000  -0.1000000), wk =   0.0480000
        k(    9) = (  -0.2000000   0.4000000  -0.2000000), wk =   0.0480000
        k(   10) = (  -0.3000000   0.5000000  -0.3000000), wk =   0.0480000
        k(   11) = (   0.6000000  -0.4000000   0.6000000), wk =   0.0480000
        k(   12) = (   0.5000000  -0.3000000   0.5000000), wk =   0.0480000
        k(   13) = (   0.4000000  -0.2000000   0.4000000), wk =   0.0480000
        k(   14) = (   0.3000000  -0.1000000   0.3000000), wk =   0.0480000
        k(   15) = (   0.2000000   0.0000000   0.2000000), wk =   0.0240000
        k(   16) = (   0.0000000   0.4000000   0.0000000), wk =   0.0120000
        k(   17) = (  -0.1000000   0.5000000  -0.1000000), wk =   0.0480000
        k(   18) = (  -0.2000000   0.6000000  -0.2000000), wk =   0.0480000
        k(   19) = (   0.7000000  -0.3000000   0.7000000), wk =   0.0480000
        k(   20) = (   0.6000000  -0.2000000   0.6000000), wk =   0.0480000
        k(   21) = (   0.5000000  -0.1000000   0.5000000), wk =   0.0480000
        k(   22) = (   0.4000000   0.0000000   0.4000000), wk =   0.0240000
        k(   23) = (   0.0000000   0.6000000   0.0000000), wk =   0.0120000
        k(   24) = (  -0.1000000   0.7000000  -0.1000000), wk =   0.0480000
        k(   25) = (   0.8000000  -0.2000000   0.8000000), wk =   0.0480000
        k(   26) = (   0.7000000  -0.1000000   0.7000000), wk =   0.0480000
        k(   27) = (   0.6000000  -0.0000000   0.6000000), wk =   0.0240000
        k(   28) = (   0.0000000   0.8000000   0.0000000), wk =   0.0120000
        k(   29) = (   0.9000000  -0.1000000   0.9000000), wk =   0.0480000
        k(   30) = (   0.8000000   0.0000000   0.8000000), wk =   0.0240000
        k(   31) = (   0.0000000  -1.0000000   0.0000000), wk =   0.0060000
        k(   32) = (  -0.2000000   0.4000000   0.0000000), wk =   0.0480000
        k(   33) = (  -0.3000000   0.5000000  -0.1000000), wk =   0.0960000
        k(   34) = (   0.6000000  -0.4000000   0.8000000), wk =   0.0960000
        k(   35) = (   0.5000000  -0.3000000   0.7000000), wk =   0.0480000
        k(   36) = (  -0.2000000   0.6000000   0.0000000), wk =   0.0480000
        k(   37) = (   0.7000000  -0.3000000   0.9000000), wk =   0.0960000
        k(   38) = (   0.6000000  -0.2000000   0.8000000), wk =   0.0960000
        k(   39) = (   0.5000000  -0.1000000   0.7000000), wk =   0.0960000
        k(   40) = (   0.4000000   0.0000000   0.6000000), wk =   0.0480000
        k(   41) = (   0.8000000  -0.2000000   1.0000000), wk =   0.0480000
        k(   42) = (   0.7000000  -0.1000000   0.9000000), wk =   0.0960000
        k(   43) = (   0.6000000   0.0000000   0.8000000), wk =   0.0480000
        k(   44) = (  -0.2000000  -1.0000000   0.0000000), wk =   0.0240000
        k(   45) = (   0.6000000  -0.2000000   1.0000000), wk =   0.0480000
        k(   46) = (   0.5000000  -0.1000000   0.9000000), wk =   0.0480000
        k(   47) = (  -0.4000000  -1.0000000   0.0000000), wk =   0.0240000

     Dense  grid:     9185 G-vectors     FFT dimensions: (  30,  30,  30)

     Estimated max dynamical RAM per process >      17.36 MB

     WARNING: libxc functional with ID  263 depends
      on external parameters: check the user_guide of
      QE if you need to modify them or to check their
      default values.

     Initial potential from superposition of free atoms

     starting charge       7.9953, renormalised to       8.0000
     Starting wfcs are   13 randomized atomic wfcs

     total cpu time spent up to now is        3.9 secs

     Self-consistent Calculation

     iteration #  1     ecut=    50.00 Ry     beta= 0.20
     Davidson diagonalization with overlap
     ethr =  1.00E-02,  avg # of iterations =  1.0

     total cpu time spent up to now is        6.5 secs

     total energy              =     -30.68307067 Ry
     estimated scf accuracy    <       0.35676121 Ry

     iteration #  2     ecut=    50.00 Ry     beta= 0.20
     Davidson diagonalization with overlap
     ethr =  4.46E-03,  avg # of iterations =  1.0

     total cpu time spent up to now is        9.2 secs

     total energy              =     -30.72233458 Ry
     estimated scf accuracy    <       0.23036079 Ry

     iteration #  3     ecut=    50.00 Ry     beta= 0.20
     Davidson diagonalization with overlap
     ethr =  2.88E-03,  avg # of iterations =  1.0

     total cpu time spent up to now is       11.8 secs

     total energy              =     -30.72587762 Ry
     estimated scf accuracy    <       0.00161921 Ry

     iteration #  4     ecut=    50.00 Ry     beta= 0.20
     Davidson diagonalization with overlap
     ethr =  2.02E-05,  avg # of iterations =  2.0

     total cpu time spent up to now is       15.3 secs

     total energy              =     -30.72625045 Ry
     estimated scf accuracy    <       0.00101084 Ry

     iteration #  5     ecut=    50.00 Ry     beta= 0.20
     Davidson diagonalization with overlap
     ethr =  1.26E-05,  avg # of iterations =  1.0

     total cpu time spent up to now is       17.5 secs

     total energy              =     -30.72633759 Ry
     estimated scf accuracy    <       0.00022687 Ry

     iteration #  6     ecut=    50.00 Ry     beta= 0.20
     Davidson diagonalization with overlap
     ethr =  2.84E-06,  avg # of iterations =  2.0

     total cpu time spent up to now is       20.1 secs

     total energy              =     -30.72638904 Ry
     estimated scf accuracy    <       0.00003576 Ry

     iteration #  7     ecut=    50.00 Ry     beta= 0.20
     Davidson diagonalization with overlap
     ethr =  4.47E-07,  avg # of iterations =  1.1

     total cpu time spent up to now is       21.7 secs

     End of self-consistent calculation

          k = 0.0000 0.0000 0.0000 (  1139 PWs)   bands (ev):

   -11.9227   2.7668   2.7668   2.7668

          k =-0.1000 0.1000-0.1000 (  1134 PWs)   bands (ev):

   -11.8449   2.3208   2.7284   2.7284

          k =-0.2000 0.2000-0.2000 (  1122 PWs)   bands (ev):

   -11.6305   1.2889   2.6326   2.6326

          k =-0.3000 0.3000-0.3000 (  1125 PWs)   bands (ev):

   -11.3414   0.1724   2.5227   2.5227

          k =-0.4000 0.4000-0.4000 (  1125 PWs)   bands (ev):

   -11.0826  -0.6613   2.4400   2.4400

          k = 0.5000-0.5000 0.5000 (  1158 PWs)   bands (ev):

   -10.9773  -0.9703   2.4098   2.4098

          k = 0.0000 0.2000 0.0000 (  1147 PWs)   bands (ev):

   -11.8186   2.3986   2.5934   2.5934

          k =-0.1000 0.3000-0.1000 (  1134 PWs)   bands (ev):

   -11.6478   1.5964   2.4239   2.5370

          k =-0.2000 0.4000-0.2000 (  1129 PWs)   bands (ev):

   -11.3795   0.5224   2.2879   2.4020

          k =-0.3000 0.5000-0.3000 (  1128 PWs)   bands (ev):

   -11.1038  -0.3900   2.2083   2.2326

          k = 0.6000-0.4000 0.6000 (  1127 PWs)   bands (ev):

   -10.9406  -0.8654   2.0348   2.2739

          k = 0.5000-0.3000 0.5000 (  1133 PWs)   bands (ev):

   -10.9771  -0.7580   1.9433   2.3962

          k = 0.4000-0.2000 0.4000 (  1125 PWs)   bands (ev):

   -11.1924  -0.1040   1.9678   2.5584

          k = 0.3000-0.1000 0.3000 (  1127 PWs)   bands (ev):

   -11.4783   0.8848   2.1173   2.7026

          k = 0.2000 0.0000 0.2000 (  1141 PWs)   bands (ev):

   -11.7210   1.8355   2.4006   2.7702

          k = 0.0000 0.4000 0.0000 (  1134 PWs)   bands (ev):

   -11.5249   1.4424   2.1717   2.1717

          k =-0.1000 0.5000-0.1000 (  1125 PWs)   bands (ev):

   -11.2950   0.6582   1.9555   1.9726

          k =-0.2000 0.6000-0.2000 (  1121 PWs)   bands (ev):

   -11.0319  -0.1412   1.6314   1.8900

          k = 0.7000-0.3000 0.7000 (  1123 PWs)   bands (ev):

   -10.8421  -0.6291   1.2777   1.9471

          k = 0.6000-0.2000 0.6000 (  1135 PWs)   bands (ev):

   -10.8203  -0.6396   1.0355   2.1271

          k = 0.5000-0.1000 0.5000 (  1130 PWs)   bands (ev):

   -10.9776  -0.1913   1.0179   2.3745

          k = 0.4000 0.0000 0.4000 (  1119 PWs)   bands (ev):

   -11.2329   0.4205   1.3849   2.5992

          k = 0.0000 0.6000 0.0000 (  1118 PWs)   bands (ev):

   -11.1112   0.2482   1.7030   1.7030

          k =-0.1000 0.7000-0.1000 (  1125 PWs)   bands (ev):

   -10.8877  -0.3135   1.3865   1.5628

          k = 0.8000-0.2000 0.8000 (  1126 PWs)   bands (ev):

   -10.7121  -0.6153   0.8747   1.5885

          k = 0.7000-0.1000 0.7000 (  1132 PWs)   bands (ev):

   -10.6665  -0.4903   0.3510   1.7739

          k = 0.6000-0.0000 0.6000 (  1131 PWs)   bands (ev):

   -10.7729  -0.0761   0.1424   2.0688

          k = 0.0000 0.8000 0.0000 (  1126 PWs)   bands (ev):

   -10.7206  -0.7491   1.3574   1.3574

          k = 0.9000-0.1000 0.9000 (  1129 PWs)   bands (ev):

   -10.5989  -0.9642   1.0728   1.3266

          k = 0.8000 0.0000 0.8000 (  1128 PWs)   bands (ev):

   -10.5783  -0.7997   0.5801   1.4776

          k = 0.0000-1.0000 0.0000 (  1138 PWs)   bands (ev):

   -10.5537  -1.1422   1.2322   1.2322

          k =-0.2000 0.4000 0.0000 (  1124 PWs)   bands (ev):

   -11.4474   1.0111   1.9367   2.4885

          k =-0.3000 0.5000-0.1000 (  1124 PWs)   bands (ev):

   -11.1787   0.1959   1.5749   2.3537

          k = 0.6000-0.4000 0.8000 (  1130 PWs)   bands (ev):

   -10.9405  -0.4917   1.4087   2.1839

          k = 0.5000-0.3000 0.7000 (  1124 PWs)   bands (ev):

   -10.8434  -0.7557   1.3645   2.1069

          k =-0.2000 0.6000 0.0000 (  1126 PWs)   bands (ev):

   -11.0656   0.1181   1.4276   1.9043

          k = 0.7000-0.3000 0.9000 (  1129 PWs)   bands (ev):

   -10.8402  -0.3492   0.9869   1.7729

          k = 0.6000-0.2000 0.8000 (  1133 PWs)   bands (ev):

   -10.7167  -0.5355   0.6411   1.7638

          k = 0.5000-0.1000 0.7000 (  1128 PWs)   bands (ev):

   -10.7573  -0.3604   0.4903   1.9230

          k = 0.4000 0.0000 0.6000 (  1126 PWs)   bands (ev):

   -10.9403  -0.0543   0.7968   2.1669

          k = 0.8000-0.2000 1.0000 (  1124 PWs)   bands (ev):

   -10.7092  -0.6532   1.0559   1.4322

          k = 0.7000-0.1000 0.9000 (  1131 PWs)   bands (ev):

   -10.6059  -0.6735   0.5672   1.4298

          k = 0.6000 0.0000 0.8000 (  1128 PWs)   bands (ev):

   -10.6257  -0.3174   0.0759   1.6216

          k =-0.2000-1.0000 0.0000 (  1136 PWs)   bands (ev):

   -10.5586  -0.9698   0.9217   1.2644

          k = 0.6000-0.2000 1.0000 (  1123 PWs)   bands (ev):

   -10.6754  -0.3670   0.3761   1.5748

          k = 0.5000-0.1000 0.9000 (  1122 PWs)   bands (ev):

   -10.6100  -0.2674   0.0536   1.4741

          k =-0.4000-1.0000 0.0000 (  1130 PWs)   bands (ev):

   -10.5664  -0.4803   0.2259   1.3168

     highest occupied level (ev):     2.7702

!    total energy              =     -30.72639386 Ry
     estimated scf accuracy    <       0.00000325 Ry

     The total energy is the sum of the following terms:
     one-electron contribution =      -2.41895192 Ry
     hartree contribution      =       4.97679615 Ry
     xc contribution           =      -6.43814852 Ry
     ewald contribution        =     -26.84608957 Ry

     convergence has been achieved in   7 iterations
     Writing meta-gga kinetic term

     Writing all to output data dir ./input_pw/LiCl/4/pwscf.save/
     Writing meta-gga kinetic term
 
     init_run     :      1.74s CPU      3.83s WALL (       1 calls)
     electrons    :     10.02s CPU     17.75s WALL (       1 calls)

     Called by init_run:
     wfcinit      :      1.62s CPU      3.53s WALL (       1 calls)
     potinit      :      0.02s CPU      0.09s WALL (       1 calls)
     hinit0       :      0.09s CPU      0.18s WALL (       1 calls)

     Called by electrons:
     c_bands      :      7.94s CPU     14.30s WALL (       7 calls)
     sum_band     :      1.87s CPU      3.09s WALL (       7 calls)
     v_of_rho     :      0.13s CPU      0.27s WALL (       8 calls)
     mix_rho      :      0.09s CPU      0.15s WALL (       7 calls)

     Called by c_bands:
     init_us_2    :      0.10s CPU      0.17s WALL (     705 calls)
     init_us_2:cp :      0.10s CPU      0.17s WALL (     705 calls)
     cegterg      :      7.85s CPU     14.14s WALL (     329 calls)

     Called by *egterg:
     cdiaghg      :      0.05s CPU      0.15s WALL (     757 calls)
     h_psi        :      9.25s CPU     17.15s WALL (     804 calls)
     g_psi        :      0.01s CPU      0.04s WALL (     428 calls)

     Called by h_psi:
     h_psi:calbec :      0.03s CPU      0.03s WALL (     804 calls)
     vloc_psi     :      2.28s CPU      3.99s WALL (     804 calls)
     add_vuspsi   :      0.03s CPU      0.06s WALL (     804 calls)
     h_psi_meta   :      6.90s CPU     13.02s WALL (     804 calls)

     General routines
     calbec       :      0.03s CPU      0.03s WALL (     804 calls)
     fft          :      0.03s CPU      0.03s WALL (      93 calls)
     ffts         :      0.04s CPU      0.07s WALL (     146 calls)
     fftw         :      9.78s CPU     17.77s WALL (   34088 calls)
     interpolate  :      0.00s CPU      0.00s WALL (       8 calls)
 
     Parallel routines
 
     PWSCF        :     11.80s CPU     21.70s WALL

 
   This run was terminated on:  14:24:39   7Jul2023            

=------------------------------------------------------------------------------=
   JOB DONE.
=------------------------------------------------------------------------------=
