
     Program PWSCF v.7.0 starts on 29Mar2023 at 10:21:34 

     This program is part of the open-source Quantum ESPRESSO suite
     for quantum simulation of materials; please cite
         "P. Giannozzi et al., J. Phys.:Condens. Matter 21 395502 (2009);
         "P. Giannozzi et al., J. Phys.:Condens. Matter 29 465901 (2017);
         "P. Giannozzi et al., J. Chem. Phys. 152 154105 (2020);
          URL http://www.quantum-espresso.org", 
     in publications or presentations arising from this work. More details at
     http://www.quantum-espresso.org/quote

     Parallel version (MPI), running on     1 processors

     MPI processes distributed on     1 nodes
     23805 MiB available memory on the printing compute node when the environment starts
 
     Waiting for input...
     Reading input from standard input
Warning: card &CELL ignored
Warning: card / ignored

     Current dimensions of program PWSCF are:
     Max number of different atomic species (ntypx) = 10
     Max number of k-points (npk) =  40000
     Max angular momentum in pseudopotentials (lmaxx) =  4
     file Cl.SCAN.UPF2: wavefunction(s)  0D renormalized

     WARNING: the MGGA functional with ID    5 has been 
     read together with other dft terms, but it should 
     stand alone in order to work properly. The other 
     terms will be ignored.

     WARNING: the MGGA functional with ID    5 has been 
     read together with other dft terms, but it should 
     stand alone in order to work properly. The other 
     terms will be ignored.

     Subspace diagonalization in iterative solution of the eigenvalue problem:
     a serial algorithm will be used

 
     G-vector sticks info
     --------------------
     sticks:   dense  smooth     PW     G-vecs:    dense   smooth      PW
     Sum         583     583    187                 9185     9185    1639
 
     Using Slab Decomposition
 


     bravais-lattice index     =            2
     lattice parameter (alat)  =       9.1075  a.u.
     unit-cell volume          =     188.8569 (a.u.)^3
     number of atoms/cell      =            2
     number of atomic types    =            2
     number of electrons       =         8.00
     number of Kohn-Sham states=            4
     kinetic-energy cutoff     =      50.0000  Ry
     charge density cutoff     =     200.0000  Ry
     scf convergence threshold =      1.0E-06
     mixing beta               =       0.0100
     number of iterations used =            8  local-TF  mixing
     Exchange-correlation= SLA  PW   SCAN SCAN
                           (   0   0   0   0   0 263 267)

     celldm(1)=   9.107467  celldm(2)=   0.000000  celldm(3)=   0.000000
     celldm(4)=   0.000000  celldm(5)=   0.000000  celldm(6)=   0.000000

     crystal axes: (cart. coord. in units of alat)
               a(1) = (  -0.500000   0.000000   0.500000 )  
               a(2) = (   0.000000   0.500000   0.500000 )  
               a(3) = (  -0.500000   0.500000   0.000000 )  

     reciprocal axes: (cart. coord. in units 2 pi/alat)
               b(1) = ( -1.000000 -1.000000  1.000000 )  
               b(2) = (  1.000000  1.000000  1.000000 )  
               b(3) = ( -1.000000  1.000000 -1.000000 )  


     PseudoPot. # 1 for Li read from file:
     ~/Documents/TA/PWDFT.jl/pseudopotentials/scan_upf/Li.SCAN.UPF2
     MD5 check sum: Not computed, couldn't open file
     Pseudo is Norm-conserving, Zval =  1.0
     Generated by new atomic code, or converted to UPF format
     Using radial grid of 1321 points,  1 beta functions with: 
                l(1) =   0

     PseudoPot. # 2 for Cl read from file:
     ~/Documents/TA/PWDFT.jl/pseudopotentials/scan_upf/Cl.SCAN.UPF2
     MD5 check sum: Not computed, couldn't open file
     Pseudo is Norm-conserving, Zval =  7.0
     Generated by new atomic code, or converted to UPF format
     Using radial grid of 1493 points,  2 beta functions with: 
                l(1) =   0
                l(2) =   1

     atomic species   valence    mass     pseudopotential
        Li             1.00     6.94100     Li( 1.00)
        Cl             7.00    35.45300     Cl( 1.00)

     48 Sym. Ops., with inversion, found



   Cartesian axes

     site n.     atom                  positions (alat units)
         1           Li  tau(   1) = (   0.0000000   0.0000000   0.0000000  )
         2           Cl  tau(   2) = (   0.5000000   0.5000000   0.5000000  )

     number of k points=    47
                       cart. coord. in units 2pi/alat
        k(    1) = (   0.0000000   0.0000000   0.0000000), wk =   0.0020000
        k(    2) = (  -0.1000000   0.1000000  -0.1000000), wk =   0.0160000
        k(    3) = (  -0.2000000   0.2000000  -0.2000000), wk =   0.0160000
        k(    4) = (  -0.3000000   0.3000000  -0.3000000), wk =   0.0160000
        k(    5) = (  -0.4000000   0.4000000  -0.4000000), wk =   0.0160000
        k(    6) = (   0.5000000  -0.5000000   0.5000000), wk =   0.0080000
        k(    7) = (   0.0000000   0.2000000   0.0000000), wk =   0.0120000
        k(    8) = (  -0.1000000   0.3000000  -0.1000000), wk =   0.0480000
        k(    9) = (  -0.2000000   0.4000000  -0.2000000), wk =   0.0480000
        k(   10) = (  -0.3000000   0.5000000  -0.3000000), wk =   0.0480000
        k(   11) = (   0.6000000  -0.4000000   0.6000000), wk =   0.0480000
        k(   12) = (   0.5000000  -0.3000000   0.5000000), wk =   0.0480000
        k(   13) = (   0.4000000  -0.2000000   0.4000000), wk =   0.0480000
        k(   14) = (   0.3000000  -0.1000000   0.3000000), wk =   0.0480000
        k(   15) = (   0.2000000   0.0000000   0.2000000), wk =   0.0240000
        k(   16) = (   0.0000000   0.4000000   0.0000000), wk =   0.0120000
        k(   17) = (  -0.1000000   0.5000000  -0.1000000), wk =   0.0480000
        k(   18) = (  -0.2000000   0.6000000  -0.2000000), wk =   0.0480000
        k(   19) = (   0.7000000  -0.3000000   0.7000000), wk =   0.0480000
        k(   20) = (   0.6000000  -0.2000000   0.6000000), wk =   0.0480000
        k(   21) = (   0.5000000  -0.1000000   0.5000000), wk =   0.0480000
        k(   22) = (   0.4000000   0.0000000   0.4000000), wk =   0.0240000
        k(   23) = (   0.0000000   0.6000000   0.0000000), wk =   0.0120000
        k(   24) = (  -0.1000000   0.7000000  -0.1000000), wk =   0.0480000
        k(   25) = (   0.8000000  -0.2000000   0.8000000), wk =   0.0480000
        k(   26) = (   0.7000000  -0.1000000   0.7000000), wk =   0.0480000
        k(   27) = (   0.6000000  -0.0000000   0.6000000), wk =   0.0240000
        k(   28) = (   0.0000000   0.8000000   0.0000000), wk =   0.0120000
        k(   29) = (   0.9000000  -0.1000000   0.9000000), wk =   0.0480000
        k(   30) = (   0.8000000   0.0000000   0.8000000), wk =   0.0240000
        k(   31) = (   0.0000000  -1.0000000   0.0000000), wk =   0.0060000
        k(   32) = (  -0.2000000   0.4000000   0.0000000), wk =   0.0480000
        k(   33) = (  -0.3000000   0.5000000  -0.1000000), wk =   0.0960000
        k(   34) = (   0.6000000  -0.4000000   0.8000000), wk =   0.0960000
        k(   35) = (   0.5000000  -0.3000000   0.7000000), wk =   0.0480000
        k(   36) = (  -0.2000000   0.6000000   0.0000000), wk =   0.0480000
        k(   37) = (   0.7000000  -0.3000000   0.9000000), wk =   0.0960000
        k(   38) = (   0.6000000  -0.2000000   0.8000000), wk =   0.0960000
        k(   39) = (   0.5000000  -0.1000000   0.7000000), wk =   0.0960000
        k(   40) = (   0.4000000   0.0000000   0.6000000), wk =   0.0480000
        k(   41) = (   0.8000000  -0.2000000   1.0000000), wk =   0.0480000
        k(   42) = (   0.7000000  -0.1000000   0.9000000), wk =   0.0960000
        k(   43) = (   0.6000000   0.0000000   0.8000000), wk =   0.0480000
        k(   44) = (  -0.2000000  -1.0000000   0.0000000), wk =   0.0240000
        k(   45) = (   0.6000000  -0.2000000   1.0000000), wk =   0.0480000
        k(   46) = (   0.5000000  -0.1000000   0.9000000), wk =   0.0480000
        k(   47) = (  -0.4000000  -1.0000000   0.0000000), wk =   0.0240000

     Dense  grid:     9185 G-vectors     FFT dimensions: (  30,  30,  30)

     Estimated max dynamical RAM per process >      17.36 MB

     WARNING: libxc functional with ID  263 depends
      on external parameters: check the user_guide of
      QE if you need to modify them or to check their
      default values.

     Initial potential from superposition of free atoms

     starting charge       7.9953, renormalised to       8.0000
     Starting wfcs are   13 randomized atomic wfcs

     total cpu time spent up to now is        3.7 secs

     Self-consistent Calculation

     iteration #  1     ecut=    50.00 Ry     beta= 0.01
     Davidson diagonalization with overlap
     ethr =  1.00E-02,  avg # of iterations =  1.0

     total cpu time spent up to now is        6.4 secs

     total energy              =     -30.63929783 Ry
     estimated scf accuracy    <       0.35676106 Ry

     iteration #  2     ecut=    50.00 Ry     beta= 0.01
     Davidson diagonalization with overlap
     ethr =  4.46E-03,  avg # of iterations =  1.0

     total cpu time spent up to now is        9.1 secs

     total energy              =     -30.66138272 Ry
     estimated scf accuracy    <       0.33939778 Ry

     iteration #  3     ecut=    50.00 Ry     beta= 0.01
     Davidson diagonalization with overlap
     ethr =  4.24E-03,  avg # of iterations =  1.0

     total cpu time spent up to now is       11.7 secs

     total energy              =     -30.72443880 Ry
     estimated scf accuracy    <       0.25942607 Ry

     iteration #  4     ecut=    50.00 Ry     beta= 0.01
     Davidson diagonalization with overlap
     ethr =  3.24E-03,  avg # of iterations =  1.0

     total cpu time spent up to now is       14.3 secs

     total energy              =     -30.72691670 Ry
     estimated scf accuracy    <       0.00381970 Ry

     iteration #  5     ecut=    50.00 Ry     beta= 0.01
     Davidson diagonalization with overlap
     ethr =  4.77E-05,  avg # of iterations =  1.0

     total cpu time spent up to now is       17.0 secs

     total energy              =     -30.72700452 Ry
     estimated scf accuracy    <       0.00365476 Ry

     iteration #  6     ecut=    50.00 Ry     beta= 0.01
     Davidson diagonalization with overlap
     ethr =  4.57E-05,  avg # of iterations =  1.0

     total cpu time spent up to now is       19.7 secs

     total energy              =     -30.72569024 Ry
     estimated scf accuracy    <       0.00349573 Ry

     iteration #  7     ecut=    50.00 Ry     beta= 0.01
     Davidson diagonalization with overlap
     ethr =  4.37E-05,  avg # of iterations =  2.0

     total cpu time spent up to now is       23.4 secs

     total energy              =     -30.72659126 Ry
     estimated scf accuracy    <       0.00064314 Ry

     iteration #  8     ecut=    50.00 Ry     beta= 0.01
     Davidson diagonalization with overlap
     ethr =  8.04E-06,  avg # of iterations =  2.0

     total cpu time spent up to now is       26.8 secs

     total energy              =     -30.72678995 Ry
     estimated scf accuracy    <       0.00200689 Ry

     iteration #  9     ecut=    50.00 Ry     beta= 0.01
     Davidson diagonalization with overlap
     ethr =  8.04E-06,  avg # of iterations =  1.0

     total cpu time spent up to now is       29.5 secs

     total energy              =     -30.72628286 Ry
     estimated scf accuracy    <       0.00283911 Ry

     iteration # 10     ecut=    50.00 Ry     beta= 0.01
     Davidson diagonalization with overlap
     ethr =  8.04E-06,  avg # of iterations =  2.0

     total cpu time spent up to now is       33.1 secs

     total energy              =     -30.72639046 Ry
     estimated scf accuracy    <       0.00007937 Ry

     iteration # 11     ecut=    50.00 Ry     beta= 0.01
     Davidson diagonalization with overlap
     ethr =  9.92E-07,  avg # of iterations =  1.0

     total cpu time spent up to now is       35.5 secs

     total energy              =     -30.72639618 Ry
     estimated scf accuracy    <       0.00000748 Ry

     iteration # 12     ecut=    50.00 Ry     beta= 0.01
     Davidson diagonalization with overlap
     ethr =  9.35E-08,  avg # of iterations =  1.0

     total cpu time spent up to now is       37.2 secs

     total energy              =     -30.72639505 Ry
     estimated scf accuracy    <       0.00000873 Ry

     iteration # 13     ecut=    50.00 Ry     beta= 0.01
     Davidson diagonalization with overlap
     ethr =  9.35E-08,  avg # of iterations =  1.0

     total cpu time spent up to now is       39.3 secs

     total energy              =     -30.72639497 Ry
     estimated scf accuracy    <       0.00000205 Ry

     iteration # 14     ecut=    50.00 Ry     beta= 0.01
     Davidson diagonalization with overlap
     ethr =  2.56E-08,  avg # of iterations =  2.0

     total cpu time spent up to now is       41.3 secs

     End of self-consistent calculation

          k = 0.0000 0.0000 0.0000 (  1139 PWs)   bands (ev):

   -11.9198   2.7692   2.7692   2.7692

          k =-0.1000 0.1000-0.1000 (  1134 PWs)   bands (ev):

   -11.8420   2.3233   2.7309   2.7309

          k =-0.2000 0.2000-0.2000 (  1122 PWs)   bands (ev):

   -11.6276   1.2915   2.6350   2.6350

          k =-0.3000 0.3000-0.3000 (  1125 PWs)   bands (ev):

   -11.3384   0.1751   2.5252   2.5252

          k =-0.4000 0.4000-0.4000 (  1125 PWs)   bands (ev):

   -11.0796  -0.6586   2.4425   2.4425

          k = 0.5000-0.5000 0.5000 (  1158 PWs)   bands (ev):

   -10.9743  -0.9676   2.4122   2.4122

          k = 0.0000 0.2000 0.0000 (  1147 PWs)   bands (ev):

   -11.8157   2.4011   2.5958   2.5958

          k =-0.1000 0.3000-0.1000 (  1134 PWs)   bands (ev):

   -11.6449   1.5990   2.4263   2.5395

          k =-0.2000 0.4000-0.2000 (  1129 PWs)   bands (ev):

   -11.3765   0.5251   2.2903   2.4045

          k =-0.3000 0.5000-0.3000 (  1128 PWs)   bands (ev):

   -11.1008  -0.3873   2.2108   2.2351

          k = 0.6000-0.4000 0.6000 (  1127 PWs)   bands (ev):

   -10.9376  -0.8628   2.0373   2.2764

          k = 0.5000-0.3000 0.5000 (  1133 PWs)   bands (ev):

   -10.9741  -0.7554   1.9458   2.3987

          k = 0.4000-0.2000 0.4000 (  1125 PWs)   bands (ev):

   -11.1894  -0.1014   1.9703   2.5609

          k = 0.3000-0.1000 0.3000 (  1127 PWs)   bands (ev):

   -11.4753   0.8875   2.1197   2.7050

          k = 0.2000 0.0000 0.2000 (  1141 PWs)   bands (ev):

   -11.7180   1.8381   2.4031   2.7726

          k = 0.0000 0.4000 0.0000 (  1134 PWs)   bands (ev):

   -11.5220   1.4452   2.1741   2.1741

          k =-0.1000 0.5000-0.1000 (  1125 PWs)   bands (ev):

   -11.2920   0.6609   1.9579   1.9750

          k =-0.2000 0.6000-0.2000 (  1121 PWs)   bands (ev):

   -11.0289  -0.1385   1.6339   1.8925

          k = 0.7000-0.3000 0.7000 (  1123 PWs)   bands (ev):

   -10.8391  -0.6265   1.2803   1.9495

          k = 0.6000-0.2000 0.6000 (  1135 PWs)   bands (ev):

   -10.8173  -0.6370   1.0381   2.1296

          k = 0.5000-0.1000 0.5000 (  1130 PWs)   bands (ev):

   -10.9745  -0.1887   1.0205   2.3770

          k = 0.4000 0.0000 0.4000 (  1119 PWs)   bands (ev):

   -11.2299   0.4232   1.3874   2.6016

          k = 0.0000 0.6000 0.0000 (  1118 PWs)   bands (ev):

   -11.1082   0.2510   1.7054   1.7054

          k =-0.1000 0.7000-0.1000 (  1125 PWs)   bands (ev):

   -10.8847  -0.3107   1.3889   1.5652

          k = 0.8000-0.2000 0.8000 (  1126 PWs)   bands (ev):

   -10.7090  -0.6126   0.8773   1.5909

          k = 0.7000-0.1000 0.7000 (  1132 PWs)   bands (ev):

   -10.6634  -0.4876   0.3536   1.7763

          k = 0.6000-0.0000 0.6000 (  1131 PWs)   bands (ev):

   -10.7699  -0.0735   0.1451   2.0713

          k = 0.0000 0.8000 0.0000 (  1126 PWs)   bands (ev):

   -10.7175  -0.7463   1.3599   1.3599

          k = 0.9000-0.1000 0.9000 (  1129 PWs)   bands (ev):

   -10.5958  -0.9615   1.0753   1.3291

          k = 0.8000 0.0000 0.8000 (  1128 PWs)   bands (ev):

   -10.5752  -0.7970   0.5826   1.4800

          k = 0.0000-1.0000 0.0000 (  1138 PWs)   bands (ev):

   -10.5506  -1.1394   1.2346   1.2346

          k =-0.2000 0.4000 0.0000 (  1124 PWs)   bands (ev):

   -11.4444   1.0137   1.9391   2.4910

          k =-0.3000 0.5000-0.1000 (  1124 PWs)   bands (ev):

   -11.1757   0.1986   1.5774   2.3562

          k = 0.6000-0.4000 0.8000 (  1130 PWs)   bands (ev):

   -10.9375  -0.4891   1.4113   2.1864

          k = 0.5000-0.3000 0.7000 (  1124 PWs)   bands (ev):

   -10.8403  -0.7531   1.3671   2.1094

          k =-0.2000 0.6000 0.0000 (  1126 PWs)   bands (ev):

   -11.0626   0.1208   1.4300   1.9067

          k = 0.7000-0.3000 0.9000 (  1129 PWs)   bands (ev):

   -10.8372  -0.3465   0.9895   1.7753

          k = 0.6000-0.2000 0.8000 (  1133 PWs)   bands (ev):

   -10.7137  -0.5328   0.6437   1.7662

          k = 0.5000-0.1000 0.7000 (  1128 PWs)   bands (ev):

   -10.7542  -0.3578   0.4929   1.9254

          k = 0.4000 0.0000 0.6000 (  1126 PWs)   bands (ev):

   -10.9373  -0.0517   0.7994   2.1694

          k = 0.8000-0.2000 1.0000 (  1124 PWs)   bands (ev):

   -10.7061  -0.6504   1.0583   1.4347

          k = 0.7000-0.1000 0.9000 (  1131 PWs)   bands (ev):

   -10.6028  -0.6708   0.5698   1.4322

          k = 0.6000 0.0000 0.8000 (  1128 PWs)   bands (ev):

   -10.6226  -0.3147   0.0785   1.6240

          k =-0.2000-1.0000 0.0000 (  1136 PWs)   bands (ev):

   -10.5555  -0.9671   0.9242   1.2668

          k = 0.6000-0.2000 1.0000 (  1123 PWs)   bands (ev):

   -10.6724  -0.3644   0.3787   1.5773

          k = 0.5000-0.1000 0.9000 (  1122 PWs)   bands (ev):

   -10.6069  -0.2648   0.0562   1.4765

          k =-0.4000-1.0000 0.0000 (  1130 PWs)   bands (ev):

   -10.5634  -0.4776   0.2285   1.3193

     highest occupied level (ev):     2.7726

!    total energy              =     -30.72639527 Ry
     estimated scf accuracy    <       0.00000003 Ry

     The total energy is the sum of the following terms:
     one-electron contribution =      -2.41891990 Ry
     hartree contribution      =       4.97666866 Ry
     xc contribution           =      -6.43810952 Ry
     ewald contribution        =     -26.84603451 Ry

     convergence has been achieved in  14 iterations
     Writing meta-gga kinetic term

     Writing all to output data dir ./input_pw/LiCl/4/pwscf.save/
     Writing meta-gga kinetic term
 
     init_run     :      1.76s CPU      3.62s WALL (       1 calls)
     electrons    :     19.89s CPU     37.61s WALL (       1 calls)

     Called by init_run:
     wfcinit      :      1.63s CPU      3.43s WALL (       1 calls)
     potinit      :      0.02s CPU      0.05s WALL (       1 calls)
     hinit0       :      0.10s CPU      0.12s WALL (       1 calls)

     Called by electrons:
     c_bands      :     15.65s CPU     29.58s WALL (      14 calls)
     sum_band     :      3.78s CPU      7.21s WALL (      14 calls)
     v_of_rho     :      0.26s CPU      0.46s WALL (      15 calls)
     mix_rho      :      0.21s CPU      0.38s WALL (      14 calls)

     Called by c_bands:
     init_us_2    :      0.20s CPU      0.28s WALL (    1363 calls)
     init_us_2:cp :      0.19s CPU      0.28s WALL (    1363 calls)
     cegterg      :     15.47s CPU     29.19s WALL (     658 calls)

     Called by *egterg:
     cdiaghg      :      0.09s CPU      0.20s WALL (    1505 calls)
     h_psi        :     16.71s CPU     31.93s WALL (    1552 calls)
     g_psi        :      0.01s CPU      0.04s WALL (     847 calls)

     Called by h_psi:
     h_psi:calbec :      0.06s CPU      0.09s WALL (    1552 calls)
     vloc_psi     :      4.13s CPU      8.09s WALL (    1552 calls)
     add_vuspsi   :      0.05s CPU      0.05s WALL (    1552 calls)
     h_psi_meta   :     12.44s CPU     23.66s WALL (    1552 calls)

     General routines
     calbec       :      0.05s CPU      0.08s WALL (    1552 calls)
     fft          :      0.05s CPU      0.08s WALL (     177 calls)
     ffts         :      0.09s CPU      0.18s WALL (     313 calls)
     fftw         :     17.78s CPU     34.13s WALL (   62512 calls)
     interpolate  :      0.00s CPU      0.00s WALL (      15 calls)
 
     Parallel routines
 
     PWSCF        :     21.70s CPU     41.32s WALL

 
   This run was terminated on:  10:22:16  29Mar2023            

=------------------------------------------------------------------------------=
   JOB DONE.
=------------------------------------------------------------------------------=
