
     Program PWSCF v.7.0 starts on  7Jul2023 at 14:24:17 

     This program is part of the open-source Quantum ESPRESSO suite
     for quantum simulation of materials; please cite
         "P. Giannozzi et al., J. Phys.:Condens. Matter 21 395502 (2009);
         "P. Giannozzi et al., J. Phys.:Condens. Matter 29 465901 (2017);
         "P. Giannozzi et al., J. Chem. Phys. 152 154105 (2020);
          URL http://www.quantum-espresso.org", 
     in publications or presentations arising from this work. More details at
     http://www.quantum-espresso.org/quote

     Parallel version (MPI), running on     1 processors

     MPI processes distributed on     1 nodes
     27467 MiB available memory on the printing compute node when the environment starts
 
     Waiting for input...
     Reading input from standard input
Warning: card &CELL ignored
Warning: card / ignored

     Current dimensions of program PWSCF are:
     Max number of different atomic species (ntypx) = 10
     Max number of k-points (npk) =  40000
     Max angular momentum in pseudopotentials (lmaxx) =  4
     file Cl.SCAN.UPF2: wavefunction(s)  0D renormalized

     WARNING: the MGGA functional with ID    5 has been 
     read together with other dft terms, but it should 
     stand alone in order to work properly. The other 
     terms will be ignored.

     WARNING: the MGGA functional with ID    5 has been 
     read together with other dft terms, but it should 
     stand alone in order to work properly. The other 
     terms will be ignored.

     Subspace diagonalization in iterative solution of the eigenvalue problem:
     a serial algorithm will be used

 
     G-vector sticks info
     --------------------
     sticks:   dense  smooth     PW     G-vecs:    dense   smooth      PW
     Sum         475     475    151                 6855     6855    1243
 
     Using Slab Decomposition
 


     bravais-lattice index     =            2
     lattice parameter (alat)  =       8.3038  a.u.
     unit-cell volume          =     143.1457 (a.u.)^3
     number of atoms/cell      =            2
     number of atomic types    =            2
     number of electrons       =         8.00
     number of Kohn-Sham states=            4
     kinetic-energy cutoff     =      50.0000  Ry
     charge density cutoff     =     200.0000  Ry
     scf convergence threshold =      2.0E-05
     mixing beta               =       0.2000
     number of iterations used =            8  local-TF  mixing
     Exchange-correlation= SLA  PW   SCAN SCAN
                           (   0   0   0   0   0 263 267)

     celldm(1)=   8.303850  celldm(2)=   0.000000  celldm(3)=   0.000000
     celldm(4)=   0.000000  celldm(5)=   0.000000  celldm(6)=   0.000000

     crystal axes: (cart. coord. in units of alat)
               a(1) = (  -0.500000   0.000000   0.500000 )  
               a(2) = (   0.000000   0.500000   0.500000 )  
               a(3) = (  -0.500000   0.500000   0.000000 )  

     reciprocal axes: (cart. coord. in units 2 pi/alat)
               b(1) = ( -1.000000 -1.000000  1.000000 )  
               b(2) = (  1.000000  1.000000  1.000000 )  
               b(3) = ( -1.000000  1.000000 -1.000000 )  


     PseudoPot. # 1 for Li read from file:
     ~/Documents/TA/PWDFT.jl/pseudopotentials/scan_upf/Li.SCAN.UPF2
     MD5 check sum: Not computed, couldn't open file
     Pseudo is Norm-conserving, Zval =  1.0
     Generated by new atomic code, or converted to UPF format
     Using radial grid of 1321 points,  1 beta functions with: 
                l(1) =   0

     PseudoPot. # 2 for Cl read from file:
     ~/Documents/TA/PWDFT.jl/pseudopotentials/scan_upf/Cl.SCAN.UPF2
     MD5 check sum: Not computed, couldn't open file
     Pseudo is Norm-conserving, Zval =  7.0
     Generated by new atomic code, or converted to UPF format
     Using radial grid of 1493 points,  2 beta functions with: 
                l(1) =   0
                l(2) =   1

     atomic species   valence    mass     pseudopotential
        Li             1.00     6.94100     Li( 1.00)
        Cl             7.00    35.45300     Cl( 1.00)

     48 Sym. Ops., with inversion, found



   Cartesian axes

     site n.     atom                  positions (alat units)
         1           Li  tau(   1) = (   0.0000000   0.0000000   0.0000000  )
         2           Cl  tau(   2) = (   0.5000000   0.5000000   0.5000000  )

     number of k points=    47
                       cart. coord. in units 2pi/alat
        k(    1) = (   0.0000000   0.0000000   0.0000000), wk =   0.0020000
        k(    2) = (  -0.1000000   0.1000000  -0.1000000), wk =   0.0160000
        k(    3) = (  -0.2000000   0.2000000  -0.2000000), wk =   0.0160000
        k(    4) = (  -0.3000000   0.3000000  -0.3000000), wk =   0.0160000
        k(    5) = (  -0.4000000   0.4000000  -0.4000000), wk =   0.0160000
        k(    6) = (   0.5000000  -0.5000000   0.5000000), wk =   0.0080000
        k(    7) = (   0.0000000   0.2000000   0.0000000), wk =   0.0120000
        k(    8) = (  -0.1000000   0.3000000  -0.1000000), wk =   0.0480000
        k(    9) = (  -0.2000000   0.4000000  -0.2000000), wk =   0.0480000
        k(   10) = (  -0.3000000   0.5000000  -0.3000000), wk =   0.0480000
        k(   11) = (   0.6000000  -0.4000000   0.6000000), wk =   0.0480000
        k(   12) = (   0.5000000  -0.3000000   0.5000000), wk =   0.0480000
        k(   13) = (   0.4000000  -0.2000000   0.4000000), wk =   0.0480000
        k(   14) = (   0.3000000  -0.1000000   0.3000000), wk =   0.0480000
        k(   15) = (   0.2000000   0.0000000   0.2000000), wk =   0.0240000
        k(   16) = (   0.0000000   0.4000000   0.0000000), wk =   0.0120000
        k(   17) = (  -0.1000000   0.5000000  -0.1000000), wk =   0.0480000
        k(   18) = (  -0.2000000   0.6000000  -0.2000000), wk =   0.0480000
        k(   19) = (   0.7000000  -0.3000000   0.7000000), wk =   0.0480000
        k(   20) = (   0.6000000  -0.2000000   0.6000000), wk =   0.0480000
        k(   21) = (   0.5000000  -0.1000000   0.5000000), wk =   0.0480000
        k(   22) = (   0.4000000   0.0000000   0.4000000), wk =   0.0240000
        k(   23) = (   0.0000000   0.6000000   0.0000000), wk =   0.0120000
        k(   24) = (  -0.1000000   0.7000000  -0.1000000), wk =   0.0480000
        k(   25) = (   0.8000000  -0.2000000   0.8000000), wk =   0.0480000
        k(   26) = (   0.7000000  -0.1000000   0.7000000), wk =   0.0480000
        k(   27) = (   0.6000000  -0.0000000   0.6000000), wk =   0.0240000
        k(   28) = (   0.0000000   0.8000000   0.0000000), wk =   0.0120000
        k(   29) = (   0.9000000  -0.1000000   0.9000000), wk =   0.0480000
        k(   30) = (   0.8000000   0.0000000   0.8000000), wk =   0.0240000
        k(   31) = (   0.0000000  -1.0000000   0.0000000), wk =   0.0060000
        k(   32) = (  -0.2000000   0.4000000   0.0000000), wk =   0.0480000
        k(   33) = (  -0.3000000   0.5000000  -0.1000000), wk =   0.0960000
        k(   34) = (   0.6000000  -0.4000000   0.8000000), wk =   0.0960000
        k(   35) = (   0.5000000  -0.3000000   0.7000000), wk =   0.0480000
        k(   36) = (  -0.2000000   0.6000000   0.0000000), wk =   0.0480000
        k(   37) = (   0.7000000  -0.3000000   0.9000000), wk =   0.0960000
        k(   38) = (   0.6000000  -0.2000000   0.8000000), wk =   0.0960000
        k(   39) = (   0.5000000  -0.1000000   0.7000000), wk =   0.0960000
        k(   40) = (   0.4000000   0.0000000   0.6000000), wk =   0.0480000
        k(   41) = (   0.8000000  -0.2000000   1.0000000), wk =   0.0480000
        k(   42) = (   0.7000000  -0.1000000   0.9000000), wk =   0.0960000
        k(   43) = (   0.6000000   0.0000000   0.8000000), wk =   0.0480000
        k(   44) = (  -0.2000000  -1.0000000   0.0000000), wk =   0.0240000
        k(   45) = (   0.6000000  -0.2000000   1.0000000), wk =   0.0480000
        k(   46) = (   0.5000000  -0.1000000   0.9000000), wk =   0.0480000
        k(   47) = (  -0.4000000  -1.0000000   0.0000000), wk =   0.0240000

     Dense  grid:     6855 G-vectors     FFT dimensions: (  27,  27,  27)

     Estimated max dynamical RAM per process >      12.99 MB

     WARNING: libxc functional with ID  263 depends
      on external parameters: check the user_guide of
      QE if you need to modify them or to check their
      default values.

     Initial potential from superposition of free atoms

     starting charge       7.9953, renormalised to       8.0000
     Starting wfcs are   13 randomized atomic wfcs

     total cpu time spent up to now is        2.9 secs

     Self-consistent Calculation

     iteration #  1     ecut=    50.00 Ry     beta= 0.20
     Davidson diagonalization with overlap
     ethr =  1.00E-02,  avg # of iterations =  1.1

     total cpu time spent up to now is        4.9 secs

     total energy              =     -30.58555644 Ry
     estimated scf accuracy    <       0.36723284 Ry

     iteration #  2     ecut=    50.00 Ry     beta= 0.20
     Davidson diagonalization with overlap
     ethr =  4.59E-03,  avg # of iterations =  1.0

     total cpu time spent up to now is        6.9 secs

     total energy              =     -30.63842251 Ry
     estimated scf accuracy    <       0.23562192 Ry

     iteration #  3     ecut=    50.00 Ry     beta= 0.20
     Davidson diagonalization with overlap
     ethr =  2.95E-03,  avg # of iterations =  1.0

     total cpu time spent up to now is        8.9 secs

     total energy              =     -30.64172489 Ry
     estimated scf accuracy    <       0.00153187 Ry

     iteration #  4     ecut=    50.00 Ry     beta= 0.20
     Davidson diagonalization with overlap
     ethr =  1.91E-05,  avg # of iterations =  2.0

     total cpu time spent up to now is       11.3 secs

     total energy              =     -30.64215962 Ry
     estimated scf accuracy    <       0.00108916 Ry

     iteration #  5     ecut=    50.00 Ry     beta= 0.20
     Davidson diagonalization with overlap
     ethr =  1.36E-05,  avg # of iterations =  1.0

     total cpu time spent up to now is       13.3 secs

     total energy              =     -30.64223071 Ry
     estimated scf accuracy    <       0.00027896 Ry

     iteration #  6     ecut=    50.00 Ry     beta= 0.20
     Davidson diagonalization with overlap
     ethr =  3.49E-06,  avg # of iterations =  2.0

     total cpu time spent up to now is       15.7 secs

     total energy              =     -30.64228328 Ry
     estimated scf accuracy    <       0.00002301 Ry

     iteration #  7     ecut=    50.00 Ry     beta= 0.20
     Davidson diagonalization with overlap
     ethr =  2.88E-07,  avg # of iterations =  1.7

     total cpu time spent up to now is       17.5 secs

     End of self-consistent calculation

          k = 0.0000 0.0000 0.0000 (   869 PWs)   bands (ev):

   -10.2362   6.1843   6.1843   6.1843

          k =-0.1000 0.1000-0.1000 (   881 PWs)   bands (ev):

   -10.1146   5.5549   6.1214   6.1214

          k =-0.2000 0.2000-0.2000 (   872 PWs)   bands (ev):

    -9.7722   4.0909   5.9682   5.9682

          k =-0.3000 0.3000-0.3000 (   854 PWs)   bands (ev):

    -9.2892   2.4807   5.7994   5.7994

          k =-0.4000 0.4000-0.4000 (   847 PWs)   bands (ev):

    -8.8305   1.2427   5.6771   5.6771

          k = 0.5000-0.5000 0.5000 (   862 PWs)   bands (ev):

    -8.6335   0.7707   5.6334   5.6334

          k = 0.0000 0.2000 0.0000 (   881 PWs)   bands (ev):

   -10.0728   5.7356   5.8887   5.8887

          k =-0.1000 0.3000-0.1000 (   866 PWs)   bands (ev):

    -9.7995   4.5640   5.6107   5.8296

          k =-0.2000 0.4000-0.2000 (   858 PWs)   bands (ev):

    -9.3542   3.0010   5.3989   5.6100

          k =-0.3000 0.5000-0.3000 (   854 PWs)   bands (ev):

    -8.8696   1.6378   5.2993   5.3227

          k = 0.6000-0.4000 0.6000 (   857 PWs)   bands (ev):

    -8.5659   0.9039   5.0245   5.4001

          k = 0.5000-0.3000 0.5000 (   851 PWs)   bands (ev):

    -8.6350   1.0704   4.8754   5.6034

          k = 0.4000-0.2000 0.4000 (   857 PWs)   bands (ev):

    -9.0292   2.0705   4.9002   5.8671

          k = 0.3000-0.1000 0.3000 (   859 PWs)   bands (ev):

    -9.5209   3.5414   5.1147   6.0990

          k = 0.2000 0.0000 0.2000 (   875 PWs)   bands (ev):

    -9.9175   4.9114   5.5583   6.2024

          k = 0.0000 0.4000 0.0000 (   861 PWs)   bands (ev):

    -9.5976   4.4372   5.2004   5.2004

          k =-0.1000 0.5000-0.1000 (   856 PWs)   bands (ev):

    -9.2082   3.2480   4.8728   4.8900

          k =-0.2000 0.6000-0.2000 (   853 PWs)   bands (ev):

    -8.7379   2.0009   4.3703   4.7681

          k = 0.7000-0.3000 0.7000 (   852 PWs)   bands (ev):

    -8.3771   1.1995   3.8468   4.8638

          k = 0.6000-0.2000 0.6000 (   847 PWs)   bands (ev):

    -8.3343   1.1646   3.4933   5.1533

          k = 0.5000-0.1000 0.5000 (   854 PWs)   bands (ev):

    -8.6380   1.9099   3.4309   5.5561

          k = 0.4000 0.0000 0.4000 (   857 PWs)   bands (ev):

    -9.1015   2.9212   3.9187   5.9294

          k = 0.0000 0.6000 0.0000 (   853 PWs)   bands (ev):

    -8.8816   2.6270   4.4734   4.4734

          k =-0.1000 0.7000-0.1000 (   851 PWs)   bands (ev):

    -8.4632   1.7125   3.9853   4.2635

          k = 0.8000-0.2000 0.8000 (   851 PWs)   bands (ev):

    -8.1148   1.1506   3.2338   4.3054

          k = 0.7000-0.1000 0.7000 (   845 PWs)   bands (ev):

    -8.0226   1.2451   2.5221   4.5910

          k = 0.6000-0.0000 0.6000 (   859 PWs)   bands (ev):

    -8.2423   2.0527   2.0765   5.0555

          k = 0.0000 0.8000 0.0000 (   850 PWs)   bands (ev):

    -8.1278   0.9837   3.9566   3.9566

          k = 0.9000-0.1000 0.9000 (   850 PWs)   bands (ev):

    -7.8716   0.5759   3.5304   3.9120

          k = 0.8000 0.0000 0.8000 (   842 PWs)   bands (ev):

    -7.8312   0.7584   2.8311   4.1381

          k = 0.0000-1.0000 0.0000 (   846 PWs)   bands (ev):

    -7.7693   0.2909   3.7725   3.7725

          k =-0.2000 0.4000 0.0000 (   854 PWs)   bands (ev):

    -9.4688   3.7728   4.8015   5.7454

          k =-0.3000 0.5000-0.1000 (   854 PWs)   bands (ev):

    -9.0049   2.5361   4.2600   5.5225

          k = 0.6000-0.4000 0.8000 (   853 PWs)   bands (ev):

    -8.5670   1.4435   4.0358   5.2500

          k = 0.5000-0.3000 0.7000 (   852 PWs)   bands (ev):

    -8.3795   1.0143   3.9779   5.1289

          k =-0.2000 0.6000 0.0000 (   848 PWs)   bands (ev):

    -8.7993   2.4251   4.0161   4.7998

          k = 0.7000-0.3000 0.9000 (   852 PWs)   bands (ev):

    -8.3733   1.6320   3.3556   4.6075

          k = 0.6000-0.2000 0.8000 (   852 PWs)   bands (ev):

    -8.1269   1.2550   2.8798   4.5997

          k = 0.5000-0.1000 0.7000 (   854 PWs)   bands (ev):

    -8.2104   1.5405   2.6570   4.8420

          k = 0.4000 0.0000 0.6000 (   855 PWs)   bands (ev):

    -8.5679   2.1531   3.0340   5.2212

          k = 0.8000-0.2000 1.0000 (   858 PWs)   bands (ev):

    -8.1076   1.1086   3.4642   4.0952

          k = 0.7000-0.1000 0.9000 (   854 PWs)   bands (ev):

    -7.8927   0.9724   2.7554   4.1078

          k = 0.6000 0.0000 0.8000 (   849 PWs)   bands (ev):

    -7.9380   1.4281   2.1235   4.3898

          k =-0.2000-1.0000 0.0000 (   848 PWs)   bands (ev):

    -7.7849   0.5257   3.2687   3.8587

          k = 0.6000-0.2000 1.0000 (   856 PWs)   bands (ev):

    -8.0426   1.4980   2.4253   4.3427

          k = 0.5000-0.1000 0.9000 (   856 PWs)   bands (ev):

    -7.9057   1.5502   1.9809   4.2122

          k =-0.4000-1.0000 0.0000 (   862 PWs)   bands (ev):

    -7.8104   1.2019   2.2116   4.0003

     highest occupied level (ev):     6.2024

!    total energy              =     -30.64228577 Ry
     estimated scf accuracy    <       0.00001027 Ry

     The total energy is the sum of the following terms:
     one-electron contribution =       1.56540701 Ry
     hartree contribution      =       3.82004911 Ry
     xc contribution           =      -6.58364365 Ry
     ewald contribution        =     -29.44409824 Ry

     convergence has been achieved in   7 iterations
     Writing meta-gga kinetic term

     Writing all to output data dir ./input_pw/LiCl/1/pwscf.save/
     Writing meta-gga kinetic term
 
     init_run     :      1.32s CPU      2.81s WALL (       1 calls)
     electrons    :      7.62s CPU     14.53s WALL (       1 calls)

     Called by init_run:
     wfcinit      :      1.20s CPU      2.52s WALL (       1 calls)
     potinit      :      0.01s CPU      0.06s WALL (       1 calls)
     hinit0       :      0.09s CPU      0.22s WALL (       1 calls)

     Called by electrons:
     c_bands      :      6.04s CPU     11.29s WALL (       7 calls)
     sum_band     :      1.43s CPU      2.93s WALL (       7 calls)
     v_of_rho     :      0.10s CPU      0.24s WALL (       8 calls)
     mix_rho      :      0.06s CPU      0.12s WALL (       7 calls)

     Called by c_bands:
     init_us_2    :      0.08s CPU      0.15s WALL (     705 calls)
     init_us_2:cp :      0.08s CPU      0.14s WALL (     705 calls)
     cegterg      :      5.97s CPU     10.99s WALL (     329 calls)

     Called by *egterg:
     cdiaghg      :      0.05s CPU      0.14s WALL (     792 calls)
     h_psi        :      6.99s CPU     13.04s WALL (     839 calls)
     g_psi        :      0.00s CPU      0.00s WALL (     463 calls)

     Called by h_psi:
     h_psi:calbec :      0.02s CPU      0.04s WALL (     839 calls)
     vloc_psi     :      1.72s CPU      3.28s WALL (     839 calls)
     add_vuspsi   :      0.02s CPU      0.08s WALL (     839 calls)
     h_psi_meta   :      5.21s CPU      9.61s WALL (     839 calls)

     General routines
     calbec       :      0.02s CPU      0.04s WALL (     839 calls)
     fft          :      0.02s CPU      0.06s WALL (      93 calls)
     ffts         :      0.03s CPU      0.07s WALL (     136 calls)
     fftw         :      7.43s CPU     14.11s WALL (   34384 calls)
     interpolate  :      0.00s CPU      0.00s WALL (       8 calls)
 
     Parallel routines
 
     PWSCF        :      9.00s CPU     17.52s WALL

 
   This run was terminated on:  14:24:35   7Jul2023            

=------------------------------------------------------------------------------=
   JOB DONE.
=------------------------------------------------------------------------------=
