
     Program PWSCF v.7.0 starts on 14Mar2023 at 14:28:42 

     This program is part of the open-source Quantum ESPRESSO suite
     for quantum simulation of materials; please cite
         "P. Giannozzi et al., J. Phys.:Condens. Matter 21 395502 (2009);
         "P. Giannozzi et al., J. Phys.:Condens. Matter 29 465901 (2017);
         "P. Giannozzi et al., J. Chem. Phys. 152 154105 (2020);
          URL http://www.quantum-espresso.org", 
     in publications or presentations arising from this work. More details at
     http://www.quantum-espresso.org/quote

     Parallel version (MPI), running on     1 processors

     MPI processes distributed on     1 nodes
     27278 MiB available memory on the printing compute node when the environment starts
 
     Waiting for input...
     Reading input from standard input
Warning: card &CELL ignored
Warning: card / ignored

     Current dimensions of program PWSCF are:
     Max number of different atomic species (ntypx) = 10
     Max number of k-points (npk) =  40000
     Max angular momentum in pseudopotentials (lmaxx) =  4
     file Cl.SCAN.UPF2: wavefunction(s)  0D renormalized

     WARNING: the MGGA functional with ID    5 has been 
     read together with other dft terms, but it should 
     stand alone in order to work properly. The other 
     terms will be ignored.

     WARNING: the MGGA functional with ID    5 has been 
     read together with other dft terms, but it should 
     stand alone in order to work properly. The other 
     terms will be ignored.

     Subspace diagonalization in iterative solution of the eigenvalue problem:
     a serial algorithm will be used

 
     G-vector sticks info
     --------------------
     sticks:   dense  smooth     PW     G-vecs:    dense   smooth      PW
     Sum         349     349    121                 4279     4279     869
 
     Using Slab Decomposition
 


     bravais-lattice index     =            2
     lattice parameter (alat)  =       7.1000  a.u.
     unit-cell volume          =      89.4777 (a.u.)^3
     number of atoms/cell      =            2
     number of atomic types    =            2
     number of electrons       =         8.00
     number of Kohn-Sham states=            4
     kinetic-energy cutoff     =      50.0000  Ry
     charge density cutoff     =     200.0000  Ry
     scf convergence threshold =      1.0E-06
     mixing beta               =       0.0100
     number of iterations used =            8  local-TF  mixing
     Exchange-correlation= SLA  PW   SCAN SCAN
                           (   0   0   0   0   0 263 267)

     celldm(1)=   7.100000  celldm(2)=   0.000000  celldm(3)=   0.000000
     celldm(4)=   0.000000  celldm(5)=   0.000000  celldm(6)=   0.000000

     crystal axes: (cart. coord. in units of alat)
               a(1) = (  -0.500000   0.000000   0.500000 )  
               a(2) = (   0.000000   0.500000   0.500000 )  
               a(3) = (  -0.500000   0.500000   0.000000 )  

     reciprocal axes: (cart. coord. in units 2 pi/alat)
               b(1) = ( -1.000000 -1.000000  1.000000 )  
               b(2) = (  1.000000  1.000000  1.000000 )  
               b(3) = ( -1.000000  1.000000 -1.000000 )  


     PseudoPot. # 1 for Li read from file:
     ~/Documents/TA/PWDFT.jl/pseudopotentials/scan_upf/Li.SCAN.UPF2
     MD5 check sum: Not computed, couldn't open file
     Pseudo is Norm-conserving, Zval =  1.0
     Generated by new atomic code, or converted to UPF format
     Using radial grid of 1321 points,  1 beta functions with: 
                l(1) =   0

     PseudoPot. # 2 for Cl read from file:
     ~/Documents/TA/PWDFT.jl/pseudopotentials/scan_upf/Cl.SCAN.UPF2
     MD5 check sum: Not computed, couldn't open file
     Pseudo is Norm-conserving, Zval =  7.0
     Generated by new atomic code, or converted to UPF format
     Using radial grid of 1493 points,  2 beta functions with: 
                l(1) =   0
                l(2) =   1

     atomic species   valence    mass     pseudopotential
        Li             1.00     6.94100     Li( 1.00)
        Cl             7.00    35.45300     Cl( 1.00)

     48 Sym. Ops., with inversion, found



   Cartesian axes

     site n.     atom                  positions (alat units)
         1           Li  tau(   1) = (   0.0000000   0.0000000   0.0000000  )
         2           Cl  tau(   2) = (   0.5000000   0.5000000   0.5000000  )

     number of k points=    47
                       cart. coord. in units 2pi/alat
        k(    1) = (   0.0000000   0.0000000   0.0000000), wk =   0.0020000
        k(    2) = (  -0.1000000   0.1000000  -0.1000000), wk =   0.0160000
        k(    3) = (  -0.2000000   0.2000000  -0.2000000), wk =   0.0160000
        k(    4) = (  -0.3000000   0.3000000  -0.3000000), wk =   0.0160000
        k(    5) = (  -0.4000000   0.4000000  -0.4000000), wk =   0.0160000
        k(    6) = (   0.5000000  -0.5000000   0.5000000), wk =   0.0080000
        k(    7) = (   0.0000000   0.2000000   0.0000000), wk =   0.0120000
        k(    8) = (  -0.1000000   0.3000000  -0.1000000), wk =   0.0480000
        k(    9) = (  -0.2000000   0.4000000  -0.2000000), wk =   0.0480000
        k(   10) = (  -0.3000000   0.5000000  -0.3000000), wk =   0.0480000
        k(   11) = (   0.6000000  -0.4000000   0.6000000), wk =   0.0480000
        k(   12) = (   0.5000000  -0.3000000   0.5000000), wk =   0.0480000
        k(   13) = (   0.4000000  -0.2000000   0.4000000), wk =   0.0480000
        k(   14) = (   0.3000000  -0.1000000   0.3000000), wk =   0.0480000
        k(   15) = (   0.2000000   0.0000000   0.2000000), wk =   0.0240000
        k(   16) = (   0.0000000   0.4000000   0.0000000), wk =   0.0120000
        k(   17) = (  -0.1000000   0.5000000  -0.1000000), wk =   0.0480000
        k(   18) = (  -0.2000000   0.6000000  -0.2000000), wk =   0.0480000
        k(   19) = (   0.7000000  -0.3000000   0.7000000), wk =   0.0480000
        k(   20) = (   0.6000000  -0.2000000   0.6000000), wk =   0.0480000
        k(   21) = (   0.5000000  -0.1000000   0.5000000), wk =   0.0480000
        k(   22) = (   0.4000000   0.0000000   0.4000000), wk =   0.0240000
        k(   23) = (   0.0000000   0.6000000   0.0000000), wk =   0.0120000
        k(   24) = (  -0.1000000   0.7000000  -0.1000000), wk =   0.0480000
        k(   25) = (   0.8000000  -0.2000000   0.8000000), wk =   0.0480000
        k(   26) = (   0.7000000  -0.1000000   0.7000000), wk =   0.0480000
        k(   27) = (   0.6000000  -0.0000000   0.6000000), wk =   0.0240000
        k(   28) = (   0.0000000   0.8000000   0.0000000), wk =   0.0120000
        k(   29) = (   0.9000000  -0.1000000   0.9000000), wk =   0.0480000
        k(   30) = (   0.8000000   0.0000000   0.8000000), wk =   0.0240000
        k(   31) = (   0.0000000  -1.0000000   0.0000000), wk =   0.0060000
        k(   32) = (  -0.2000000   0.4000000   0.0000000), wk =   0.0480000
        k(   33) = (  -0.3000000   0.5000000  -0.1000000), wk =   0.0960000
        k(   34) = (   0.6000000  -0.4000000   0.8000000), wk =   0.0960000
        k(   35) = (   0.5000000  -0.3000000   0.7000000), wk =   0.0480000
        k(   36) = (  -0.2000000   0.6000000   0.0000000), wk =   0.0480000
        k(   37) = (   0.7000000  -0.3000000   0.9000000), wk =   0.0960000
        k(   38) = (   0.6000000  -0.2000000   0.8000000), wk =   0.0960000
        k(   39) = (   0.5000000  -0.1000000   0.7000000), wk =   0.0960000
        k(   40) = (   0.4000000   0.0000000   0.6000000), wk =   0.0480000
        k(   41) = (   0.8000000  -0.2000000   1.0000000), wk =   0.0480000
        k(   42) = (   0.7000000  -0.1000000   0.9000000), wk =   0.0960000
        k(   43) = (   0.6000000   0.0000000   0.8000000), wk =   0.0480000
        k(   44) = (  -0.2000000  -1.0000000   0.0000000), wk =   0.0240000
        k(   45) = (   0.6000000  -0.2000000   1.0000000), wk =   0.0480000
        k(   46) = (   0.5000000  -0.1000000   0.9000000), wk =   0.0480000
        k(   47) = (  -0.4000000  -1.0000000   0.0000000), wk =   0.0240000

     Dense  grid:     4279 G-vectors     FFT dimensions: (  24,  24,  24)

     Estimated max dynamical RAM per process >       8.36 MB

     WARNING: libxc functional with ID  263 depends
      on external parameters: check the user_guide of
      QE if you need to modify them or to check their
      default values.

     Initial potential from superposition of free atoms

     starting charge       7.9953, renormalised to       8.0000
     Starting wfcs are   13 randomized atomic wfcs

     total cpu time spent up to now is        2.7 secs

     Self-consistent Calculation

     iteration #  1     ecut=    50.00 Ry     beta= 0.01
     Davidson diagonalization with overlap
     ethr =  1.00E-02,  avg # of iterations =  2.0

     total cpu time spent up to now is        4.7 secs

     total energy              =     -30.14811012 Ry
     estimated scf accuracy    <       0.40769935 Ry

     iteration #  2     ecut=    50.00 Ry     beta= 0.01
     Davidson diagonalization with overlap
     ethr =  5.10E-03,  avg # of iterations =  1.0

     total cpu time spent up to now is        6.4 secs

     total energy              =     -30.24038377 Ry
     estimated scf accuracy    <       0.39638189 Ry

     iteration #  3     ecut=    50.00 Ry     beta= 0.01
     Davidson diagonalization with overlap
     ethr =  4.95E-03,  avg # of iterations =  1.0

     total cpu time spent up to now is        7.9 secs

     total energy              =     -30.25863198 Ry
     estimated scf accuracy    <       0.10642895 Ry

     iteration #  4     ecut=    50.00 Ry     beta= 0.01
     Davidson diagonalization with overlap
     ethr =  1.33E-03,  avg # of iterations =  1.0

     total cpu time spent up to now is        9.6 secs

     total energy              =     -30.25954023 Ry
     estimated scf accuracy    <       0.00397992 Ry

     iteration #  5     ecut=    50.00 Ry     beta= 0.01
     Davidson diagonalization with overlap
     ethr =  4.97E-05,  avg # of iterations =  1.0

     total cpu time spent up to now is       11.2 secs

     total energy              =     -30.25931418 Ry
     estimated scf accuracy    <       0.00354421 Ry

     iteration #  6     ecut=    50.00 Ry     beta= 0.01
     Davidson diagonalization with overlap
     ethr =  4.43E-05,  avg # of iterations =  1.0

     total cpu time spent up to now is       12.8 secs

     total energy              =     -30.25855462 Ry
     estimated scf accuracy    <       0.00233608 Ry

     iteration #  7     ecut=    50.00 Ry     beta= 0.01
     Davidson diagonalization with overlap
     ethr =  2.92E-05,  avg # of iterations =  2.0

     total cpu time spent up to now is       15.1 secs

     total energy              =     -30.25890395 Ry
     estimated scf accuracy    <       0.00028271 Ry

     iteration #  8     ecut=    50.00 Ry     beta= 0.01
     Davidson diagonalization with overlap
     ethr =  3.53E-06,  avg # of iterations =  1.0

     total cpu time spent up to now is       16.7 secs

     total energy              =     -30.25893824 Ry
     estimated scf accuracy    <       0.00048543 Ry

     iteration #  9     ecut=    50.00 Ry     beta= 0.01
     Davidson diagonalization with overlap
     ethr =  3.53E-06,  avg # of iterations =  1.0

     total cpu time spent up to now is       18.3 secs

     total energy              =     -30.25887639 Ry
     estimated scf accuracy    <       0.00047236 Ry

     iteration # 10     ecut=    50.00 Ry     beta= 0.01
     Davidson diagonalization with overlap
     ethr =  3.53E-06,  avg # of iterations =  1.0

     total cpu time spent up to now is       20.1 secs

     total energy              =     -30.25889195 Ry
     estimated scf accuracy    <       0.00000441 Ry

     iteration # 11     ecut=    50.00 Ry     beta= 0.01
     Davidson diagonalization with overlap
     ethr =  5.51E-08,  avg # of iterations =  1.7

     total cpu time spent up to now is       22.0 secs

     total energy              =     -30.25889232 Ry
     estimated scf accuracy    <       0.00000627 Ry

     iteration # 12     ecut=    50.00 Ry     beta= 0.01
     Davidson diagonalization with overlap
     ethr =  5.51E-08,  avg # of iterations =  1.0

     total cpu time spent up to now is       23.6 secs

     total energy              =     -30.25889196 Ry
     estimated scf accuracy    <       0.00000589 Ry

     iteration # 13     ecut=    50.00 Ry     beta= 0.01
     Davidson diagonalization with overlap
     ethr =  5.51E-08,  avg # of iterations =  1.0

     total cpu time spent up to now is       25.1 secs

     total energy              =     -30.25889129 Ry
     estimated scf accuracy    <       0.00000266 Ry

     iteration # 14     ecut=    50.00 Ry     beta= 0.01
     Davidson diagonalization with overlap
     ethr =  3.32E-08,  avg # of iterations =  2.0

     total cpu time spent up to now is       27.0 secs

     End of self-consistent calculation

          k = 0.0000 0.0000 0.0000 (   531 PWs)   bands (ev):

    -6.2106  14.8456  14.8456  14.8456

          k =-0.1000 0.1000-0.1000 (   534 PWs)   bands (ev):

    -6.0170  13.7007  14.6897  14.6897

          k =-0.2000 0.2000-0.2000 (   537 PWs)   bands (ev):

    -5.4567  11.1457  14.3435  14.3435

          k =-0.3000 0.3000-0.3000 (   537 PWs)   bands (ev):

    -4.6129   8.3957  14.0108  14.0108

          k =-0.4000 0.4000-0.4000 (   547 PWs)   bands (ev):

    -3.7198   6.2247  13.8018  13.8018

          k = 0.5000-0.5000 0.5000 (   544 PWs)   bands (ev):

    -3.2896   5.3509  13.7343  13.7343

          k = 0.0000 0.2000 0.0000 (   532 PWs)   bands (ev):

    -5.9491  14.0917  14.0917  14.3659

          k =-0.1000 0.3000-0.1000 (   544 PWs)   bands (ev):

    -5.5005  12.0495  13.4574  14.2226

          k =-0.2000 0.4000-0.2000 (   535 PWs)   bands (ev):

    -4.7264   9.3188  13.0281  13.7091

          k =-0.3000 0.5000-0.3000 (   532 PWs)   bands (ev):

    -3.7954   6.8935  12.9153  13.0388

          k = 0.6000-0.4000 0.6000 (   537 PWs)   bands (ev):

    -3.1313   5.5081  12.4662  13.1316

          k = 0.5000-0.3000 0.5000 (   538 PWs)   bands (ev):

    -3.2909   5.8230  12.1385  13.6104

          k = 0.4000-0.2000 0.4000 (   539 PWs)   bands (ev):

    -4.1167   7.6632  12.1300  14.2112

          k = 0.3000-0.1000 0.3000 (   540 PWs)   bands (ev):

    -5.0247  10.2870  12.4624  14.7330

          k = 0.2000 0.0000 0.2000 (   537 PWs)   bands (ev):

    -5.6970  12.7811  13.2508  14.9436

          k = 0.0000 0.4000 0.0000 (   536 PWs)   bands (ev):

    -5.1519  12.4243  12.5650  12.5650

          k =-0.1000 0.5000-0.1000 (   535 PWs)   bands (ev):

    -4.4481  10.0222  11.9488  12.0769

          k =-0.2000 0.6000-0.2000 (   533 PWs)   bands (ev):

    -3.5082   7.5760  11.1132  11.7285

          k = 0.7000-0.3000 0.7000 (   532 PWs)   bands (ev):

    -2.6696   5.8572  10.2182  11.9366

          k = 0.6000-0.2000 0.6000 (   531 PWs)   bands (ev):

    -2.5602   5.6837   9.6473  12.5413

          k = 0.5000-0.1000 0.5000 (   539 PWs)   bands (ev):

    -3.2936   7.2097   9.4748  13.4261

          k = 0.4000 0.0000 0.4000 (   532 PWs)   bands (ev):

    -4.2525   9.6462   9.7788  14.3176

          k = 0.0000 0.6000 0.0000 (   548 PWs)   bands (ev):

    -3.8026   9.0658  11.1453  11.1453

          k =-0.1000 0.7000-0.1000 (   535 PWs)   bands (ev):

    -2.8777   7.1501  10.2125  10.7615

          k = 0.8000-0.2000 0.8000 (   528 PWs)   bands (ev):

    -1.9512   5.6276   8.9667  10.8443

          k = 0.7000-0.1000 0.7000 (   531 PWs)   bands (ev):

    -1.6645   5.3356   8.0284  11.3857

          k = 0.6000-0.0000 0.6000 (   530 PWs)   bands (ev):

    -2.3177   6.5098   7.7630  12.3146

          k = 0.0000 0.8000 0.0000 (   532 PWs)   bands (ev):

    -1.9859   5.5704  10.2065  10.2065

          k = 0.9000-0.1000 0.9000 (   531 PWs)   bands (ev):

    -1.1219   4.3524   9.4211  10.1285

          k = 0.8000 0.0000 0.8000 (   538 PWs)   bands (ev):

    -0.9693   4.3657   8.3219  10.5356

          k = 0.0000-1.0000 0.0000 (   524 PWs)   bands (ev):

    -0.6662   3.6295   9.8822   9.8822

          k =-0.2000 0.4000 0.0000 (   540 PWs)   bands (ev):

    -4.9292  11.0059  11.5976  13.9568

          k =-0.3000 0.5000-0.1000 (   533 PWs)   bands (ev):

    -4.0624   8.5717  10.7993  13.4085

          k = 0.6000-0.4000 0.8000 (   538 PWs)   bands (ev):

    -3.1317   6.4062  10.5092  12.8110

          k = 0.5000-0.3000 0.7000 (   542 PWs)   bands (ev):

    -2.6759   5.5152  10.4351  12.5604

          k =-0.2000 0.6000 0.0000 (   537 PWs)   bands (ev):

    -3.6358   8.6290  10.0935  11.8895

          k = 0.7000-0.3000 0.9000 (   534 PWs)   bands (ev):

    -2.6610   6.7956   8.9854  11.5700

          k = 0.6000-0.2000 0.8000 (   535 PWs)   bands (ev):

    -1.9883   5.6519   8.3590  11.5803

          k = 0.5000-0.1000 0.7000 (   533 PWs)   bands (ev):

    -2.2303   6.1757   8.0728  12.0227

          k = 0.4000 0.0000 0.6000 (   533 PWs)   bands (ev):

    -3.1320   8.1262   8.1735  12.7524

          k = 0.8000-0.2000 1.0000 (   524 PWs)   bands (ev):

    -1.9295   5.6907   9.1095  10.6152

          k = 0.7000-0.1000 0.9000 (   530 PWs)   bands (ev):

    -1.2198   4.9142   7.9231  10.7293

          k = 0.6000 0.0000 0.8000 (   529 PWs)   bands (ev):

    -1.3876   5.4449   7.2083  11.2244

          k =-0.2000-1.0000 0.0000 (   528 PWs)   bands (ev):

    -0.7638   3.9983   8.7711  10.2303

          k = 0.6000-0.2000 1.0000 (   539 PWs)   bands (ev):

    -1.7392   6.2097   7.1377  11.2747

          k = 0.5000-0.1000 0.9000 (   530 PWs)   bands (ev):

    -1.2803   5.8112   6.5420  11.1311

          k =-0.4000-1.0000 0.0000 (   526 PWs)   bands (ev):

    -0.9140   5.0818   6.7834  10.8152

     highest occupied level (ev):    14.9436

!    total energy              =     -30.25889166 Ry
     estimated scf accuracy    <       0.00000004 Ry

     The total energy is the sum of the following terms:
     one-electron contribution =       8.96021257 Ry
     hartree contribution      =       2.16543993 Ry
     xc contribution           =      -6.94801396 Ry
     ewald contribution        =     -34.43653021 Ry

     convergence has been achieved in  14 iterations
     Writing meta-gga kinetic term

     Writing all to output data dir ./input_pw/LiCl/1/pwscf.save/
     Writing meta-gga kinetic term
 
     init_run     :      0.92s CPU      2.52s WALL (       1 calls)
     electrons    :      9.78s CPU     24.31s WALL (       1 calls)

     Called by init_run:
     wfcinit      :      0.82s CPU      2.15s WALL (       1 calls)
     potinit      :      0.01s CPU      0.03s WALL (       1 calls)
     hinit0       :      0.09s CPU      0.31s WALL (       1 calls)

     Called by electrons:
     c_bands      :      7.75s CPU     19.27s WALL (      14 calls)
     sum_band     :      1.84s CPU      4.59s WALL (      14 calls)
     v_of_rho     :      0.13s CPU      0.28s WALL (      15 calls)
     mix_rho      :      0.08s CPU      0.17s WALL (      14 calls)

     Called by c_bands:
     init_us_2    :      0.10s CPU      0.23s WALL (    1363 calls)
     init_us_2:cp :      0.10s CPU      0.23s WALL (    1363 calls)
     cegterg      :      7.65s CPU     19.09s WALL (     658 calls)

     Called by *egterg:
     cdiaghg      :      0.08s CPU      0.24s WALL (    1492 calls)
     h_psi        :      8.22s CPU     20.59s WALL (    1539 calls)
     g_psi        :      0.01s CPU      0.01s WALL (     834 calls)

     Called by h_psi:
     h_psi:calbec :      0.03s CPU      0.04s WALL (    1539 calls)
     vloc_psi     :      2.02s CPU      5.08s WALL (    1539 calls)
     add_vuspsi   :      0.03s CPU      0.07s WALL (    1539 calls)
     h_psi_meta   :      6.12s CPU     15.34s WALL (    1539 calls)

     General routines
     calbec       :      0.02s CPU      0.03s WALL (    1539 calls)
     fft          :      0.02s CPU      0.07s WALL (     177 calls)
     ffts         :      0.04s CPU      0.12s WALL (     269 calls)
     fftw         :      8.86s CPU     22.10s WALL (   61912 calls)
     interpolate  :      0.00s CPU      0.00s WALL (      15 calls)
 
     Parallel routines
 
     PWSCF        :     10.76s CPU     27.00s WALL

 
   This run was terminated on:  14:29: 9  14Mar2023            

=------------------------------------------------------------------------------=
   JOB DONE.
=------------------------------------------------------------------------------=
