
     Program PWSCF v.7.0 starts on 29Mar2023 at 10:21:34 

     This program is part of the open-source Quantum ESPRESSO suite
     for quantum simulation of materials; please cite
         "P. Giannozzi et al., J. Phys.:Condens. Matter 21 395502 (2009);
         "P. Giannozzi et al., J. Phys.:Condens. Matter 29 465901 (2017);
         "P. Giannozzi et al., J. Chem. Phys. 152 154105 (2020);
          URL http://www.quantum-espresso.org", 
     in publications or presentations arising from this work. More details at
     http://www.quantum-espresso.org/quote

     Parallel version (MPI), running on     1 processors

     MPI processes distributed on     1 nodes
     24208 MiB available memory on the printing compute node when the environment starts
 
     Waiting for input...
     Reading input from standard input
Warning: card &CELL ignored
Warning: card / ignored

     Current dimensions of program PWSCF are:
     Max number of different atomic species (ntypx) = 10
     Max number of k-points (npk) =  40000
     Max angular momentum in pseudopotentials (lmaxx) =  4
     file Cl.SCAN.UPF2: wavefunction(s)  0D renormalized

     WARNING: the MGGA functional with ID    5 has been 
     read together with other dft terms, but it should 
     stand alone in order to work properly. The other 
     terms will be ignored.

     WARNING: the MGGA functional with ID    5 has been 
     read together with other dft terms, but it should 
     stand alone in order to work properly. The other 
     terms will be ignored.

     Subspace diagonalization in iterative solution of the eigenvalue problem:
     a serial algorithm will be used

 
     G-vector sticks info
     --------------------
     sticks:   dense  smooth     PW     G-vecs:    dense   smooth      PW
     Sum         475     475    151                 6855     6855    1243
 
     Using Slab Decomposition
 


     bravais-lattice index     =            2
     lattice parameter (alat)  =       8.3039  a.u.
     unit-cell volume          =     143.1466 (a.u.)^3
     number of atoms/cell      =            2
     number of atomic types    =            2
     number of electrons       =         8.00
     number of Kohn-Sham states=            4
     kinetic-energy cutoff     =      50.0000  Ry
     charge density cutoff     =     200.0000  Ry
     scf convergence threshold =      1.0E-06
     mixing beta               =       0.0100
     number of iterations used =            8  local-TF  mixing
     Exchange-correlation= SLA  PW   SCAN SCAN
                           (   0   0   0   0   0 263 267)

     celldm(1)=   8.303867  celldm(2)=   0.000000  celldm(3)=   0.000000
     celldm(4)=   0.000000  celldm(5)=   0.000000  celldm(6)=   0.000000

     crystal axes: (cart. coord. in units of alat)
               a(1) = (  -0.500000   0.000000   0.500000 )  
               a(2) = (   0.000000   0.500000   0.500000 )  
               a(3) = (  -0.500000   0.500000   0.000000 )  

     reciprocal axes: (cart. coord. in units 2 pi/alat)
               b(1) = ( -1.000000 -1.000000  1.000000 )  
               b(2) = (  1.000000  1.000000  1.000000 )  
               b(3) = ( -1.000000  1.000000 -1.000000 )  


     PseudoPot. # 1 for Li read from file:
     ~/Documents/TA/PWDFT.jl/pseudopotentials/scan_upf/Li.SCAN.UPF2
     MD5 check sum: Not computed, couldn't open file
     Pseudo is Norm-conserving, Zval =  1.0
     Generated by new atomic code, or converted to UPF format
     Using radial grid of 1321 points,  1 beta functions with: 
                l(1) =   0

     PseudoPot. # 2 for Cl read from file:
     ~/Documents/TA/PWDFT.jl/pseudopotentials/scan_upf/Cl.SCAN.UPF2
     MD5 check sum: Not computed, couldn't open file
     Pseudo is Norm-conserving, Zval =  7.0
     Generated by new atomic code, or converted to UPF format
     Using radial grid of 1493 points,  2 beta functions with: 
                l(1) =   0
                l(2) =   1

     atomic species   valence    mass     pseudopotential
        Li             1.00     6.94100     Li( 1.00)
        Cl             7.00    35.45300     Cl( 1.00)

     48 Sym. Ops., with inversion, found



   Cartesian axes

     site n.     atom                  positions (alat units)
         1           Li  tau(   1) = (   0.0000000   0.0000000   0.0000000  )
         2           Cl  tau(   2) = (   0.5000000   0.5000000   0.5000000  )

     number of k points=    47
                       cart. coord. in units 2pi/alat
        k(    1) = (   0.0000000   0.0000000   0.0000000), wk =   0.0020000
        k(    2) = (  -0.1000000   0.1000000  -0.1000000), wk =   0.0160000
        k(    3) = (  -0.2000000   0.2000000  -0.2000000), wk =   0.0160000
        k(    4) = (  -0.3000000   0.3000000  -0.3000000), wk =   0.0160000
        k(    5) = (  -0.4000000   0.4000000  -0.4000000), wk =   0.0160000
        k(    6) = (   0.5000000  -0.5000000   0.5000000), wk =   0.0080000
        k(    7) = (   0.0000000   0.2000000   0.0000000), wk =   0.0120000
        k(    8) = (  -0.1000000   0.3000000  -0.1000000), wk =   0.0480000
        k(    9) = (  -0.2000000   0.4000000  -0.2000000), wk =   0.0480000
        k(   10) = (  -0.3000000   0.5000000  -0.3000000), wk =   0.0480000
        k(   11) = (   0.6000000  -0.4000000   0.6000000), wk =   0.0480000
        k(   12) = (   0.5000000  -0.3000000   0.5000000), wk =   0.0480000
        k(   13) = (   0.4000000  -0.2000000   0.4000000), wk =   0.0480000
        k(   14) = (   0.3000000  -0.1000000   0.3000000), wk =   0.0480000
        k(   15) = (   0.2000000   0.0000000   0.2000000), wk =   0.0240000
        k(   16) = (   0.0000000   0.4000000   0.0000000), wk =   0.0120000
        k(   17) = (  -0.1000000   0.5000000  -0.1000000), wk =   0.0480000
        k(   18) = (  -0.2000000   0.6000000  -0.2000000), wk =   0.0480000
        k(   19) = (   0.7000000  -0.3000000   0.7000000), wk =   0.0480000
        k(   20) = (   0.6000000  -0.2000000   0.6000000), wk =   0.0480000
        k(   21) = (   0.5000000  -0.1000000   0.5000000), wk =   0.0480000
        k(   22) = (   0.4000000   0.0000000   0.4000000), wk =   0.0240000
        k(   23) = (   0.0000000   0.6000000   0.0000000), wk =   0.0120000
        k(   24) = (  -0.1000000   0.7000000  -0.1000000), wk =   0.0480000
        k(   25) = (   0.8000000  -0.2000000   0.8000000), wk =   0.0480000
        k(   26) = (   0.7000000  -0.1000000   0.7000000), wk =   0.0480000
        k(   27) = (   0.6000000  -0.0000000   0.6000000), wk =   0.0240000
        k(   28) = (   0.0000000   0.8000000   0.0000000), wk =   0.0120000
        k(   29) = (   0.9000000  -0.1000000   0.9000000), wk =   0.0480000
        k(   30) = (   0.8000000   0.0000000   0.8000000), wk =   0.0240000
        k(   31) = (   0.0000000  -1.0000000   0.0000000), wk =   0.0060000
        k(   32) = (  -0.2000000   0.4000000   0.0000000), wk =   0.0480000
        k(   33) = (  -0.3000000   0.5000000  -0.1000000), wk =   0.0960000
        k(   34) = (   0.6000000  -0.4000000   0.8000000), wk =   0.0960000
        k(   35) = (   0.5000000  -0.3000000   0.7000000), wk =   0.0480000
        k(   36) = (  -0.2000000   0.6000000   0.0000000), wk =   0.0480000
        k(   37) = (   0.7000000  -0.3000000   0.9000000), wk =   0.0960000
        k(   38) = (   0.6000000  -0.2000000   0.8000000), wk =   0.0960000
        k(   39) = (   0.5000000  -0.1000000   0.7000000), wk =   0.0960000
        k(   40) = (   0.4000000   0.0000000   0.6000000), wk =   0.0480000
        k(   41) = (   0.8000000  -0.2000000   1.0000000), wk =   0.0480000
        k(   42) = (   0.7000000  -0.1000000   0.9000000), wk =   0.0960000
        k(   43) = (   0.6000000   0.0000000   0.8000000), wk =   0.0480000
        k(   44) = (  -0.2000000  -1.0000000   0.0000000), wk =   0.0240000
        k(   45) = (   0.6000000  -0.2000000   1.0000000), wk =   0.0480000
        k(   46) = (   0.5000000  -0.1000000   0.9000000), wk =   0.0480000
        k(   47) = (  -0.4000000  -1.0000000   0.0000000), wk =   0.0240000

     Dense  grid:     6855 G-vectors     FFT dimensions: (  27,  27,  27)

     Estimated max dynamical RAM per process >      12.99 MB

     WARNING: libxc functional with ID  263 depends
      on external parameters: check the user_guide of
      QE if you need to modify them or to check their
      default values.

     Initial potential from superposition of free atoms

     starting charge       7.9953, renormalised to       8.0000
     Starting wfcs are   13 randomized atomic wfcs

     total cpu time spent up to now is        3.2 secs

     Self-consistent Calculation

     iteration #  1     ecut=    50.00 Ry     beta= 0.01
     Davidson diagonalization with overlap
     ethr =  1.00E-02,  avg # of iterations =  1.1

     total cpu time spent up to now is        5.3 secs

     total energy              =     -30.54706119 Ry
     estimated scf accuracy    <       0.36723245 Ry

     iteration #  2     ecut=    50.00 Ry     beta= 0.01
     Davidson diagonalization with overlap
     ethr =  4.59E-03,  avg # of iterations =  1.0

     total cpu time spent up to now is        7.3 secs

     total energy              =     -30.57327884 Ry
     estimated scf accuracy    <       0.34829966 Ry

     iteration #  3     ecut=    50.00 Ry     beta= 0.01
     Davidson diagonalization with overlap
     ethr =  4.35E-03,  avg # of iterations =  1.0

     total cpu time spent up to now is        9.2 secs

     total energy              =     -30.64055302 Ry
     estimated scf accuracy    <       0.27611431 Ry

     iteration #  4     ecut=    50.00 Ry     beta= 0.01
     Davidson diagonalization with overlap
     ethr =  3.45E-03,  avg # of iterations =  1.0

     total cpu time spent up to now is       11.2 secs

     total energy              =     -30.64262190 Ry
     estimated scf accuracy    <       0.00323805 Ry

     iteration #  5     ecut=    50.00 Ry     beta= 0.01
     Davidson diagonalization with overlap
     ethr =  4.05E-05,  avg # of iterations =  1.0

     total cpu time spent up to now is       13.2 secs

     total energy              =     -30.64274221 Ry
     estimated scf accuracy    <       0.00348064 Ry

     iteration #  6     ecut=    50.00 Ry     beta= 0.01
     Davidson diagonalization with overlap
     ethr =  4.05E-05,  avg # of iterations =  1.0

     total cpu time spent up to now is       15.2 secs

     total energy              =     -30.64244231 Ry
     estimated scf accuracy    <       0.00337751 Ry

     iteration #  7     ecut=    50.00 Ry     beta= 0.01
     Davidson diagonalization with overlap
     ethr =  4.05E-05,  avg # of iterations =  1.0

     total cpu time spent up to now is       17.2 secs

     total energy              =     -30.64187751 Ry
     estimated scf accuracy    <       0.00165624 Ry

     iteration #  8     ecut=    50.00 Ry     beta= 0.01
     Davidson diagonalization with overlap
     ethr =  2.07E-05,  avg # of iterations =  2.0

     total cpu time spent up to now is       20.1 secs

     total energy              =     -30.64238317 Ry
     estimated scf accuracy    <       0.00138862 Ry

     iteration #  9     ecut=    50.00 Ry     beta= 0.01
     Davidson diagonalization with overlap
     ethr =  1.74E-05,  avg # of iterations =  1.0

     total cpu time spent up to now is       22.4 secs

     total energy              =     -30.64227941 Ry
     estimated scf accuracy    <       0.00124054 Ry

     iteration # 10     ecut=    50.00 Ry     beta= 0.01
     Davidson diagonalization with overlap
     ethr =  1.55E-05,  avg # of iterations =  1.0

     total cpu time spent up to now is       24.7 secs

     total energy              =     -30.64227726 Ry
     estimated scf accuracy    <       0.00035298 Ry

     iteration # 11     ecut=    50.00 Ry     beta= 0.01
     Davidson diagonalization with overlap
     ethr =  4.41E-06,  avg # of iterations =  1.0

     total cpu time spent up to now is       26.7 secs

     total energy              =     -30.64228676 Ry
     estimated scf accuracy    <       0.00000422 Ry

     iteration # 12     ecut=    50.00 Ry     beta= 0.01
     Davidson diagonalization with overlap
     ethr =  5.28E-08,  avg # of iterations =  2.0

     total cpu time spent up to now is       29.4 secs

     total energy              =     -30.64228741 Ry
     estimated scf accuracy    <       0.00000324 Ry

     iteration # 13     ecut=    50.00 Ry     beta= 0.01
     Davidson diagonalization with overlap
     ethr =  4.05E-08,  avg # of iterations =  1.0

     total cpu time spent up to now is       31.4 secs

     total energy              =     -30.64228977 Ry
     estimated scf accuracy    <       0.00000212 Ry

     iteration # 14     ecut=    50.00 Ry     beta= 0.01
     Davidson diagonalization with overlap
     ethr =  2.65E-08,  avg # of iterations =  2.0

     total cpu time spent up to now is       34.2 secs

     End of self-consistent calculation

          k = 0.0000 0.0000 0.0000 (   869 PWs)   bands (ev):

   -10.2245   6.1942   6.1942   6.1942

          k =-0.1000 0.1000-0.1000 (   881 PWs)   bands (ev):

   -10.1029   5.5646   6.1312   6.1312

          k =-0.2000 0.2000-0.2000 (   872 PWs)   bands (ev):

    -9.7604   4.1003   5.9781   5.9781

          k =-0.3000 0.3000-0.3000 (   854 PWs)   bands (ev):

    -9.2773   2.4899   5.8093   5.8093

          k =-0.4000 0.4000-0.4000 (   847 PWs)   bands (ev):

    -8.8185   1.2515   5.6871   5.6871

          k = 0.5000-0.5000 0.5000 (   862 PWs)   bands (ev):

    -8.6214   0.7794   5.6434   5.6434

          k = 0.0000 0.2000 0.0000 (   881 PWs)   bands (ev):

   -10.0611   5.7456   5.8984   5.8984

          k =-0.1000 0.3000-0.1000 (   866 PWs)   bands (ev):

    -9.7878   4.5736   5.6203   5.8394

          k =-0.2000 0.4000-0.2000 (   858 PWs)   bands (ev):

    -9.3423   3.0103   5.4085   5.6200

          k =-0.3000 0.5000-0.3000 (   854 PWs)   bands (ev):

    -8.8576   1.6467   5.3091   5.3324

          k = 0.6000-0.4000 0.6000 (   857 PWs)   bands (ev):

    -8.5537   0.9126   5.0342   5.4100

          k = 0.5000-0.3000 0.5000 (   851 PWs)   bands (ev):

    -8.6229   1.0792   4.8850   5.6134

          k = 0.4000-0.2000 0.4000 (   857 PWs)   bands (ev):

    -9.0172   2.0795   4.9097   5.8772

          k = 0.3000-0.1000 0.3000 (   859 PWs)   bands (ev):

    -9.5091   3.5508   5.1241   6.1091

          k = 0.2000 0.0000 0.2000 (   875 PWs)   bands (ev):

    -9.9058   4.9211   5.5678   6.2124

          k = 0.0000 0.4000 0.0000 (   861 PWs)   bands (ev):

    -9.5858   4.4471   5.2097   5.2097

          k =-0.1000 0.5000-0.1000 (   856 PWs)   bands (ev):

    -9.1962   3.2576   4.8822   4.8993

          k =-0.2000 0.6000-0.2000 (   853 PWs)   bands (ev):

    -8.7258   2.0100   4.3796   4.7774

          k = 0.7000-0.3000 0.7000 (   852 PWs)   bands (ev):

    -8.3648   1.2082   3.8561   4.8733

          k = 0.6000-0.2000 0.6000 (   847 PWs)   bands (ev):

    -8.3221   1.1733   3.5025   5.1630

          k = 0.5000-0.1000 0.5000 (   854 PWs)   bands (ev):

    -8.6259   1.9189   3.4399   5.5660

          k = 0.4000 0.0000 0.4000 (   857 PWs)   bands (ev):

    -9.0895   2.9306   3.9277   5.9395

          k = 0.0000 0.6000 0.0000 (   853 PWs)   bands (ev):

    -8.8695   2.6365   4.4826   4.4826

          k =-0.1000 0.7000-0.1000 (   851 PWs)   bands (ev):

    -8.4510   1.7216   3.9943   4.2726

          k = 0.8000-0.2000 0.8000 (   851 PWs)   bands (ev):

    -8.1024   1.1593   3.2428   4.3145

          k = 0.7000-0.1000 0.7000 (   845 PWs)   bands (ev):

    -8.0101   1.2536   2.5310   4.6003

          k = 0.6000-0.0000 0.6000 (   859 PWs)   bands (ev):

    -8.2299   2.0617   2.0851   5.0652

          k = 0.0000 0.8000 0.0000 (   850 PWs)   bands (ev):

    -8.1154   0.9925   3.9656   3.9656

          k = 0.9000-0.1000 0.9000 (   850 PWs)   bands (ev):

    -7.8590   0.5845   3.5393   3.9210

          k = 0.8000 0.0000 0.8000 (   842 PWs)   bands (ev):

    -7.8186   0.7669   2.8399   4.1473

          k = 0.0000-1.0000 0.0000 (   846 PWs)   bands (ev):

    -7.7566   0.2994   3.7815   3.7815

          k =-0.2000 0.4000 0.0000 (   854 PWs)   bands (ev):

    -9.4570   3.7824   4.8107   5.7553

          k =-0.3000 0.5000-0.1000 (   854 PWs)   bands (ev):

    -8.9929   2.5453   4.2692   5.5324

          k = 0.6000-0.4000 0.8000 (   853 PWs)   bands (ev):

    -8.5548   1.4523   4.0450   5.2597

          k = 0.5000-0.3000 0.7000 (   852 PWs)   bands (ev):

    -8.3672   1.0230   3.9873   5.1386

          k =-0.2000 0.6000 0.0000 (   848 PWs)   bands (ev):

    -8.7872   2.4344   4.0251   4.8092

          k = 0.7000-0.3000 0.9000 (   852 PWs)   bands (ev):

    -8.3610   1.6409   3.3645   4.6168

          k = 0.6000-0.2000 0.8000 (   852 PWs)   bands (ev):

    -8.1145   1.2637   2.8887   4.6091

          k = 0.5000-0.1000 0.7000 (   854 PWs)   bands (ev):

    -8.1981   1.5493   2.6659   4.8515

          k = 0.4000 0.0000 0.6000 (   855 PWs)   bands (ev):

    -8.5557   2.1623   3.0427   5.2309

          k = 0.8000-0.2000 1.0000 (   858 PWs)   bands (ev):

    -8.0951   1.1174   3.4731   4.1043

          k = 0.7000-0.1000 0.9000 (   854 PWs)   bands (ev):

    -7.8801   0.9810   2.7641   4.1169

          k = 0.6000 0.0000 0.8000 (   849 PWs)   bands (ev):

    -7.9254   1.4366   2.1323   4.3991

          k =-0.2000-1.0000 0.0000 (   848 PWs)   bands (ev):

    -7.7722   0.5341   3.2775   3.8678

          k = 0.6000-0.2000 1.0000 (   856 PWs)   bands (ev):

    -8.0301   1.5068   2.4339   4.3520

          k = 0.5000-0.1000 0.9000 (   856 PWs)   bands (ev):

    -7.8931   1.5588   1.9896   4.2214

          k =-0.4000-1.0000 0.0000 (   862 PWs)   bands (ev):

    -7.7977   1.2105   2.2202   4.0095

     highest occupied level (ev):     6.2124

!    total energy              =     -30.64229003 Ry
     estimated scf accuracy    <       0.00000011 Ry

     The total energy is the sum of the following terms:
     one-electron contribution =       1.56759022 Ry
     hartree contribution      =       3.81686697 Ry
     xc contribution           =      -6.58270936 Ry
     ewald contribution        =     -29.44403786 Ry

     convergence has been achieved in  14 iterations
     Writing meta-gga kinetic term

     Writing all to output data dir ./input_pw/LiCl/1/pwscf.save/
     Writing meta-gga kinetic term
 
     init_run     :      1.35s CPU      3.14s WALL (       1 calls)
     electrons    :     14.89s CPU     31.01s WALL (       1 calls)

     Called by init_run:
     wfcinit      :      1.24s CPU      2.79s WALL (       1 calls)
     potinit      :      0.01s CPU      0.11s WALL (       1 calls)
     hinit0       :      0.09s CPU      0.23s WALL (       1 calls)

     Called by electrons:
     c_bands      :     11.68s CPU     24.38s WALL (      14 calls)
     sum_band     :      2.87s CPU      5.96s WALL (      14 calls)
     v_of_rho     :      0.19s CPU      0.45s WALL (      15 calls)
     mix_rho      :      0.15s CPU      0.28s WALL (      14 calls)

     Called by c_bands:
     init_us_2    :      0.16s CPU      0.26s WALL (    1363 calls)
     init_us_2:cp :      0.15s CPU      0.25s WALL (    1363 calls)
     cegterg      :     11.53s CPU     24.14s WALL (     658 calls)

     Called by *egterg:
     cdiaghg      :      0.09s CPU      0.15s WALL (    1459 calls)
     h_psi        :     12.45s CPU     26.37s WALL (    1506 calls)
     g_psi        :      0.01s CPU      0.01s WALL (     801 calls)

     Called by h_psi:
     h_psi:calbec :      0.05s CPU      0.12s WALL (    1506 calls)
     vloc_psi     :      3.07s CPU      6.67s WALL (    1506 calls)
     add_vuspsi   :      0.04s CPU      0.10s WALL (    1506 calls)
     h_psi_meta   :      9.26s CPU     19.45s WALL (    1506 calls)

     General routines
     calbec       :      0.04s CPU      0.11s WALL (    1506 calls)
     fft          :      0.04s CPU      0.15s WALL (     177 calls)
     ffts         :      0.06s CPU      0.12s WALL (     295 calls)
     fftw         :     13.38s CPU     28.55s WALL (   61568 calls)
     interpolate  :      0.00s CPU      0.00s WALL (      15 calls)
 
     Parallel routines
 
     PWSCF        :     16.29s CPU     34.22s WALL

 
   This run was terminated on:  10:22: 8  29Mar2023            

=------------------------------------------------------------------------------=
   JOB DONE.
=------------------------------------------------------------------------------=
