
     Program PWSCF v.7.0 starts on  7Jul2023 at 14:23:45 

     This program is part of the open-source Quantum ESPRESSO suite
     for quantum simulation of materials; please cite
         "P. Giannozzi et al., J. Phys.:Condens. Matter 21 395502 (2009);
         "P. Giannozzi et al., J. Phys.:Condens. Matter 29 465901 (2017);
         "P. Giannozzi et al., J. Chem. Phys. 152 154105 (2020);
          URL http://www.quantum-espresso.org", 
     in publications or presentations arising from this work. More details at
     http://www.quantum-espresso.org/quote

     Parallel version (MPI), running on     1 processors

     MPI processes distributed on     1 nodes
     26853 MiB available memory on the printing compute node when the environment starts
 
     Waiting for input...
     Reading input from standard input
Warning: card &CELL ignored
Warning: card / ignored

     Current dimensions of program PWSCF are:
     Max number of different atomic species (ntypx) = 10
     Max number of k-points (npk) =  40000
     Max angular momentum in pseudopotentials (lmaxx) =  4

     WARNING: the MGGA functional with ID    5 has been 
     read together with other dft terms, but it should 
     stand alone in order to work properly. The other 
     terms will be ignored.

     WARNING: the MGGA functional with ID    5 has been 
     read together with other dft terms, but it should 
     stand alone in order to work properly. The other 
     terms will be ignored.

     Subspace diagonalization in iterative solution of the eigenvalue problem:
     a serial algorithm will be used

 
     G-vector sticks info
     --------------------
     sticks:   dense  smooth     PW     G-vecs:    dense   smooth      PW
     Sum         547     547    163                 8363     8363    1459
 
     Using Slab Decomposition
 


     bravais-lattice index     =            2
     lattice parameter (alat)  =       8.8842  a.u.
     unit-cell volume          =     175.3072 (a.u.)^3
     number of atoms/cell      =            2
     number of atomic types    =            2
     number of electrons       =         8.00
     number of Kohn-Sham states=            4
     kinetic-energy cutoff     =      50.0000  Ry
     charge density cutoff     =     200.0000  Ry
     scf convergence threshold =      2.0E-05
     mixing beta               =       0.2000
     number of iterations used =            8  local-TF  mixing
     Exchange-correlation= SLA  PW   SCAN SCAN
                           (   0   0   0   0   0 263 267)

     celldm(1)=   8.884232  celldm(2)=   0.000000  celldm(3)=   0.000000
     celldm(4)=   0.000000  celldm(5)=   0.000000  celldm(6)=   0.000000

     crystal axes: (cart. coord. in units of alat)
               a(1) = (  -0.500000   0.000000   0.500000 )  
               a(2) = (   0.000000   0.500000   0.500000 )  
               a(3) = (  -0.500000   0.500000   0.000000 )  

     reciprocal axes: (cart. coord. in units 2 pi/alat)
               b(1) = ( -1.000000 -1.000000  1.000000 )  
               b(2) = (  1.000000  1.000000  1.000000 )  
               b(3) = ( -1.000000  1.000000 -1.000000 )  


     PseudoPot. # 1 for Li read from file:
     ~/Documents/TA/PWDFT.jl/pseudopotentials/scan_upf/Li.SCAN.UPF2
     MD5 check sum: Not computed, couldn't open file
     Pseudo is Norm-conserving, Zval =  1.0
     Generated by new atomic code, or converted to UPF format
     Using radial grid of 1321 points,  1 beta functions with: 
                l(1) =   0

     PseudoPot. # 2 for F  read from file:
     ~/Documents/TA/PWDFT.jl/pseudopotentials/scan_upf/F.SCAN.UPF2
     MD5 check sum: Not computed, couldn't open file
     Pseudo is Norm-conserving, Zval =  7.0
     Generated by new atomic code, or converted to UPF format
     Using radial grid of 1431 points,  1 beta functions with: 
                l(1) =   0

     atomic species   valence    mass     pseudopotential
        Li             1.00     6.94100     Li( 1.00)
        F              7.00    18.99800     F ( 1.00)

     48 Sym. Ops., with inversion, found



   Cartesian axes

     site n.     atom                  positions (alat units)
         1           Li  tau(   1) = (   0.0000000   0.0000000   0.0000000  )
         2           F   tau(   2) = (   0.5000000   0.5000000   0.5000000  )

     number of k points=    47
                       cart. coord. in units 2pi/alat
        k(    1) = (   0.0000000   0.0000000   0.0000000), wk =   0.0020000
        k(    2) = (  -0.1000000   0.1000000  -0.1000000), wk =   0.0160000
        k(    3) = (  -0.2000000   0.2000000  -0.2000000), wk =   0.0160000
        k(    4) = (  -0.3000000   0.3000000  -0.3000000), wk =   0.0160000
        k(    5) = (  -0.4000000   0.4000000  -0.4000000), wk =   0.0160000
        k(    6) = (   0.5000000  -0.5000000   0.5000000), wk =   0.0080000
        k(    7) = (   0.0000000   0.2000000   0.0000000), wk =   0.0120000
        k(    8) = (  -0.1000000   0.3000000  -0.1000000), wk =   0.0480000
        k(    9) = (  -0.2000000   0.4000000  -0.2000000), wk =   0.0480000
        k(   10) = (  -0.3000000   0.5000000  -0.3000000), wk =   0.0480000
        k(   11) = (   0.6000000  -0.4000000   0.6000000), wk =   0.0480000
        k(   12) = (   0.5000000  -0.3000000   0.5000000), wk =   0.0480000
        k(   13) = (   0.4000000  -0.2000000   0.4000000), wk =   0.0480000
        k(   14) = (   0.3000000  -0.1000000   0.3000000), wk =   0.0480000
        k(   15) = (   0.2000000   0.0000000   0.2000000), wk =   0.0240000
        k(   16) = (   0.0000000   0.4000000   0.0000000), wk =   0.0120000
        k(   17) = (  -0.1000000   0.5000000  -0.1000000), wk =   0.0480000
        k(   18) = (  -0.2000000   0.6000000  -0.2000000), wk =   0.0480000
        k(   19) = (   0.7000000  -0.3000000   0.7000000), wk =   0.0480000
        k(   20) = (   0.6000000  -0.2000000   0.6000000), wk =   0.0480000
        k(   21) = (   0.5000000  -0.1000000   0.5000000), wk =   0.0480000
        k(   22) = (   0.4000000   0.0000000   0.4000000), wk =   0.0240000
        k(   23) = (   0.0000000   0.6000000   0.0000000), wk =   0.0120000
        k(   24) = (  -0.1000000   0.7000000  -0.1000000), wk =   0.0480000
        k(   25) = (   0.8000000  -0.2000000   0.8000000), wk =   0.0480000
        k(   26) = (   0.7000000  -0.1000000   0.7000000), wk =   0.0480000
        k(   27) = (   0.6000000  -0.0000000   0.6000000), wk =   0.0240000
        k(   28) = (   0.0000000   0.8000000   0.0000000), wk =   0.0120000
        k(   29) = (   0.9000000  -0.1000000   0.9000000), wk =   0.0480000
        k(   30) = (   0.8000000   0.0000000   0.8000000), wk =   0.0240000
        k(   31) = (   0.0000000  -1.0000000   0.0000000), wk =   0.0060000
        k(   32) = (  -0.2000000   0.4000000   0.0000000), wk =   0.0480000
        k(   33) = (  -0.3000000   0.5000000  -0.1000000), wk =   0.0960000
        k(   34) = (   0.6000000  -0.4000000   0.8000000), wk =   0.0960000
        k(   35) = (   0.5000000  -0.3000000   0.7000000), wk =   0.0480000
        k(   36) = (  -0.2000000   0.6000000   0.0000000), wk =   0.0480000
        k(   37) = (   0.7000000  -0.3000000   0.9000000), wk =   0.0960000
        k(   38) = (   0.6000000  -0.2000000   0.8000000), wk =   0.0960000
        k(   39) = (   0.5000000  -0.1000000   0.7000000), wk =   0.0960000
        k(   40) = (   0.4000000   0.0000000   0.6000000), wk =   0.0480000
        k(   41) = (   0.8000000  -0.2000000   1.0000000), wk =   0.0480000
        k(   42) = (   0.7000000  -0.1000000   0.9000000), wk =   0.0960000
        k(   43) = (   0.6000000   0.0000000   0.8000000), wk =   0.0480000
        k(   44) = (  -0.2000000  -1.0000000   0.0000000), wk =   0.0240000
        k(   45) = (   0.6000000  -0.2000000   1.0000000), wk =   0.0480000
        k(   46) = (   0.5000000  -0.1000000   0.9000000), wk =   0.0480000
        k(   47) = (  -0.4000000  -1.0000000   0.0000000), wk =   0.0240000

     Dense  grid:     8363 G-vectors     FFT dimensions: (  30,  30,  30)

     Estimated max dynamical RAM per process >      15.94 MB

     WARNING: libxc functional with ID  263 depends
      on external parameters: check the user_guide of
      QE if you need to modify them or to check their
      default values.

     Initial potential from superposition of free atoms

     starting charge       7.9953, renormalised to       8.0000
     Starting wfcs are    8 randomized atomic wfcs

     total cpu time spent up to now is        2.3 secs

     Self-consistent Calculation

     iteration #  1     ecut=    50.00 Ry     beta= 0.20
     Davidson diagonalization with overlap
     ethr =  1.00E-02,  avg # of iterations =  2.0

     total cpu time spent up to now is        5.5 secs

     total energy              =     -48.59351105 Ry
     estimated scf accuracy    <      17.64968334 Ry

     iteration #  2     ecut=    50.00 Ry     beta= 0.20
     Davidson diagonalization with overlap
     ethr =  1.00E-02,  avg # of iterations =  1.0

     total cpu time spent up to now is        8.0 secs

     total energy              =     -48.59033132 Ry
     estimated scf accuracy    <      11.42830841 Ry

     iteration #  3     ecut=    50.00 Ry     beta= 0.20
     Davidson diagonalization with overlap
     ethr =  1.00E-02,  avg # of iterations =  1.0

     total cpu time spent up to now is       10.6 secs

     total energy              =     -48.59569660 Ry
     estimated scf accuracy    <       0.03338029 Ry

     iteration #  4     ecut=    50.00 Ry     beta= 0.20
     Davidson diagonalization with overlap
     ethr =  4.17E-04,  avg # of iterations =  1.0

     total cpu time spent up to now is       12.8 secs

     total energy              =     -48.59733375 Ry
     estimated scf accuracy    <       0.02736476 Ry

     iteration #  5     ecut=    50.00 Ry     beta= 0.20
     Davidson diagonalization with overlap
     ethr =  3.42E-04,  avg # of iterations =  1.0

     total cpu time spent up to now is       14.4 secs

     total energy              =     -48.59808193 Ry
     estimated scf accuracy    <       0.00298209 Ry

     iteration #  6     ecut=    50.00 Ry     beta= 0.20
     Davidson diagonalization with overlap
     ethr =  3.73E-05,  avg # of iterations =  1.0

     total cpu time spent up to now is       15.8 secs

     total energy              =     -48.59819717 Ry
     estimated scf accuracy    <       0.00172997 Ry

     iteration #  7     ecut=    50.00 Ry     beta= 0.20
     Davidson diagonalization with overlap
     ethr =  2.16E-05,  avg # of iterations =  1.0

     total cpu time spent up to now is       17.1 secs

     total energy              =     -48.59822410 Ry
     estimated scf accuracy    <       0.00022913 Ry

     iteration #  8     ecut=    50.00 Ry     beta= 0.20
     Davidson diagonalization with overlap
     ethr =  2.86E-06,  avg # of iterations =  1.0

     total cpu time spent up to now is       18.1 secs

     total energy              =     -48.59821696 Ry
     estimated scf accuracy    <       0.00043798 Ry

     iteration #  9     ecut=    50.00 Ry     beta= 0.20
     Davidson diagonalization with overlap
     ethr =  2.86E-06,  avg # of iterations =  1.0

     total cpu time spent up to now is       18.7 secs

     total energy              =     -48.59821715 Ry
     estimated scf accuracy    <       0.00007619 Ry

     iteration # 10     ecut=    50.00 Ry     beta= 0.20
     Davidson diagonalization with overlap
     ethr =  9.52E-07,  avg # of iterations =  1.0

     total cpu time spent up to now is       19.4 secs

     End of self-consistent calculation

          k = 0.0000 0.0000 0.0000 (  1037 PWs)   bands (ev):

   -23.6244  -2.5591  -2.5591  -2.5591

          k =-0.1000 0.1000-0.1000 (  1028 PWs)   bands (ev):

   -23.6095  -2.6820  -2.5651  -2.5651

          k =-0.2000 0.2000-0.2000 (  1037 PWs)   bands (ev):

   -23.5718  -3.1482  -2.6048  -2.6048

          k =-0.3000 0.3000-0.3000 (  1056 PWs)   bands (ev):

   -23.5250  -3.6696  -2.6735  -2.6735

          k =-0.4000 0.4000-0.4000 (  1038 PWs)   bands (ev):

   -23.4849  -3.9192  -2.6678  -2.6678

          k = 0.5000-0.5000 0.5000 (  1056 PWs)   bands (ev):

   -23.4709  -4.1115  -2.7059  -2.7059

          k = 0.0000 0.2000 0.0000 (  1014 PWs)   bands (ev):

   -23.6038  -2.6724  -2.5482  -2.5482

          k =-0.1000 0.3000-0.1000 (  1031 PWs)   bands (ev):

   -23.5743  -3.0260  -2.6539  -2.6204

          k =-0.2000 0.4000-0.2000 (  1040 PWs)   bands (ev):

   -23.5299  -3.5005  -2.6990  -2.6721

          k =-0.3000 0.5000-0.3000 (  1046 PWs)   bands (ev):

   -23.4879  -3.8436  -2.7599  -2.7400

          k = 0.6000-0.4000 0.6000 (  1048 PWs)   bands (ev):

   -23.4647  -4.0224  -2.8111  -2.7378

          k = 0.5000-0.3000 0.5000 (  1046 PWs)   bands (ev):

   -23.4697  -3.9685  -2.8400  -2.7033

          k = 0.4000-0.2000 0.4000 (  1050 PWs)   bands (ev):

   -23.5014  -3.7466  -2.8282  -2.6679

          k = 0.3000-0.1000 0.3000 (  1044 PWs)   bands (ev):

   -23.5463  -3.3675  -2.7433  -2.6122

          k = 0.2000 0.0000 0.2000 (  1027 PWs)   bands (ev):

   -23.5870  -2.9045  -2.6323  -2.5621

          k = 0.0000 0.4000 0.0000 (  1038 PWs)   bands (ev):

   -23.5533  -3.1939  -2.7216  -2.7216

          k =-0.1000 0.5000-0.1000 (  1043 PWs)   bands (ev):

   -23.5160  -3.4914  -2.8328  -2.7947

          k =-0.2000 0.6000-0.2000 (  1046 PWs)   bands (ev):

   -23.4764  -3.7693  -2.9466  -2.8486

          k = 0.7000-0.3000 0.7000 (  1051 PWs)   bands (ev):

   -23.4500  -3.9141  -3.1103  -2.8332

          k = 0.6000-0.2000 0.6000 (  1059 PWs)   bands (ev):

   -23.4476  -3.9323  -3.2000  -2.8004

          k = 0.5000-0.1000 0.5000 (  1049 PWs)   bands (ev):

   -23.4690  -3.7444  -3.1769  -2.7117

          k = 0.4000 0.0000 0.4000 (  1055 PWs)   bands (ev):

   -23.5074  -3.5761  -3.0196  -2.6700

          k = 0.0000 0.6000 0.0000 (  1030 PWs)   bands (ev):

   -23.4868  -3.6531  -2.8608  -2.8608

          k =-0.1000 0.7000-0.1000 (  1045 PWs)   bands (ev):

   -23.4551  -3.8605  -3.0440  -2.9439

          k = 0.8000-0.2000 0.8000 (  1054 PWs)   bands (ev):

   -23.4317  -3.9507  -3.2368  -2.9640

          k = 0.7000-0.1000 0.7000 (  1046 PWs)   bands (ev):

   -23.4254  -3.8162  -3.4353  -2.8858

          k = 0.6000-0.0000 0.6000 (  1059 PWs)   bands (ev):

   -23.4406  -3.7018  -3.5164  -2.8395

          k = 0.0000 0.8000 0.0000 (  1042 PWs)   bands (ev):

   -23.4318  -4.0283  -3.0264  -3.0264

          k = 0.9000-0.1000 0.9000 (  1045 PWs)   bands (ev):

   -23.4161  -4.0744  -3.1538  -3.0401

          k = 0.8000 0.0000 0.8000 (  1037 PWs)   bands (ev):

   -23.4131  -3.9494  -3.3172  -2.9620

          k = 0.0000-1.0000 0.0000 (  1034 PWs)   bands (ev):

   -23.4097  -4.1215  -3.0650  -3.0650

          k =-0.2000 0.4000 0.0000 (  1034 PWs)   bands (ev):

   -23.5404  -3.3364  -2.7727  -2.6240

          k =-0.3000 0.5000-0.1000 (  1050 PWs)   bands (ev):

   -23.4988  -3.6507  -2.9618  -2.7158

          k = 0.6000-0.4000 0.8000 (  1049 PWs)   bands (ev):

   -23.4639  -3.8616  -3.0443  -2.7696

          k = 0.5000-0.3000 0.7000 (  1048 PWs)   bands (ev):

   -23.4505  -3.9607  -3.0544  -2.7771

          k =-0.2000 0.6000 0.0000 (  1044 PWs)   bands (ev):

   -23.4809  -3.6897  -2.9905  -2.8545

          k = 0.7000-0.3000 0.9000 (  1048 PWs)   bands (ev):

   -23.4490  -3.8268  -3.1804  -2.8995

          k = 0.6000-0.2000 0.8000 (  1050 PWs)   bands (ev):

   -23.4325  -3.8553  -3.3252  -2.9031

          k = 0.5000-0.1000 0.7000 (  1056 PWs)   bands (ev):

   -23.4383  -3.7970  -3.4018  -2.8632

          k = 0.4000 0.0000 0.6000 (  1049 PWs)   bands (ev):

   -23.4634  -3.7113  -3.2257  -2.7943

          k = 0.8000-0.2000 1.0000 (  1047 PWs)   bands (ev):

   -23.4307  -3.9696  -3.1408  -3.0151

          k = 0.7000-0.1000 0.9000 (  1052 PWs)   bands (ev):

   -23.4175  -3.9182  -3.3479  -3.0390

          k = 0.6000 0.0000 0.8000 (  1046 PWs)   bands (ev):

   -23.4199  -3.7128  -3.5562  -2.9465

          k =-0.2000-1.0000 0.0000 (  1050 PWs)   bands (ev):

   -23.4112  -4.0574  -3.2232  -3.0822

          k = 0.6000-0.2000 1.0000 (  1047 PWs)   bands (ev):

   -23.4265  -3.7966  -3.4008  -2.9619

          k = 0.5000-0.1000 0.9000 (  1056 PWs)   bands (ev):

   -23.4184  -3.7091  -3.5895  -3.0278

          k =-0.4000-1.0000 0.0000 (  1054 PWs)   bands (ev):

   -23.4126  -3.8127  -3.4876  -3.0884

     highest occupied level (ev):    -2.5482

!    total energy              =     -48.59821803 Ry
     estimated scf accuracy    <       0.00000024 Ry

     The total energy is the sum of the following terms:
     one-electron contribution =     -31.10911340 Ry
     hartree contribution      =      19.76780929 Ry
     xc contribution           =      -9.73631867 Ry
     ewald contribution        =     -27.52059525 Ry

     convergence has been achieved in  10 iterations
     Writing meta-gga kinetic term

     Writing all to output data dir ./input_pw/LiF/11/pwscf.save/
     Writing meta-gga kinetic term
 
     init_run     :      1.06s CPU      2.23s WALL (       1 calls)
     electrons    :     11.51s CPU     17.12s WALL (       1 calls)

     Called by init_run:
     wfcinit      :      0.98s CPU      1.99s WALL (       1 calls)
     potinit      :      0.02s CPU      0.10s WALL (       1 calls)
     hinit0       :      0.06s CPU      0.13s WALL (       1 calls)

     Called by electrons:
     c_bands      :      9.01s CPU     13.58s WALL (      10 calls)
     sum_band     :      2.21s CPU      3.17s WALL (      10 calls)
     v_of_rho     :      0.16s CPU      0.27s WALL (      11 calls)
     mix_rho      :      0.14s CPU      0.19s WALL (      10 calls)

     Called by c_bands:
     init_us_2    :      0.04s CPU      0.06s WALL (     987 calls)
     init_us_2:cp :      0.04s CPU      0.06s WALL (     987 calls)
     cegterg      :      8.97s CPU     13.52s WALL (     470 calls)

     Called by *egterg:
     cdiaghg      :      0.04s CPU      0.08s WALL (     987 calls)
     h_psi        :      9.77s CPU     15.13s WALL (    1034 calls)
     g_psi        :      0.01s CPU      0.01s WALL (     517 calls)

     Called by h_psi:
     h_psi:calbec :      0.01s CPU      0.03s WALL (    1034 calls)
     vloc_psi     :      2.41s CPU      3.86s WALL (    1034 calls)
     add_vuspsi   :      0.02s CPU      0.04s WALL (    1034 calls)
     h_psi_meta   :      7.31s CPU     11.18s WALL (    1034 calls)

     General routines
     calbec       :      0.01s CPU      0.03s WALL (    1034 calls)
     fft          :      0.03s CPU      0.09s WALL (     129 calls)
     ffts         :      0.08s CPU      0.13s WALL (     299 calls)
     fftw         :     10.72s CPU     16.53s WALL (   41600 calls)
     interpolate  :      0.00s CPU      0.00s WALL (      11 calls)
 
     Parallel routines
 
     PWSCF        :     12.61s CPU     19.41s WALL

 
   This run was terminated on:  14:24: 5   7Jul2023            

=------------------------------------------------------------------------------=
   JOB DONE.
=------------------------------------------------------------------------------=
